                               Psi4 1.4a2.dev629

  ==> Input File <==

--------------------------------------------------------------------------
import os
memory 14 GB

molecule {
 SI   -0.0831141092   -0.0028487542   -0.0028382352
 H    0.7684388570   -1.3346419526   -2.3178596008
 H    0.7698738037    2.6590992993    0.0084708925
 H    0.7694868485   -1.3216085924    2.3122269436
units bohr
0 2
}

basis {

assign 6-31g_2dfp_

[ 6-31g_2dfp_ ]

spherical

!----------------------------------------------------------------------
! Basis Set Exchange
! Version v0.8.13
! https://www.basissetexchange.org
!----------------------------------------------------------------------
!   Basis set: 6-31G(2df,p)
! Description: 6-31G(2df,p)
!        Role: orbital
!     Version: 0  (Data from the original Basis Set Exchange)
!----------------------------------------------------------------------

****
H     0
S    3   1.00
     18.7311370              0.03349460
      2.8253937              0.23472695
      0.6401217              0.81375733
S    1   1.00
      0.1612778              1.00000000
P    1   1.00
      1.5000000              1.0000000
P    1   1.00
      0.3750000              1.0000000
****
B     0
S    6   1.00
   2068.8823000              0.0018663
    310.6495700              0.0142515
     70.6830330              0.0695516
     19.8610800              0.2325729
      6.2993048              0.4670787
      2.1270270              0.3634314
SP   3   1.00
      4.7279710             -0.1303938              0.0745976
      1.1903377             -0.1307889              0.3078467
      0.3594117              1.1309444              0.7434568
SP   1   1.00
      0.1267512              1.0000000              1.0000000
D    1   1.00
      0.8020000              1.0000000
D    1   1.00
      0.2005000              1.0000000
F    1   1.00
      0.5000000              1.0000000
****
C     0
S    6   1.00
   3047.5249000              0.0018347
    457.3695100              0.0140373
    103.9486900              0.0688426
     29.2101550              0.2321844
      9.2866630              0.4679413
      3.1639270              0.3623120
SP   3   1.00
      7.8682724             -0.1193324              0.0689991
      1.8812885             -0.1608542              0.3164240
      0.5442493              1.1434564              0.7443083
SP   1   1.00
      0.1687144              1.0000000              1.0000000
D    1   1.00
      1.2520000              1.0000000
D    1   1.00
      0.3130000              1.0000000
F    1   1.00
      0.8000000              1.0000000
****
N     0
S    6   1.00
   4173.5110000              0.0018348
    627.4579000              0.0139950
    142.9021000              0.0685870
     40.2343300              0.2322410
     12.8202100              0.4690700
      4.3904370              0.3604550
SP   3   1.00
     11.6263580             -0.1149610              0.0675800
      2.7162800             -0.1691180              0.3239070
      0.7722180              1.1458520              0.7408950
SP   1   1.00
      0.2120313              1.0000000              1.0000000
D    1   1.00
      1.8260000              1.0000000
D    1   1.00
      0.4565000              1.0000000
F    1   1.00
      1.0000000              1.0000000
****
O     0
S    6   1.00
   5484.6717000              0.0018311
    825.2349500              0.0139501
    188.0469600              0.0684451
     52.9645000              0.2327143
     16.8975700              0.4701930
      5.7996353              0.3585209
SP   3   1.00
     15.5396160             -0.1107775              0.0708743
      3.5999336             -0.1480263              0.3397528
      1.0137618              1.1307670              0.7271586
SP   1   1.00
      0.2700058              1.0000000              1.0000000
D    1   1.00
      2.5840000              1.0000000
D    1   1.00
      0.6460000              1.0000000
F    1   1.00
      1.4000000              1.0000000
****
F     0
S    6   1.00
   7001.7130900              0.0018196169
   1051.3660900              0.0139160796
    239.2856900              0.0684053245
     67.3974453              0.233185760
     21.5199573              0.471267439
      7.40310130             0.356618546
SP   3   1.00
     20.8479528             -0.108506975            0.0716287243
      4.80830834            -0.146451658            0.3459121030
      1.34406986             1.128688580            0.7224699570
SP   1   1.00
      0.358151393            1.0000000              1.0000000
D    1   1.00
      3.5000000              1.0000000
D    1   1.00
      0.8750000              1.0000000
F    1   1.00
      1.8500000              1.0000000
****
Al     0
S    6   1.00
  13983.1000000              0.00194267
   2098.7500000              0.0148599
    477.7050000              0.0728494
    134.3600000              0.2468300
     42.8709000              0.4872580
     14.5189000              0.3234960
SP   6   1.00
    239.6680000             -0.00292619             0.00460285
     57.4419000             -0.0374080              0.0331990
     18.2859000             -0.1144870              0.1362820
      6.5991400              0.1156350              0.3304760
      2.4904900              0.6125950              0.4491460
      0.9445400              0.3937990              0.2657040
SP   3   1.00
      1.2779000             -0.2276060             -0.0175130
      0.3975900              0.00144583             0.2445330
      0.1600950              1.0927900              0.8049340
SP   1   1.00
      0.0556577              1.0000000              1.0000000
D    1   1.00
      0.6500000              1.0000000
D    1   1.00
      0.1625000              1.0000000
F    1   1.00
      0.2500000              1.0000000
****
Si     0
S    6   1.00
  16115.9000000              0.00195948
   2425.5800000              0.01492880
    553.8670000              0.07284780
    156.3400000              0.24613000
     50.0683000              0.48591400
     17.0178000              0.32500200
SP   6   1.00
    292.7180000             -0.00278094             0.00443826
     69.8731000             -0.03571460             0.03266790
     22.3363000             -0.11498500             0.13472100
      8.1503900              0.09356340             0.32867800
      3.1345800              0.60301700             0.44964000
      1.2254300              0.41895900             0.26137200
SP   3   1.00
      1.7273800             -0.24463000            -0.01779510
      0.5729220              0.00431572             0.25353900
      0.2221920              1.09818000             0.80066900
SP   1   1.00
      0.0778369              1.00000000             1.00000000
D    1   1.00
      0.9000000              1.0000000
D    1   1.00
      0.2250000              1.0000000
F    1   1.00
      0.3200000              1.0000000
****
P     0
S    6   1.00
  19413.3000000              0.0018516
   2909.4200000              0.0142062
    661.3640000              0.0699995
    185.7590000              0.2400790
     59.1943000              0.4847620
     20.0310000              0.3352000
SP   6   1.00
    339.4780000             -0.00278217             0.00456462
     81.0101000             -0.0360499              0.03369360
     25.8780000             -0.1166310              0.13975500
      9.4522100              0.0968328              0.33936200
      3.6656600              0.6144180              0.45092100
      1.4674600              0.4037980              0.23858600
SP   3   1.00
      2.1562300             -0.2529230             -0.01776530
      0.7489970              0.0328517              0.27405800
      0.2831450              1.0812500              0.78542100
SP   1   1.00
      0.0998317              1.0000000              1.00000000
D    1   1.00
      1.1000000              1.0000000
D    1   1.00
      0.2750000              1.0000000
F    1   1.00
      0.4500000              1.0000000
****
S     0
S    6   1.00
  21917.1000000              0.0018690
   3301.4900000              0.0142300
    754.1460000              0.0696960
    212.7110000              0.2384870
     67.9896000              0.4833070
     23.0515000              0.3380740
SP   6   1.00
    423.7350000             -0.0023767              0.0040610
    100.7100000             -0.0316930              0.0306810
     32.1599000             -0.1133170              0.1304520
     11.8079000              0.0560900              0.3272050
      4.6311000              0.5922550              0.4528510
      1.8702500              0.4550060              0.2560420
SP   3   1.00
      2.6158400             -0.2503740             -0.0145110
      0.9221670              0.0669570              0.3102630
      0.3412870              1.0545100              0.7544830
SP   1   1.00
      0.1171670              1.0000000              1.0000000
D    1   1.00
      1.3000000              1.0000000
D    1   1.00
      0.3250000              1.0000000
F    1   1.00
      0.5500000              1.0000000
****
Cl     0
S    6   1.00
  25180.1000000              0.0018330
   3780.3500000              0.0140340
    860.4740000              0.0690970
    242.1450000              0.2374520
     77.3349000              0.4830340
     26.2470000              0.3398560
SP   6   1.00
    491.7650000             -0.0022974              0.0039894
    116.9840000             -0.0307140              0.0303180
     37.4153000             -0.1125280              0.1298800
     13.7834000              0.0450160              0.3279510
      5.4521500              0.5893530              0.4535270
      2.2258800              0.4652060              0.2521540
SP   3   1.00
      3.1864900             -0.2518300             -0.0142990
      1.1442700              0.0615890              0.3235720
      0.4203770              1.0601800              0.7435070
SP   1   1.00
      0.1426570              1.0000000              1.0000000
D    1   1.00
      1.5000000              1.0000000
D    1   1.00
      0.3750000              1.0000000
F    1   1.00
      0.7000000              1.0000000
****
}

set {
reference uhf
freeze_core true
e_convergence 10
d_convergence 10
dft_spherical_points 1202
dft_radial_points 99
}

e = energy('b3lyp')

print_out('Grab this energy {0}'.format(e))
--------------------------------------------------------------------------

    Molecular point group: c1

    Geometry (in Bohr), charge = 0, multiplicity = 2:

       Center              X                  Y                   Z               Mass
    ------------   -----------------  -----------------  -----------------  -----------------
         SI          -0.083132844043    -0.000370452725    -0.000369084832    27.976926534650
         H            0.768420122157    -1.332163651125    -2.315390450432     1.007825032230
         H            0.769855068857     2.661577600775     0.010940042868     1.007825032230
         H            0.769468113657    -1.319130290925     2.314696093968     1.007825032230

  Charge       = 0
  Multiplicity = 2
  Basis Set: ANONYMOUS5D0C5247
    Blend: 6-31G_2DFP_
  Basis Set: (ANONYMOUS5D0C5247 AUX)
    Blend: DEF2-UNIVERSAL-JKFIT

    Orbital Energies [Eh]
    ---------------------

    Alpha Occupied:

       1A    -66.127808     2A     -5.286721     3A     -3.649035
       4A     -3.642948     5A     -3.642915     6A     -0.541596
       7A     -0.360717     8A     -0.359961     9A     -0.221669

    Alpha Virtual:

      10A      0.045044    11A      0.046271    12A      0.079716
      13A      0.144113    14A      0.216062    15A      0.216576
      16A      0.235446    17A      0.245532    18A      0.245916
      19A      0.381510    20A      0.453801    21A      0.454634
      22A      0.632044    23A      0.690476    24A      0.691876
      25A      0.699268    26A      0.773112    27A      0.774645
      28A      0.813477    29A      0.944639    30A      0.946115
      31A      1.104065    32A      1.186457    33A      1.188210
      34A      1.281613    35A      1.282026    36A      1.294421
      37A      1.340504    38A      1.617100    39A      1.650460
      40A      1.657157    41A      1.695935    42A      1.696019
      43A      1.784445    44A      1.891143    45A      1.893147
      46A      3.792025    47A      3.793375    48A      3.794157
      49A      3.850665    50A      3.855368    51A      3.856775
      52A      4.024755    53A      4.031528    54A      4.060572

    Beta Occupied:

       1A    -66.124512     2A     -5.282686     3A     -3.640592
       4A     -3.640563     5A     -3.638864     6A     -0.521130
       7A     -0.354439     8A     -0.353738

    Beta Virtual:

       9A     -0.104604    10A      0.056794    11A      0.058076
      12A      0.098103    13A      0.155632    14A      0.222658
      15A      0.223160    16A      0.266402    17A      0.270831
      18A      0.271412    19A      0.420307    20A      0.462437
      21A      0.463363    22A      0.633125    23A      0.707571
      24A      0.707916    25A      0.708900    26A      0.789396
      27A      0.790970    28A      0.822837    29A      0.958860
      30A      0.960384    31A      1.139558    32A      1.200812
      33A      1.202633    34A      1.300196    35A      1.300858
      36A      1.302731    37A      1.347129    38A      1.628837
      39A      1.658483    40A      1.665838    41A      1.707782
      42A      1.708676    43A      1.803882    44A      1.899798
      45A      1.901936    46A      3.794904    47A      3.797546
      48A      3.798190    49A      3.854727    50A      3.858209
      51A      3.859649    52A      4.028474    53A      4.035195
      54A      4.065010

    Final Occupation by Irrep:
              A
    DOCC [     8 ]
    SOCC [     1 ]

  @DF-UKS Final Energy:  -291.23882998479428

   => Energetics <=

    Nuclear Repulsion Energy =             15.6570078379134952
    One-Electron Energy =                -433.7596582552126847
    Two-Electron Energy =                 144.5966572959312373
    DFT Exchange-Correlation Energy =     -17.7328368634263889
    Empirical Dispersion Energy =           0.0000000000000000
    VV10 Nonlocal Energy =                  0.0000000000000000
    Total Energy =                       -291.2388299847943358

  UHF NO Occupations:
  HONO-2 :    7  A 1.9998712
  HONO-1 :    8  A 1.9992688
  HONO-0 :    9  A 1.0000000
  LUNO+0 :   10  A 0.0007312
  LUNO+1 :   11  A 0.0001288
  LUNO+2 :   12  A 0.0001263
  LUNO+3 :   13  A 0.0000002

Computation Completed

Properties will be evaluated at   0.000000,   0.000000,   0.000000 [a0]

Properties computed using the SCF density matrix

  Nuclear Dipole Moment: [e a0]
     X:     1.1439      Y:     0.0051      Z:     0.0051

  Electronic Dipole Moment: [e a0]
     X:    -1.1410      Y:    -0.0069      Z:    -0.0069

  Dipole Moment: [e a0]
     X:     0.0029      Y:    -0.0018      Z:    -0.0018     Total:     0.0039

  Dipole Moment: [D]
     X:     0.0073      Y:    -0.0046      Z:    -0.0047     Total:     0.0098

*** tstop() called on n080 at Thu Nov  4 14:21:47 2021
Module time:
	user time   =      14.65 seconds =       0.24 minutes
	system time =       0.22 seconds =       0.00 minutes
	total time  =         15 seconds =       0.25 minutes
Total time:
	user time   =      14.65 seconds =       0.24 minutes
	system time =       0.22 seconds =       0.00 minutes
	total time  =         15 seconds =       0.25 minutes
Grab this energy -291.2388299847943
    Psi4 stopped on: Thursday, 04 November 2021 02:21PM
    Psi4 wall time for execution: 0:00:14.90

*** Psi4 exiting successfully. Buy a developer a beer!
