                               Psi4 1.4a2.dev629

  ==> Input File <==

--------------------------------------------------------------------------
import os
memory 14 GB

molecule {
 SI   -0.0830663242    0.0000000000   -0.0000000000
 H    0.7692505747   -1.3357327406   -2.3135569711
 H    0.7692505747    2.6714654812   -0.0000000000
 H    0.7692505747   -1.3357327406    2.3135569711
units bohr
0 2
}

basis {

assign 6-31g_2dfp_

[ 6-31g_2dfp_ ]

spherical

!----------------------------------------------------------------------
! Basis Set Exchange
! Version v0.8.13
! https://www.basissetexchange.org
!----------------------------------------------------------------------
!   Basis set: 6-31G(2df,p)
! Description: 6-31G(2df,p)
!        Role: orbital
!     Version: 0  (Data from the original Basis Set Exchange)
!----------------------------------------------------------------------

****
H     0
S    3   1.00
     18.7311370              0.03349460
      2.8253937              0.23472695
      0.6401217              0.81375733
S    1   1.00
      0.1612778              1.00000000
P    1   1.00
      1.5000000              1.0000000
P    1   1.00
      0.3750000              1.0000000
****
B     0
S    6   1.00
   2068.8823000              0.0018663
    310.6495700              0.0142515
     70.6830330              0.0695516
     19.8610800              0.2325729
      6.2993048              0.4670787
      2.1270270              0.3634314
SP   3   1.00
      4.7279710             -0.1303938              0.0745976
      1.1903377             -0.1307889              0.3078467
      0.3594117              1.1309444              0.7434568
SP   1   1.00
      0.1267512              1.0000000              1.0000000
D    1   1.00
      0.8020000              1.0000000
D    1   1.00
      0.2005000              1.0000000
F    1   1.00
      0.5000000              1.0000000
****
C     0
S    6   1.00
   3047.5249000              0.0018347
    457.3695100              0.0140373
    103.9486900              0.0688426
     29.2101550              0.2321844
      9.2866630              0.4679413
      3.1639270              0.3623120
SP   3   1.00
      7.8682724             -0.1193324              0.0689991
      1.8812885             -0.1608542              0.3164240
      0.5442493              1.1434564              0.7443083
SP   1   1.00
      0.1687144              1.0000000              1.0000000
D    1   1.00
      1.2520000              1.0000000
D    1   1.00
      0.3130000              1.0000000
F    1   1.00
      0.8000000              1.0000000
****
N     0
S    6   1.00
   4173.5110000              0.0018348
    627.4579000              0.0139950
    142.9021000              0.0685870
     40.2343300              0.2322410
     12.8202100              0.4690700
      4.3904370              0.3604550
SP   3   1.00
     11.6263580             -0.1149610              0.0675800
      2.7162800             -0.1691180              0.3239070
      0.7722180              1.1458520              0.7408950
SP   1   1.00
      0.2120313              1.0000000              1.0000000
D    1   1.00
      1.8260000              1.0000000
D    1   1.00
      0.4565000              1.0000000
F    1   1.00
      1.0000000              1.0000000
****
O     0
S    6   1.00
   5484.6717000              0.0018311
    825.2349500              0.0139501
    188.0469600              0.0684451
     52.9645000              0.2327143
     16.8975700              0.4701930
      5.7996353              0.3585209
SP   3   1.00
     15.5396160             -0.1107775              0.0708743
      3.5999336             -0.1480263              0.3397528
      1.0137618              1.1307670              0.7271586
SP   1   1.00
      0.2700058              1.0000000              1.0000000
D    1   1.00
      2.5840000              1.0000000
D    1   1.00
      0.6460000              1.0000000
F    1   1.00
      1.4000000              1.0000000
****
F     0
S    6   1.00
   7001.7130900              0.0018196169
   1051.3660900              0.0139160796
    239.2856900              0.0684053245
     67.3974453              0.233185760
     21.5199573              0.471267439
      7.40310130             0.356618546
SP   3   1.00
     20.8479528             -0.108506975            0.0716287243
      4.80830834            -0.146451658            0.3459121030
      1.34406986             1.128688580            0.7224699570
SP   1   1.00
      0.358151393            1.0000000              1.0000000
D    1   1.00
      3.5000000              1.0000000
D    1   1.00
      0.8750000              1.0000000
F    1   1.00
      1.8500000              1.0000000
****
Al     0
S    6   1.00
  13983.1000000              0.00194267
   2098.7500000              0.0148599
    477.7050000              0.0728494
    134.3600000              0.2468300
     42.8709000              0.4872580
     14.5189000              0.3234960
SP   6   1.00
    239.6680000             -0.00292619             0.00460285
     57.4419000             -0.0374080              0.0331990
     18.2859000             -0.1144870              0.1362820
      6.5991400              0.1156350              0.3304760
      2.4904900              0.6125950              0.4491460
      0.9445400              0.3937990              0.2657040
SP   3   1.00
      1.2779000             -0.2276060             -0.0175130
      0.3975900              0.00144583             0.2445330
      0.1600950              1.0927900              0.8049340
SP   1   1.00
      0.0556577              1.0000000              1.0000000
D    1   1.00
      0.6500000              1.0000000
D    1   1.00
      0.1625000              1.0000000
F    1   1.00
      0.2500000              1.0000000
****
Si     0
S    6   1.00
  16115.9000000              0.00195948
   2425.5800000              0.01492880
    553.8670000              0.07284780
    156.3400000              0.24613000
     50.0683000              0.48591400
     17.0178000              0.32500200
SP   6   1.00
    292.7180000             -0.00278094             0.00443826
     69.8731000             -0.03571460             0.03266790
     22.3363000             -0.11498500             0.13472100
      8.1503900              0.09356340             0.32867800
      3.1345800              0.60301700             0.44964000
      1.2254300              0.41895900             0.26137200
SP   3   1.00
      1.7273800             -0.24463000            -0.01779510
      0.5729220              0.00431572             0.25353900
      0.2221920              1.09818000             0.80066900
SP   1   1.00
      0.0778369              1.00000000             1.00000000
D    1   1.00
      0.9000000              1.0000000
D    1   1.00
      0.2250000              1.0000000
F    1   1.00
      0.3200000              1.0000000
****
P     0
S    6   1.00
  19413.3000000              0.0018516
   2909.4200000              0.0142062
    661.3640000              0.0699995
    185.7590000              0.2400790
     59.1943000              0.4847620
     20.0310000              0.3352000
SP   6   1.00
    339.4780000             -0.00278217             0.00456462
     81.0101000             -0.0360499              0.03369360
     25.8780000             -0.1166310              0.13975500
      9.4522100              0.0968328              0.33936200
      3.6656600              0.6144180              0.45092100
      1.4674600              0.4037980              0.23858600
SP   3   1.00
      2.1562300             -0.2529230             -0.01776530
      0.7489970              0.0328517              0.27405800
      0.2831450              1.0812500              0.78542100
SP   1   1.00
      0.0998317              1.0000000              1.00000000
D    1   1.00
      1.1000000              1.0000000
D    1   1.00
      0.2750000              1.0000000
F    1   1.00
      0.4500000              1.0000000
****
S     0
S    6   1.00
  21917.1000000              0.0018690
   3301.4900000              0.0142300
    754.1460000              0.0696960
    212.7110000              0.2384870
     67.9896000              0.4833070
     23.0515000              0.3380740
SP   6   1.00
    423.7350000             -0.0023767              0.0040610
    100.7100000             -0.0316930              0.0306810
     32.1599000             -0.1133170              0.1304520
     11.8079000              0.0560900              0.3272050
      4.6311000              0.5922550              0.4528510
      1.8702500              0.4550060              0.2560420
SP   3   1.00
      2.6158400             -0.2503740             -0.0145110
      0.9221670              0.0669570              0.3102630
      0.3412870              1.0545100              0.7544830
SP   1   1.00
      0.1171670              1.0000000              1.0000000
D    1   1.00
      1.3000000              1.0000000
D    1   1.00
      0.3250000              1.0000000
F    1   1.00
      0.5500000              1.0000000
****
Cl     0
S    6   1.00
  25180.1000000              0.0018330
   3780.3500000              0.0140340
    860.4740000              0.0690970
    242.1450000              0.2374520
     77.3349000              0.4830340
     26.2470000              0.3398560
SP   6   1.00
    491.7650000             -0.0022974              0.0039894
    116.9840000             -0.0307140              0.0303180
     37.4153000             -0.1125280              0.1298800
     13.7834000              0.0450160              0.3279510
      5.4521500              0.5893530              0.4535270
      2.2258800              0.4652060              0.2521540
SP   3   1.00
      3.1864900             -0.2518300             -0.0142990
      1.1442700              0.0615890              0.3235720
      0.4203770              1.0601800              0.7435070
SP   1   1.00
      0.1426570              1.0000000              1.0000000
D    1   1.00
      1.5000000              1.0000000
D    1   1.00
      0.3750000              1.0000000
F    1   1.00
      0.7000000              1.0000000
****
}

set {
reference uhf
freeze_core true
e_convergence 10
d_convergence 10
dft_spherical_points 1202
dft_radial_points 99
}

e = energy('b3lyp')

print_out('Grab this energy {0}'.format(e))
--------------------------------------------------------------------------

    Molecular point group: cs

    Geometry (in Bohr), charge = 0, multiplicity = 2:

       Center              X                  Y                   Z               Mass
    ------------   -----------------  -----------------  -----------------  -----------------
         SI           0.000000000000     0.083126630066     0.000000000000    27.976926534650
         H            1.335732740188    -0.769190268834    -2.313556971814     1.007825032230
         H            1.335732740188    -0.769190268834     2.313556971814     1.007825032230
         H           -2.671465480375    -0.769190268834     0.000000000000     1.007825032230

  Charge       = 0
  Multiplicity = 2
  Basis Set: ANONYMOUS2229F186
    Blend: 6-31G_2DFP_
  Basis Set: (ANONYMOUS2229F186 AUX)
    Blend: DEF2-UNIVERSAL-JKFIT

    Orbital Energies [Eh]
    ---------------------

    Alpha Occupied:

       1Ap   -66.128481     2Ap    -5.287170     3Ap    -3.649494
       4Ap    -3.643392     1App   -3.643392     5Ap    -0.541174
       2App   -0.360098     6Ap    -0.360098     7Ap    -0.221661

    Alpha Virtual:

       3App    0.045460     8Ap     0.045460     9Ap     0.078513
      10Ap     0.144402     4App    0.216110    11Ap     0.216110
      12Ap     0.235386     5App    0.245669    13Ap     0.245669
      14Ap     0.381178     6App    0.454076    15Ap     0.454076
       7App    0.631187     8App    0.690331    16Ap     0.690331
      17Ap     0.699196     9App    0.773683    18Ap     0.773683
      19Ap     0.812556    10App    0.944230    20Ap     0.944230
      21Ap     1.103678    11App    1.186096    22Ap     1.186096
      12App    1.280658    23Ap     1.280658    24Ap     1.291723
      13App    1.340060    25Ap     1.614304    14App    1.649843
      26Ap     1.649843    15App    1.694443    27Ap     1.694443
      28Ap     1.783870    16App    1.891735    29Ap     1.891735
      17App    3.791569    30Ap     3.793538    18App    3.793538
      31Ap     3.851011    19App    3.856332    32Ap     3.856332
      20App    4.026532    33Ap     4.026532    34Ap     4.062078

    Beta Occupied:

       1Ap   -66.125186     2Ap    -5.283136     1App   -3.641039
       3Ap    -3.641039     4Ap    -3.639330     5Ap    -0.520685
       2App   -0.353838     6Ap    -0.353838

    Beta Virtual:

       7Ap    -0.104639     8Ap     0.057249     3App    0.057249
       9Ap     0.096758    10Ap     0.156006    11Ap     0.222685
       4App    0.222685    12Ap     0.266372    13Ap     0.271044
       5App    0.271044    14Ap     0.419995    15Ap     0.462787
       6App    0.462787     7App    0.632270    16Ap     0.707387
       8App    0.707387    17Ap     0.707825     9App    0.789913
      18Ap     0.789913    19Ap     0.821828    10App    0.958503
      20Ap     0.958503    21Ap     1.139195    22Ap     1.200495
      11App    1.200495    23Ap     1.299244    24Ap     1.299777
      12App    1.299777    13App    1.346642    25Ap     1.626042
      14App    1.657644    26Ap     1.657644    27Ap     1.707287
      15App    1.707287    28Ap     1.803346    29Ap     1.900416
      16App    1.900416    17App    3.794381    30Ap     3.797703
      18App    3.797703    31Ap     3.855142    19App    3.859189
      32Ap     3.859189    20App    4.030239    33Ap     4.030239
      34Ap     4.066532

    Final Occupation by Irrep:
             Ap   App
    DOCC [     6,    2 ]
    SOCC [     1,    0 ]

  @DF-UKS Final Energy:  -291.23885871082041

   => Energetics <=

    Nuclear Repulsion Energy =             15.6262343177710932
    One-Electron Energy =                -433.6962315644840373
    Two-Electron Energy =                 144.5622299613382324
    DFT Exchange-Correlation Energy =     -17.7310914254457224
    Empirical Dispersion Energy =           0.0000000000000000
    VV10 Nonlocal Energy =                  0.0000000000000000
    Total Energy =                       -291.2388587108204092

  UHF NO Occupations:
  HONO-2 :    2App 1.9998727
  HONO-1 :    6 Ap 1.9992674
  HONO-0 :    7 Ap 1.0000000
  LUNO+0 :    8 Ap 0.0007326
  LUNO+1 :    3App 0.0001273
  LUNO+2 :    9 Ap 0.0001273
  LUNO+3 :   10 Ap 0.0000002

Computation Completed

Properties will be evaluated at   0.000000,   0.000000,   0.000000 [a0]

Properties computed using the SCF density matrix

  Nuclear Dipole Moment: [e a0]
     X:     0.0000      Y:    -1.1438      Z:     0.0000

  Electronic Dipole Moment: [e a0]
     X:     0.0000      Y:     1.1409      Z:     0.0000

  Dipole Moment: [e a0]
     X:     0.0000      Y:    -0.0029      Z:     0.0000     Total:     0.0029

  Dipole Moment: [D]
     X:     0.0000      Y:    -0.0074      Z:     0.0000     Total:     0.0074

*** tstop() called on n090 at Thu Nov  4 14:21:16 2021
Module time:
	user time   =      13.69 seconds =       0.23 minutes
	system time =       0.24 seconds =       0.00 minutes
	total time  =         14 seconds =       0.23 minutes
Total time:
	user time   =      13.69 seconds =       0.23 minutes
	system time =       0.24 seconds =       0.00 minutes
	total time  =         14 seconds =       0.23 minutes
Grab this energy -291.2388587108204
    Psi4 stopped on: Thursday, 04 November 2021 02:21PM
    Psi4 wall time for execution: 0:00:13.96

*** Psi4 exiting successfully. Buy a developer a beer!
