                               Psi4 1.4a2.dev629

  ==> Input File <==

--------------------------------------------------------------------------
import os
memory 14 GB

molecule {
 SI   -0.0831308857   -0.0000018169   -0.0049504371
 H    0.7683579506   -1.3320774567   -2.3064628590
 H    0.7692724826    2.6656749927    0.0007735765
 H    0.7701858526   -1.3335957191    2.3106397197
units bohr
0 2
}

basis {

assign 6-31g_2dfp_

[ 6-31g_2dfp_ ]

spherical

!----------------------------------------------------------------------
! Basis Set Exchange
! Version v0.8.13
! https://www.basissetexchange.org
!----------------------------------------------------------------------
!   Basis set: 6-31G(2df,p)
! Description: 6-31G(2df,p)
!        Role: orbital
!     Version: 0  (Data from the original Basis Set Exchange)
!----------------------------------------------------------------------

****
H     0
S    3   1.00
     18.7311370              0.03349460
      2.8253937              0.23472695
      0.6401217              0.81375733
S    1   1.00
      0.1612778              1.00000000
P    1   1.00
      1.5000000              1.0000000
P    1   1.00
      0.3750000              1.0000000
****
B     0
S    6   1.00
   2068.8823000              0.0018663
    310.6495700              0.0142515
     70.6830330              0.0695516
     19.8610800              0.2325729
      6.2993048              0.4670787
      2.1270270              0.3634314
SP   3   1.00
      4.7279710             -0.1303938              0.0745976
      1.1903377             -0.1307889              0.3078467
      0.3594117              1.1309444              0.7434568
SP   1   1.00
      0.1267512              1.0000000              1.0000000
D    1   1.00
      0.8020000              1.0000000
D    1   1.00
      0.2005000              1.0000000
F    1   1.00
      0.5000000              1.0000000
****
C     0
S    6   1.00
   3047.5249000              0.0018347
    457.3695100              0.0140373
    103.9486900              0.0688426
     29.2101550              0.2321844
      9.2866630              0.4679413
      3.1639270              0.3623120
SP   3   1.00
      7.8682724             -0.1193324              0.0689991
      1.8812885             -0.1608542              0.3164240
      0.5442493              1.1434564              0.7443083
SP   1   1.00
      0.1687144              1.0000000              1.0000000
D    1   1.00
      1.2520000              1.0000000
D    1   1.00
      0.3130000              1.0000000
F    1   1.00
      0.8000000              1.0000000
****
N     0
S    6   1.00
   4173.5110000              0.0018348
    627.4579000              0.0139950
    142.9021000              0.0685870
     40.2343300              0.2322410
     12.8202100              0.4690700
      4.3904370              0.3604550
SP   3   1.00
     11.6263580             -0.1149610              0.0675800
      2.7162800             -0.1691180              0.3239070
      0.7722180              1.1458520              0.7408950
SP   1   1.00
      0.2120313              1.0000000              1.0000000
D    1   1.00
      1.8260000              1.0000000
D    1   1.00
      0.4565000              1.0000000
F    1   1.00
      1.0000000              1.0000000
****
O     0
S    6   1.00
   5484.6717000              0.0018311
    825.2349500              0.0139501
    188.0469600              0.0684451
     52.9645000              0.2327143
     16.8975700              0.4701930
      5.7996353              0.3585209
SP   3   1.00
     15.5396160             -0.1107775              0.0708743
      3.5999336             -0.1480263              0.3397528
      1.0137618              1.1307670              0.7271586
SP   1   1.00
      0.2700058              1.0000000              1.0000000
D    1   1.00
      2.5840000              1.0000000
D    1   1.00
      0.6460000              1.0000000
F    1   1.00
      1.4000000              1.0000000
****
F     0
S    6   1.00
   7001.7130900              0.0018196169
   1051.3660900              0.0139160796
    239.2856900              0.0684053245
     67.3974453              0.233185760
     21.5199573              0.471267439
      7.40310130             0.356618546
SP   3   1.00
     20.8479528             -0.108506975            0.0716287243
      4.80830834            -0.146451658            0.3459121030
      1.34406986             1.128688580            0.7224699570
SP   1   1.00
      0.358151393            1.0000000              1.0000000
D    1   1.00
      3.5000000              1.0000000
D    1   1.00
      0.8750000              1.0000000
F    1   1.00
      1.8500000              1.0000000
****
Al     0
S    6   1.00
  13983.1000000              0.00194267
   2098.7500000              0.0148599
    477.7050000              0.0728494
    134.3600000              0.2468300
     42.8709000              0.4872580
     14.5189000              0.3234960
SP   6   1.00
    239.6680000             -0.00292619             0.00460285
     57.4419000             -0.0374080              0.0331990
     18.2859000             -0.1144870              0.1362820
      6.5991400              0.1156350              0.3304760
      2.4904900              0.6125950              0.4491460
      0.9445400              0.3937990              0.2657040
SP   3   1.00
      1.2779000             -0.2276060             -0.0175130
      0.3975900              0.00144583             0.2445330
      0.1600950              1.0927900              0.8049340
SP   1   1.00
      0.0556577              1.0000000              1.0000000
D    1   1.00
      0.6500000              1.0000000
D    1   1.00
      0.1625000              1.0000000
F    1   1.00
      0.2500000              1.0000000
****
Si     0
S    6   1.00
  16115.9000000              0.00195948
   2425.5800000              0.01492880
    553.8670000              0.07284780
    156.3400000              0.24613000
     50.0683000              0.48591400
     17.0178000              0.32500200
SP   6   1.00
    292.7180000             -0.00278094             0.00443826
     69.8731000             -0.03571460             0.03266790
     22.3363000             -0.11498500             0.13472100
      8.1503900              0.09356340             0.32867800
      3.1345800              0.60301700             0.44964000
      1.2254300              0.41895900             0.26137200
SP   3   1.00
      1.7273800             -0.24463000            -0.01779510
      0.5729220              0.00431572             0.25353900
      0.2221920              1.09818000             0.80066900
SP   1   1.00
      0.0778369              1.00000000             1.00000000
D    1   1.00
      0.9000000              1.0000000
D    1   1.00
      0.2250000              1.0000000
F    1   1.00
      0.3200000              1.0000000
****
P     0
S    6   1.00
  19413.3000000              0.0018516
   2909.4200000              0.0142062
    661.3640000              0.0699995
    185.7590000              0.2400790
     59.1943000              0.4847620
     20.0310000              0.3352000
SP   6   1.00
    339.4780000             -0.00278217             0.00456462
     81.0101000             -0.0360499              0.03369360
     25.8780000             -0.1166310              0.13975500
      9.4522100              0.0968328              0.33936200
      3.6656600              0.6144180              0.45092100
      1.4674600              0.4037980              0.23858600
SP   3   1.00
      2.1562300             -0.2529230             -0.01776530
      0.7489970              0.0328517              0.27405800
      0.2831450              1.0812500              0.78542100
SP   1   1.00
      0.0998317              1.0000000              1.00000000
D    1   1.00
      1.1000000              1.0000000
D    1   1.00
      0.2750000              1.0000000
F    1   1.00
      0.4500000              1.0000000
****
S     0
S    6   1.00
  21917.1000000              0.0018690
   3301.4900000              0.0142300
    754.1460000              0.0696960
    212.7110000              0.2384870
     67.9896000              0.4833070
     23.0515000              0.3380740
SP   6   1.00
    423.7350000             -0.0023767              0.0040610
    100.7100000             -0.0316930              0.0306810
     32.1599000             -0.1133170              0.1304520
     11.8079000              0.0560900              0.3272050
      4.6311000              0.5922550              0.4528510
      1.8702500              0.4550060              0.2560420
SP   3   1.00
      2.6158400             -0.2503740             -0.0145110
      0.9221670              0.0669570              0.3102630
      0.3412870              1.0545100              0.7544830
SP   1   1.00
      0.1171670              1.0000000              1.0000000
D    1   1.00
      1.3000000              1.0000000
D    1   1.00
      0.3250000              1.0000000
F    1   1.00
      0.5500000              1.0000000
****
Cl     0
S    6   1.00
  25180.1000000              0.0018330
   3780.3500000              0.0140340
    860.4740000              0.0690970
    242.1450000              0.2374520
     77.3349000              0.4830340
     26.2470000              0.3398560
SP   6   1.00
    491.7650000             -0.0022974              0.0039894
    116.9840000             -0.0307140              0.0303180
     37.4153000             -0.1125280              0.1298800
     13.7834000              0.0450160              0.3279510
      5.4521500              0.5893530              0.4535270
      2.2258800              0.4652060              0.2521540
SP   3   1.00
      3.1864900             -0.2518300             -0.0142990
      1.1442700              0.0615890              0.3235720
      0.4203770              1.0601800              0.7435070
SP   1   1.00
      0.1426570              1.0000000              1.0000000
D    1   1.00
      1.5000000              1.0000000
D    1   1.00
      0.3750000              1.0000000
F    1   1.00
      0.7000000              1.0000000
****
}

set {
reference uhf
freeze_core true
e_convergence 10
d_convergence 10
dft_spherical_points 1202
dft_radial_points 99
}

e = energy('b3lyp')

print_out('Grab this energy {0}'.format(e))
--------------------------------------------------------------------------

    Molecular point group: c1

    Geometry (in Bohr), charge = 0, multiplicity = 2:

       Center              X                  Y                   Z               Mass
    ------------   -----------------  -----------------  -----------------  -----------------
         SI          -0.083135025667    -0.000000236270    -0.000643756105    27.976926534650
         H            0.768353810633    -1.332075876070    -2.302156178005     1.007825032230
         H            0.769268342633     2.665676573330     0.005080257495     1.007825032230
         H            0.770181712633    -1.333594138470     2.314946400695     1.007825032230

  Charge       = 0
  Multiplicity = 2
  Basis Set: ANONYMOUSA0508C8F
    Blend: 6-31G_2DFP_
  Basis Set: (ANONYMOUSA0508C8F AUX)
    Blend: DEF2-UNIVERSAL-JKFIT

    Orbital Energies [Eh]
    ---------------------

    Alpha Occupied:

       1A    -66.127807     2A     -5.286721     3A     -3.649035
       4A     -3.642939     5A     -3.642924     6A     -0.541598
       7A     -0.360817     8A     -0.359864     9A     -0.221670

    Alpha Virtual:

      10A      0.045279    11A      0.046065    12A      0.079688
      13A      0.144117    14A      0.216295    15A      0.216343
      16A      0.235446    17A      0.245667    18A      0.245779
      19A      0.381497    20A      0.453976    21A      0.454468
      22A      0.632070    23A      0.691030    24A      0.691289
      25A      0.699294    26A      0.773450    27A      0.774283
      28A      0.813470    29A      0.945163    30A      0.945579
      31A      1.104064    32A      1.186643    33A      1.188068
      34A      1.281232    35A      1.282551    36A      1.294270
      37A      1.340468    38A      1.616886    39A      1.652456
      40A      1.655505    41A      1.694860    42A      1.696984
      43A      1.784501    44A      1.891240    45A      1.893022
      46A      3.792237    47A      3.793441    48A      3.793888
      49A      3.850819    50A      3.856001    51A      3.856054
      52A      4.027930    53A      4.028379    54A      4.060538

    Beta Occupied:

       1A    -66.124511     2A     -5.282686     3A     -3.640585
       4A     -3.640570     5A     -3.638864     6A     -0.521132
       7A     -0.354557     8A     -0.353622

    Beta Virtual:

       9A     -0.104604    10A      0.057061    11A      0.057835
      12A      0.098077    13A      0.155638    14A      0.222848
      15A      0.222965    16A      0.266401    17A      0.271021
      18A      0.271221    19A      0.420299    20A      0.462672
      21A      0.463137    22A      0.633145    23A      0.707786
      24A      0.708167    25A      0.708431    26A      0.789709
      27A      0.790635    28A      0.822819    29A      0.959410
      30A      0.959829    31A      1.139567    32A      1.201073
      33A      1.202405    34A      1.300209    35A      1.301422
      36A      1.302162    37A      1.347080    38A      1.628587
      39A      1.660510    40A      1.664142    41A      1.707413
      42A      1.708987    43A      1.803935    44A      1.899944
      45A      1.901761    46A      3.795032    47A      3.797596
      48A      3.798020    49A      3.854932    50A      3.858836
      51A      3.858883    52A      4.031631    53A      4.032067
      54A      4.064973

    Final Occupation by Irrep:
              A
    DOCC [     8 ]
    SOCC [     1 ]

  @DF-UKS Final Energy:  -291.23883145720703

   => Energetics <=

    Nuclear Repulsion Energy =             15.6570332914317039
    One-Electron Energy =                -433.7597001033842616
    Two-Electron Energy =                 144.5966749335609052
    DFT Exchange-Correlation Energy =     -17.7328395788154189
    Empirical Dispersion Energy =           0.0000000000000000
    VV10 Nonlocal Energy =                  0.0000000000000000
    Total Energy =                       -291.2388314572070271

  UHF NO Occupations:
  HONO-2 :    7  A 1.9998719
  HONO-1 :    8  A 1.9992688
  HONO-0 :    9  A 1.0000000
  LUNO+0 :   10  A 0.0007312
  LUNO+1 :   11  A 0.0001281
  LUNO+2 :   12  A 0.0001270
  LUNO+3 :   13  A 0.0000002

Computation Completed

Properties will be evaluated at   0.000000,   0.000000,   0.000000 [a0]

Properties computed using the SCF density matrix

  Nuclear Dipole Moment: [e a0]
     X:     1.1439      Y:     0.0000      Z:     0.0089

  Electronic Dipole Moment: [e a0]
     X:    -1.1411      Y:     0.0000      Z:    -0.0133

  Dipole Moment: [e a0]
     X:     0.0029      Y:     0.0000      Z:    -0.0045     Total:     0.0053

  Dipole Moment: [D]
     X:     0.0073      Y:     0.0000      Z:    -0.0114     Total:     0.0135

*** tstop() called on n070 at Thu Nov  4 14:21:23 2021
Module time:
	user time   =      16.51 seconds =       0.28 minutes
	system time =       0.30 seconds =       0.00 minutes
	total time  =         17 seconds =       0.28 minutes
Total time:
	user time   =      16.51 seconds =       0.28 minutes
	system time =       0.30 seconds =       0.00 minutes
	total time  =         17 seconds =       0.28 minutes
Grab this energy -291.238831457207
    Psi4 stopped on: Thursday, 04 November 2021 02:21PM
    Psi4 wall time for execution: 0:00:16.87

*** Psi4 exiting successfully. Buy a developer a beer!
