                               Psi4 1.4a2.dev629

  ==> Input File <==

--------------------------------------------------------------------------
import os
memory 14 GB

molecule {
 C   -0.0027943946    0.0043021479   -2.4525719705
 H    0.0028936176   -1.7793087008   -3.4321049328
 H    0.0028936176    1.7803649968   -3.4522642910
 X    1.0000000000    0.0000000000    0.0391615400
 C   -0.0089715448    0.0043835865    0.0391692215
 X    0.0000000000    1.0000000000    0.0391615400
 O    0.0059787042   -0.0097420305    2.2443385328
units bohr
}

basis {

assign 6-31g_2dfp_

[ 6-31g_2dfp_ ]
spherical

!----------------------------------------------------------------------
! Basis Set Exchange
! Version v0.8.13
! https://www.basissetexchange.org
!----------------------------------------------------------------------
!   Basis set: 6-31G(2df,p)
! Description: 6-31G(2df,p)
!        Role: orbital
!     Version: 0  (Data from the original Basis Set Exchange)
!----------------------------------------------------------------------

****
H     0
S    3   1.00
     18.7311370              0.03349460
      2.8253937              0.23472695
      0.6401217              0.81375733
S    1   1.00
      0.1612778              1.00000000
P    1   1.00
      1.5000000              1.0000000
P    1   1.00
      0.3750000              1.0000000
****
C     0
S    6   1.00
   3047.5249000              0.0018347
    457.3695100              0.0140373
    103.9486900              0.0688426
     29.2101550              0.2321844
      9.2866630              0.4679413
      3.1639270              0.3623120
SP   3   1.00
      7.8682724             -0.1193324              0.0689991
      1.8812885             -0.1608542              0.3164240
      0.5442493              1.1434564              0.7443083
SP   1   1.00
      0.1687144              1.0000000              1.0000000
D    1   1.00
      1.2520000              1.0000000
D    1   1.00
      0.3130000              1.0000000
F    1   1.00
      0.8000000              1.0000000
****
O     0
S    6   1.00
   5484.6717000              0.0018311
    825.2349500              0.0139501
    188.0469600              0.0684451
     52.9645000              0.2327143
     16.8975700              0.4701930
      5.7996353              0.3585209
SP   3   1.00
     15.5396160             -0.1107775              0.0708743
      3.5999336             -0.1480263              0.3397528
      1.0137618              1.1307670              0.7271586
SP   1   1.00
      0.2700058              1.0000000              1.0000000
D    1   1.00
      2.5840000              1.0000000
D    1   1.00
      0.6460000              1.0000000
F    1   1.00
      1.4000000              1.0000000
****
}

set {
opt_type min
reference rhf
freeze_core true
e_convergence 10
d_convergence 10
ensure_bt_convergence true
dft_spherical_points 590
dft_radial_points 99
}

e = energy('b3lyp')

print_out('Grab this energy {0}'.format(e))
--------------------------------------------------------------------------

    Molecular point group: c1

    Geometry (in Bohr), charge = 0, multiplicity = 1:

       Center              X                  Y                   Z               Mass
    ------------   -----------------  -----------------  -----------------  -----------------
         C           -0.001848682744     0.005504930393    -2.452546514681    12.000000000000
         H            0.003839329456    -1.778105918307    -3.432079476981     1.007825032230
         H            0.003839329456     1.781567779293    -3.452238835181     1.007825032230
         C           -0.008025832944     0.005586368993     0.039194677319    12.000000000000
         O            0.006924416056    -0.008539248007     2.244363988619    15.994914619570

  Charge       = 0
  Multiplicity = 1
  Basis Set: ANONYMOUSE6CA82F3
    Blend: 6-31G_2DFP_
  Basis Set: (ANONYMOUSE6CA82F3 AUX)
    Blend: DEF2-UNIVERSAL-JKFIT

    Orbital Energies [Eh]
    ---------------------

    Doubly Occupied:

       1A    -19.213701     2A    -10.305435     3A    -10.186964
       4A     -1.111757     5A     -0.772591     6A     -0.537661
       7A     -0.483740     8A     -0.483497     9A     -0.446466
      10A     -0.404383    11A     -0.240708

  @DF-RKS Final Energy:  -152.60942146966440

   => Energetics <=

    Nuclear Repulsion Energy =             58.3609188159098977
    One-Electron Energy =                -321.8624674958938385
    Two-Electron Energy =                 127.1726716427303217
    DFT Exchange-Correlation Energy =     -16.2805444324107746
    Empirical Dispersion Energy =           0.0000000000000000
    VV10 Nonlocal Energy =                  0.0000000000000000
    Total Energy =                       -152.6094214696643974

  Dipole Moment: [D]
     X:    -0.0036      Y:     0.0082      Z:    -1.4230     Total:     1.4231

*** Psi4 exiting successfully. Buy a developer a beer!
