                               Psi4 1.4a2.dev629

  ==> Input File <==

--------------------------------------------------------------------------
import os
memory 14 GB

molecule {
 C   -0.0000000000   -0.0007340135   -2.4562619902
 H    0.0000000000   -1.7837993259   -3.4411654926
 H    0.0000000000    1.7888716851   -3.4467722750
 X    1.0000000000    0.0000000000    0.0391615400
 C    0.0000000000   -0.0069913114    0.0407091888
 X    0.0000000000    1.0000000000    0.0391615400
 O   -0.0000000000    0.0026529657    2.2500571289
units bohr
}

basis {

assign 6-31g_2dfp_

[ 6-31g_2dfp_ ]
spherical

!----------------------------------------------------------------------
! Basis Set Exchange
! Version v0.8.13
! https://www.basissetexchange.org
!----------------------------------------------------------------------
!   Basis set: 6-31G(2df,p)
! Description: 6-31G(2df,p)
!        Role: orbital
!     Version: 0  (Data from the original Basis Set Exchange)
!----------------------------------------------------------------------

****
H     0
S    3   1.00
     18.7311370              0.03349460
      2.8253937              0.23472695
      0.6401217              0.81375733
S    1   1.00
      0.1612778              1.00000000
P    1   1.00
      1.5000000              1.0000000
P    1   1.00
      0.3750000              1.0000000
****
C     0
S    6   1.00
   3047.5249000              0.0018347
    457.3695100              0.0140373
    103.9486900              0.0688426
     29.2101550              0.2321844
      9.2866630              0.4679413
      3.1639270              0.3623120
SP   3   1.00
      7.8682724             -0.1193324              0.0689991
      1.8812885             -0.1608542              0.3164240
      0.5442493              1.1434564              0.7443083
SP   1   1.00
      0.1687144              1.0000000              1.0000000
D    1   1.00
      1.2520000              1.0000000
D    1   1.00
      0.3130000              1.0000000
F    1   1.00
      0.8000000              1.0000000
****
O     0
S    6   1.00
   5484.6717000              0.0018311
    825.2349500              0.0139501
    188.0469600              0.0684451
     52.9645000              0.2327143
     16.8975700              0.4701930
      5.7996353              0.3585209
SP   3   1.00
     15.5396160             -0.1107775              0.0708743
      3.5999336             -0.1480263              0.3397528
      1.0137618              1.1307670              0.7271586
SP   1   1.00
      0.2700058              1.0000000              1.0000000
D    1   1.00
      2.5840000              1.0000000
D    1   1.00
      0.6460000              1.0000000
F    1   1.00
      1.4000000              1.0000000
****
}

set {
opt_type min
reference rhf
freeze_core true
e_convergence 10
d_convergence 10
ensure_bt_convergence true
dft_spherical_points 590
dft_radial_points 99
}

e = energy('b3lyp')

print_out('Grab this energy {0}'.format(e))
--------------------------------------------------------------------------

    Molecular point group: cs

    Geometry (in Bohr), charge = 0, multiplicity = 1:

       Center              X                  Y                   Z               Mass
    ------------   -----------------  -----------------  -----------------  -----------------
         C           -0.000340903933     2.457714052245     0.000000000000    12.000000000000
         H            1.782724408467     3.442617554645     0.000000000000     1.007825032230
         H           -1.789946602533     3.448224337045     0.000000000000     1.007825032230
         C            0.005916393967    -0.039257126755     0.000000000000    12.000000000000
         O           -0.003727883133    -2.248605066855     0.000000000000    15.994914619570

  Charge       = 0
  Multiplicity = 1
  Basis Set: ANONYMOUS6710F653
    Blend: 6-31G_2DFP_
  Basis Set: (ANONYMOUS6710F653 AUX)
    Blend: DEF2-UNIVERSAL-JKFIT

    Orbital Energies [Eh]
    ---------------------

    Doubly Occupied:

       1Ap   -19.213900     2Ap   -10.306144     3Ap   -10.188109
       4Ap    -1.110593     5Ap    -0.771912     6Ap    -0.537442
       7Ap    -0.483132     8Ap    -0.482854     1App   -0.445703
       9Ap    -0.404113     2App   -0.240685

  @DF-RKS Final Energy:  -152.60931722001621

   => Energetics <=

    Nuclear Repulsion Energy =             58.2464941070322908
    One-Electron Energy =                -321.6411932899265480
    Two-Electron Energy =                 127.0613605783899231
    DFT Exchange-Correlation Energy =     -16.2759786155118498
    Empirical Dispersion Energy =           0.0000000000000000
    VV10 Nonlocal Energy =                  0.0000000000000000
    Total Energy =                       -152.6093172200162087

  Dipole Moment: [D]
     X:     0.0049      Y:     1.4297      Z:     0.0000     Total:     1.4297

*** Psi4 exiting successfully. Buy a developer a beer!
