                               Psi4 1.4a2.dev629

  ==> Input File <==

--------------------------------------------------------------------------
import os
memory 14 GB

molecule {
 C    0.0000000000    0.0044601665   -2.4492904691
 H   -0.0000000000   -1.7819781448   -3.4430527407
 H   -0.0000000000    1.7787626201   -3.4424533244
 X    1.0000000000    0.0000000000    0.0391615400
 C   -0.0000000000   -0.0016917703    0.0352092466
 X    0.0000000000    1.0000000000    0.0391615400
 O   -0.0000000000    0.0004471286    2.2461538476
units bohr
}

basis {

assign 6-31g_2dfp_

[ 6-31g_2dfp_ ]
spherical

!----------------------------------------------------------------------
! Basis Set Exchange
! Version v0.8.13
! https://www.basissetexchange.org
!----------------------------------------------------------------------
!   Basis set: 6-31G(2df,p)
! Description: 6-31G(2df,p)
!        Role: orbital
!     Version: 0  (Data from the original Basis Set Exchange)
!----------------------------------------------------------------------

****
H     0
S    3   1.00
     18.7311370              0.03349460
      2.8253937              0.23472695
      0.6401217              0.81375733
S    1   1.00
      0.1612778              1.00000000
P    1   1.00
      1.5000000              1.0000000
P    1   1.00
      0.3750000              1.0000000
****
C     0
S    6   1.00
   3047.5249000              0.0018347
    457.3695100              0.0140373
    103.9486900              0.0688426
     29.2101550              0.2321844
      9.2866630              0.4679413
      3.1639270              0.3623120
SP   3   1.00
      7.8682724             -0.1193324              0.0689991
      1.8812885             -0.1608542              0.3164240
      0.5442493              1.1434564              0.7443083
SP   1   1.00
      0.1687144              1.0000000              1.0000000
D    1   1.00
      1.2520000              1.0000000
D    1   1.00
      0.3130000              1.0000000
F    1   1.00
      0.8000000              1.0000000
****
O     0
S    6   1.00
   5484.6717000              0.0018311
    825.2349500              0.0139501
    188.0469600              0.0684451
     52.9645000              0.2327143
     16.8975700              0.4701930
      5.7996353              0.3585209
SP   3   1.00
     15.5396160             -0.1107775              0.0708743
      3.5999336             -0.1480263              0.3397528
      1.0137618              1.1307670              0.7271586
SP   1   1.00
      0.2700058              1.0000000              1.0000000
D    1   1.00
      2.5840000              1.0000000
D    1   1.00
      0.6460000              1.0000000
F    1   1.00
      1.4000000              1.0000000
****
}

set {
opt_type min
reference rhf
freeze_core true
e_convergence 10
d_convergence 10
ensure_bt_convergence true
dft_spherical_points 590
dft_radial_points 99
}

e = energy('b3lyp')

print_out('Grab this energy {0}'.format(e))
--------------------------------------------------------------------------

    Molecular point group: cs

    Geometry (in Bohr), charge = 0, multiplicity = 1:

       Center              X                  Y                   Z               Mass
    ------------   -----------------  -----------------  -----------------  -----------------
         C           -0.003576297117     2.449735094706     0.000000000000    12.000000000000
         H            1.782862014183     3.443497366306     0.000000000000     1.007825032230
         H           -1.777878750717     3.442897950006     0.000000000000     1.007825032230
         C            0.002575639683    -0.034764620994     0.000000000000    12.000000000000
         O            0.000436740783    -2.245709221994     0.000000000000    15.994914619570

  Charge       = 0
  Multiplicity = 1
  Basis Set: ANONYMOUSE7C220BC
    Blend: 6-31G_2DFP_
  Basis Set: (ANONYMOUSE7C220BC AUX)
    Blend: DEF2-UNIVERSAL-JKFIT

    Orbital Energies [Eh]
    ---------------------

    Doubly Occupied:

       1Ap   -19.213087     2Ap   -10.305207     3Ap   -10.187192
       4Ap    -1.109461     5Ap    -0.773842     6Ap    -0.537455
       7Ap    -0.483920     8Ap    -0.482990     1App   -0.445237
       9Ap    -0.403274     2App   -0.241481

  @DF-RKS Final Energy:  -152.60944415777305

   => Energetics <=

    Nuclear Repulsion Energy =             58.3447375573450842
    One-Electron Energy =                -321.8382402751706763
    Two-Electron Energy =                 127.1637666868544443
    DFT Exchange-Correlation Energy =     -16.2797081268018857
    Empirical Dispersion Energy =           0.0000000000000000
    VV10 Nonlocal Energy =                  0.0000000000000000
    Total Energy =                       -152.6094441577730549

  Dipole Moment: [D]
     X:     0.0031      Y:     1.4580      Z:     0.0000     Total:     1.4580

*** Psi4 exiting successfully. Buy a developer a beer!
