                               Psi4 1.4a2.dev629

  ==> Input File <==

--------------------------------------------------------------------------
import os
memory 14 GB

molecule {
 C   -0.0000000000   -0.0000000000    1.0209314900
 X    1.0000000000    0.0000000000    1.0209314900
 X    0.0000000000    1.0000000000    1.0209314900
 C   -0.0000000000    0.0000000000   -1.2685640022
 H   -0.0000000000    0.0000000000    3.0256408022
units bohr
0 2
}

basis {

assign 6-31g_2dfp_

[ 6-31g_2dfp_ ]

spherical

!----------------------------------------------------------------------
! Basis Set Exchange
! Version v0.8.13
! https://www.basissetexchange.org
!----------------------------------------------------------------------
!   Basis set: 6-31G(2df,p)
! Description: 6-31G(2df,p)
!        Role: orbital
!     Version: 0  (Data from the original Basis Set Exchange)
!----------------------------------------------------------------------

****
H     0
S    3   1.00
     18.7311370              0.03349460
      2.8253937              0.23472695
      0.6401217              0.81375733
S    1   1.00
      0.1612778              1.00000000
P    1   1.00
      1.5000000              1.0000000
P    1   1.00
      0.3750000              1.0000000
****
B     0
S    6   1.00
   2068.8823000              0.0018663
    310.6495700              0.0142515
     70.6830330              0.0695516
     19.8610800              0.2325729
      6.2993048              0.4670787
      2.1270270              0.3634314
SP   3   1.00
      4.7279710             -0.1303938              0.0745976
      1.1903377             -0.1307889              0.3078467
      0.3594117              1.1309444              0.7434568
SP   1   1.00
      0.1267512              1.0000000              1.0000000
D    1   1.00
      0.8020000              1.0000000
D    1   1.00
      0.2005000              1.0000000
F    1   1.00
      0.5000000              1.0000000
****
C     0
S    6   1.00
   3047.5249000              0.0018347
    457.3695100              0.0140373
    103.9486900              0.0688426
     29.2101550              0.2321844
      9.2866630              0.4679413
      3.1639270              0.3623120
SP   3   1.00
      7.8682724             -0.1193324              0.0689991
      1.8812885             -0.1608542              0.3164240
      0.5442493              1.1434564              0.7443083
SP   1   1.00
      0.1687144              1.0000000              1.0000000
D    1   1.00
      1.2520000              1.0000000
D    1   1.00
      0.3130000              1.0000000
F    1   1.00
      0.8000000              1.0000000
****
N     0
S    6   1.00
   4173.5110000              0.0018348
    627.4579000              0.0139950
    142.9021000              0.0685870
     40.2343300              0.2322410
     12.8202100              0.4690700
      4.3904370              0.3604550
SP   3   1.00
     11.6263580             -0.1149610              0.0675800
      2.7162800             -0.1691180              0.3239070
      0.7722180              1.1458520              0.7408950
SP   1   1.00
      0.2120313              1.0000000              1.0000000
D    1   1.00
      1.8260000              1.0000000
D    1   1.00
      0.4565000              1.0000000
F    1   1.00
      1.0000000              1.0000000
****
O     0
S    6   1.00
   5484.6717000              0.0018311
    825.2349500              0.0139501
    188.0469600              0.0684451
     52.9645000              0.2327143
     16.8975700              0.4701930
      5.7996353              0.3585209
SP   3   1.00
     15.5396160             -0.1107775              0.0708743
      3.5999336             -0.1480263              0.3397528
      1.0137618              1.1307670              0.7271586
SP   1   1.00
      0.2700058              1.0000000              1.0000000
D    1   1.00
      2.5840000              1.0000000
D    1   1.00
      0.6460000              1.0000000
F    1   1.00
      1.4000000              1.0000000
****
F     0
S    6   1.00
   7001.7130900              0.0018196169
   1051.3660900              0.0139160796
    239.2856900              0.0684053245
     67.3974453              0.233185760
     21.5199573              0.471267439
      7.40310130             0.356618546
SP   3   1.00
     20.8479528             -0.108506975            0.0716287243
      4.80830834            -0.146451658            0.3459121030
      1.34406986             1.128688580            0.7224699570
SP   1   1.00
      0.358151393            1.0000000              1.0000000
D    1   1.00
      3.5000000              1.0000000
D    1   1.00
      0.8750000              1.0000000
F    1   1.00
      1.8500000              1.0000000
****
Al     0
S    6   1.00
  13983.1000000              0.00194267
   2098.7500000              0.0148599
    477.7050000              0.0728494
    134.3600000              0.2468300
     42.8709000              0.4872580
     14.5189000              0.3234960
SP   6   1.00
    239.6680000             -0.00292619             0.00460285
     57.4419000             -0.0374080              0.0331990
     18.2859000             -0.1144870              0.1362820
      6.5991400              0.1156350              0.3304760
      2.4904900              0.6125950              0.4491460
      0.9445400              0.3937990              0.2657040
SP   3   1.00
      1.2779000             -0.2276060             -0.0175130
      0.3975900              0.00144583             0.2445330
      0.1600950              1.0927900              0.8049340
SP   1   1.00
      0.0556577              1.0000000              1.0000000
D    1   1.00
      0.6500000              1.0000000
D    1   1.00
      0.1625000              1.0000000
F    1   1.00
      0.2500000              1.0000000
****
Si     0
S    6   1.00
  16115.9000000              0.00195948
   2425.5800000              0.01492880
    553.8670000              0.07284780
    156.3400000              0.24613000
     50.0683000              0.48591400
     17.0178000              0.32500200
SP   6   1.00
    292.7180000             -0.00278094             0.00443826
     69.8731000             -0.03571460             0.03266790
     22.3363000             -0.11498500             0.13472100
      8.1503900              0.09356340             0.32867800
      3.1345800              0.60301700             0.44964000
      1.2254300              0.41895900             0.26137200
SP   3   1.00
      1.7273800             -0.24463000            -0.01779510
      0.5729220              0.00431572             0.25353900
      0.2221920              1.09818000             0.80066900
SP   1   1.00
      0.0778369              1.00000000             1.00000000
D    1   1.00
      0.9000000              1.0000000
D    1   1.00
      0.2250000              1.0000000
F    1   1.00
      0.3200000              1.0000000
****
P     0
S    6   1.00
  19413.3000000              0.0018516
   2909.4200000              0.0142062
    661.3640000              0.0699995
    185.7590000              0.2400790
     59.1943000              0.4847620
     20.0310000              0.3352000
SP   6   1.00
    339.4780000             -0.00278217             0.00456462
     81.0101000             -0.0360499              0.03369360
     25.8780000             -0.1166310              0.13975500
      9.4522100              0.0968328              0.33936200
      3.6656600              0.6144180              0.45092100
      1.4674600              0.4037980              0.23858600
SP   3   1.00
      2.1562300             -0.2529230             -0.01776530
      0.7489970              0.0328517              0.27405800
      0.2831450              1.0812500              0.78542100
SP   1   1.00
      0.0998317              1.0000000              1.00000000
D    1   1.00
      1.1000000              1.0000000
D    1   1.00
      0.2750000              1.0000000
F    1   1.00
      0.4500000              1.0000000
****
S     0
S    6   1.00
  21917.1000000              0.0018690
   3301.4900000              0.0142300
    754.1460000              0.0696960
    212.7110000              0.2384870
     67.9896000              0.4833070
     23.0515000              0.3380740
SP   6   1.00
    423.7350000             -0.0023767              0.0040610
    100.7100000             -0.0316930              0.0306810
     32.1599000             -0.1133170              0.1304520
     11.8079000              0.0560900              0.3272050
      4.6311000              0.5922550              0.4528510
      1.8702500              0.4550060              0.2560420
SP   3   1.00
      2.6158400             -0.2503740             -0.0145110
      0.9221670              0.0669570              0.3102630
      0.3412870              1.0545100              0.7544830
SP   1   1.00
      0.1171670              1.0000000              1.0000000
D    1   1.00
      1.3000000              1.0000000
D    1   1.00
      0.3250000              1.0000000
F    1   1.00
      0.5500000              1.0000000
****
Cl     0
S    6   1.00
  25180.1000000              0.0018330
   3780.3500000              0.0140340
    860.4740000              0.0690970
    242.1450000              0.2374520
     77.3349000              0.4830340
     26.2470000              0.3398560
SP   6   1.00
    491.7650000             -0.0022974              0.0039894
    116.9840000             -0.0307140              0.0303180
     37.4153000             -0.1125280              0.1298800
     13.7834000              0.0450160              0.3279510
      5.4521500              0.5893530              0.4535270
      2.2258800              0.4652060              0.2521540
SP   3   1.00
      3.1864900             -0.2518300             -0.0142990
      1.1442700              0.0615890              0.3235720
      0.4203770              1.0601800              0.7435070
SP   1   1.00
      0.1426570              1.0000000              1.0000000
D    1   1.00
      1.5000000              1.0000000
D    1   1.00
      0.3750000              1.0000000
F    1   1.00
      0.7000000              1.0000000
****
}

set {
reference uhf
freeze_core true
e_convergence 10
d_convergence 10
dft_spherical_points 1202
dft_radial_points 99
}

e = energy('b3lyp')

print_out('Grab this energy {0}'.format(e))
--------------------------------------------------------------------------

    Molecular point group: c2v

    Geometry (in Bohr), charge = 0, multiplicity = 2:

       Center              X                  Y                   Z               Mass
    ------------   -----------------  -----------------  -----------------  -----------------
         C            0.000000000000     0.000000000000     1.017823407130    12.000000000000
         C            0.000000000000     0.000000000000    -1.271672085070    12.000000000000
         H            0.000000000000     0.000000000000     3.022532719330     1.007825032230

  Charge       = 0
  Multiplicity = 2
  Basis Set: ANONYMOUS82956119
    Blend: 6-31G_2DFP_
  Basis Set: (ANONYMOUS82956119 AUX)
    Blend: DEF2-UNIVERSAL-JKFIT

    Orbital Energies [Eh]
    ---------------------

    Alpha Occupied:

       1A1   -10.245357     2A1   -10.203683     3A1    -0.764173
       4A1    -0.551350     5A1    -0.394810     1B2    -0.304468
       1B1    -0.304468

    Alpha Virtual:

       2B2     0.030579     2B1     0.030579     6A1     0.113980
       7A1     0.316365     8A1     0.386383     3B1     0.472623
       3B2     0.472623     9A1     0.532029     4B2     0.556058
       4B1     0.556058    10A1     0.584997     1A2     0.584997
       5B1     0.695647     5B2     0.695647    11A1     0.706137
      12A1     0.880253     2A2     0.880253    13A1     0.945498
       6B1     1.057575     6B2     1.057575    14A1     1.132786
       7B2     1.410209     7B1     1.410209    15A1     1.605841
      16A1     1.617161     3A2     2.578023    17A1     2.578023
       8B2     2.653268     8B1     2.653268    18A1     2.667106
       9B2     2.798915     9B1     2.798915    10B1     2.905355
      10B2     2.905355    19A1     2.965790    11B2     3.053754
      11B1     3.053754     4A2     3.233114    20A1     3.233114
       5A2     3.294206    21A1     3.294206    12B2     3.407805
      12B1     3.407805    22A1     3.575692     6A2     3.732839
      23A1     3.732839    24A1     3.922469    13B2     4.283615
      13B1     4.283615    25A1     4.536486    14B2     4.601269
      14B1     4.601269    26A1     5.315844

    Beta Occupied:

       1A1   -10.224567     2A1   -10.203525     3A1    -0.744513
       4A1    -0.540608     1B2    -0.290919     1B1    -0.290919

    Beta Virtual:

       5A1    -0.183727     2B2     0.053639     2B1     0.053639
       6A1     0.115739     7A1     0.345483     8A1     0.395899
       3B1     0.480318     3B2     0.480318     4B2     0.569134
       4B1     0.569134     9A1     0.588769     1A2     0.588769
      10A1     0.593056     5B1     0.701617     5B2     0.701617
      11A1     0.712977    12A1     0.890100     2A2     0.890100
      13A1     0.962120     6B1     1.082759     6B2     1.082759
      14A1     1.155541     7B2     1.424305     7B1     1.424305
      15A1     1.618401    16A1     1.672536    17A1     2.591920
       3A2     2.591920     8B2     2.661356     8B1     2.661356
      18A1     2.693788     9B2     2.821783     9B1     2.821783
      10B1     2.939423    10B2     2.939423    19A1     3.001929
      11B2     3.063791    11B1     3.063791     4A2     3.258443
      20A1     3.258443     5A2     3.313071    21A1     3.313071
      12B2     3.466085    12B1     3.466085    22A1     3.597854
      23A1     3.750124     6A2     3.750124    24A1     4.009565
      13B2     4.296591    13B1     4.296591    25A1     4.563439
      14B2     4.623373    14B1     4.623373    26A1     5.333783

    Final Occupation by Irrep:
             A1    A2    B1    B2
    DOCC [     4,    0,    1,    1 ]
    SOCC [     1,    0,    0,    0 ]

  @DF-UKS Final Energy:   -76.60841135565903

   => Energetics <=

    Nuclear Repulsion Energy =             20.1141726951959257
    One-Electron Energy =                -141.9185358987737686
    Two-Electron Energy =                  54.1691556009918003
    DFT Exchange-Correlation Energy =      -8.9732037530729816
    Empirical Dispersion Energy =           0.0000000000000000
    VV10 Nonlocal Energy =                  0.0000000000000000
    Total Energy =                        -76.6084113556590296

  UHF NO Occupations:
  HONO-2 :    1 B1 1.9939635
  HONO-1 :    1 B2 1.9939635
  HONO-0 :    5 A1 1.0000000
  LUNO+0 :    2 B2 0.0060365
  LUNO+1 :    2 B1 0.0060365
  LUNO+2 :    6 A1 0.0001823
  LUNO+3 :    7 A1 0.0001047

Computation Completed

Properties will be evaluated at   0.000000,   0.000000,   0.000000 [a0]

Properties computed using the SCF density matrix

  Nuclear Dipole Moment: [e a0]
     X:     0.0000      Y:     0.0000      Z:     1.4994

  Electronic Dipole Moment: [e a0]
     X:     0.0000      Y:     0.0000      Z:    -1.1985

  Dipole Moment: [e a0]
     X:     0.0000      Y:     0.0000      Z:     0.3009     Total:     0.3009

  Dipole Moment: [D]
     X:     0.0000      Y:     0.0000      Z:     0.7649     Total:     0.7649

*** tstop() called on n089 at Thu Nov  4 14:08:45 2021
Module time:
	user time   =      13.22 seconds =       0.22 minutes
	system time =       0.21 seconds =       0.00 minutes
	total time  =         13 seconds =       0.22 minutes
Total time:
	user time   =      13.22 seconds =       0.22 minutes
	system time =       0.21 seconds =       0.00 minutes
	total time  =         13 seconds =       0.22 minutes
Grab this energy -76.60841135565903
    Psi4 stopped on: Thursday, 04 November 2021 02:08PM
    Psi4 wall time for execution: 0:00:13.47

*** Psi4 exiting successfully. Buy a developer a beer!
