                               Psi4 1.4a2.dev629

  ==> Input File <==

--------------------------------------------------------------------------
import os
memory 14 GB

molecule {
 C   -0.2585411641    0.8052585564   -0.0010371469
 O   -2.1912361741   -0.3329483759   -0.0040727159
 C    2.4093224020   -0.2484418887    0.0007988227
 H    2.3829240273   -2.3086277028    0.0033243751
 H    3.3843591663    0.4716320833   -1.6634537518
 H    3.3978097248    0.4674929754    1.6644404168
units bohr
0 2
}

basis {

assign 6-31g_2dfp_

[ 6-31g_2dfp_ ]

spherical

!----------------------------------------------------------------------
! Basis Set Exchange
! Version v0.8.13
! https://www.basissetexchange.org
!----------------------------------------------------------------------
!   Basis set: 6-31G(2df,p)
! Description: 6-31G(2df,p)
!        Role: orbital
!     Version: 0  (Data from the original Basis Set Exchange)
!----------------------------------------------------------------------

****
H     0
S    3   1.00
     18.7311370              0.03349460
      2.8253937              0.23472695
      0.6401217              0.81375733
S    1   1.00
      0.1612778              1.00000000
P    1   1.00
      1.5000000              1.0000000
P    1   1.00
      0.3750000              1.0000000
****
B     0
S    6   1.00
   2068.8823000              0.0018663
    310.6495700              0.0142515
     70.6830330              0.0695516
     19.8610800              0.2325729
      6.2993048              0.4670787
      2.1270270              0.3634314
SP   3   1.00
      4.7279710             -0.1303938              0.0745976
      1.1903377             -0.1307889              0.3078467
      0.3594117              1.1309444              0.7434568
SP   1   1.00
      0.1267512              1.0000000              1.0000000
D    1   1.00
      0.8020000              1.0000000
D    1   1.00
      0.2005000              1.0000000
F    1   1.00
      0.5000000              1.0000000
****
C     0
S    6   1.00
   3047.5249000              0.0018347
    457.3695100              0.0140373
    103.9486900              0.0688426
     29.2101550              0.2321844
      9.2866630              0.4679413
      3.1639270              0.3623120
SP   3   1.00
      7.8682724             -0.1193324              0.0689991
      1.8812885             -0.1608542              0.3164240
      0.5442493              1.1434564              0.7443083
SP   1   1.00
      0.1687144              1.0000000              1.0000000
D    1   1.00
      1.2520000              1.0000000
D    1   1.00
      0.3130000              1.0000000
F    1   1.00
      0.8000000              1.0000000
****
N     0
S    6   1.00
   4173.5110000              0.0018348
    627.4579000              0.0139950
    142.9021000              0.0685870
     40.2343300              0.2322410
     12.8202100              0.4690700
      4.3904370              0.3604550
SP   3   1.00
     11.6263580             -0.1149610              0.0675800
      2.7162800             -0.1691180              0.3239070
      0.7722180              1.1458520              0.7408950
SP   1   1.00
      0.2120313              1.0000000              1.0000000
D    1   1.00
      1.8260000              1.0000000
D    1   1.00
      0.4565000              1.0000000
F    1   1.00
      1.0000000              1.0000000
****
O     0
S    6   1.00
   5484.6717000              0.0018311
    825.2349500              0.0139501
    188.0469600              0.0684451
     52.9645000              0.2327143
     16.8975700              0.4701930
      5.7996353              0.3585209
SP   3   1.00
     15.5396160             -0.1107775              0.0708743
      3.5999336             -0.1480263              0.3397528
      1.0137618              1.1307670              0.7271586
SP   1   1.00
      0.2700058              1.0000000              1.0000000
D    1   1.00
      2.5840000              1.0000000
D    1   1.00
      0.6460000              1.0000000
F    1   1.00
      1.4000000              1.0000000
****
F     0
S    6   1.00
   7001.7130900              0.0018196169
   1051.3660900              0.0139160796
    239.2856900              0.0684053245
     67.3974453              0.233185760
     21.5199573              0.471267439
      7.40310130             0.356618546
SP   3   1.00
     20.8479528             -0.108506975            0.0716287243
      4.80830834            -0.146451658            0.3459121030
      1.34406986             1.128688580            0.7224699570
SP   1   1.00
      0.358151393            1.0000000              1.0000000
D    1   1.00
      3.5000000              1.0000000
D    1   1.00
      0.8750000              1.0000000
F    1   1.00
      1.8500000              1.0000000
****
Al     0
S    6   1.00
  13983.1000000              0.00194267
   2098.7500000              0.0148599
    477.7050000              0.0728494
    134.3600000              0.2468300
     42.8709000              0.4872580
     14.5189000              0.3234960
SP   6   1.00
    239.6680000             -0.00292619             0.00460285
     57.4419000             -0.0374080              0.0331990
     18.2859000             -0.1144870              0.1362820
      6.5991400              0.1156350              0.3304760
      2.4904900              0.6125950              0.4491460
      0.9445400              0.3937990              0.2657040
SP   3   1.00
      1.2779000             -0.2276060             -0.0175130
      0.3975900              0.00144583             0.2445330
      0.1600950              1.0927900              0.8049340
SP   1   1.00
      0.0556577              1.0000000              1.0000000
D    1   1.00
      0.6500000              1.0000000
D    1   1.00
      0.1625000              1.0000000
F    1   1.00
      0.2500000              1.0000000
****
Si     0
S    6   1.00
  16115.9000000              0.00195948
   2425.5800000              0.01492880
    553.8670000              0.07284780
    156.3400000              0.24613000
     50.0683000              0.48591400
     17.0178000              0.32500200
SP   6   1.00
    292.7180000             -0.00278094             0.00443826
     69.8731000             -0.03571460             0.03266790
     22.3363000             -0.11498500             0.13472100
      8.1503900              0.09356340             0.32867800
      3.1345800              0.60301700             0.44964000
      1.2254300              0.41895900             0.26137200
SP   3   1.00
      1.7273800             -0.24463000            -0.01779510
      0.5729220              0.00431572             0.25353900
      0.2221920              1.09818000             0.80066900
SP   1   1.00
      0.0778369              1.00000000             1.00000000
D    1   1.00
      0.9000000              1.0000000
D    1   1.00
      0.2250000              1.0000000
F    1   1.00
      0.3200000              1.0000000
****
P     0
S    6   1.00
  19413.3000000              0.0018516
   2909.4200000              0.0142062
    661.3640000              0.0699995
    185.7590000              0.2400790
     59.1943000              0.4847620
     20.0310000              0.3352000
SP   6   1.00
    339.4780000             -0.00278217             0.00456462
     81.0101000             -0.0360499              0.03369360
     25.8780000             -0.1166310              0.13975500
      9.4522100              0.0968328              0.33936200
      3.6656600              0.6144180              0.45092100
      1.4674600              0.4037980              0.23858600
SP   3   1.00
      2.1562300             -0.2529230             -0.01776530
      0.7489970              0.0328517              0.27405800
      0.2831450              1.0812500              0.78542100
SP   1   1.00
      0.0998317              1.0000000              1.00000000
D    1   1.00
      1.1000000              1.0000000
D    1   1.00
      0.2750000              1.0000000
F    1   1.00
      0.4500000              1.0000000
****
S     0
S    6   1.00
  21917.1000000              0.0018690
   3301.4900000              0.0142300
    754.1460000              0.0696960
    212.7110000              0.2384870
     67.9896000              0.4833070
     23.0515000              0.3380740
SP   6   1.00
    423.7350000             -0.0023767              0.0040610
    100.7100000             -0.0316930              0.0306810
     32.1599000             -0.1133170              0.1304520
     11.8079000              0.0560900              0.3272050
      4.6311000              0.5922550              0.4528510
      1.8702500              0.4550060              0.2560420
SP   3   1.00
      2.6158400             -0.2503740             -0.0145110
      0.9221670              0.0669570              0.3102630
      0.3412870              1.0545100              0.7544830
SP   1   1.00
      0.1171670              1.0000000              1.0000000
D    1   1.00
      1.3000000              1.0000000
D    1   1.00
      0.3250000              1.0000000
F    1   1.00
      0.5500000              1.0000000
****
Cl     0
S    6   1.00
  25180.1000000              0.0018330
   3780.3500000              0.0140340
    860.4740000              0.0690970
    242.1450000              0.2374520
     77.3349000              0.4830340
     26.2470000              0.3398560
SP   6   1.00
    491.7650000             -0.0022974              0.0039894
    116.9840000             -0.0307140              0.0303180
     37.4153000             -0.1125280              0.1298800
     13.7834000              0.0450160              0.3279510
      5.4521500              0.5893530              0.4535270
      2.2258800              0.4652060              0.2521540
SP   3   1.00
      3.1864900             -0.2518300             -0.0142990
      1.1442700              0.0615890              0.3235720
      0.4203770              1.0601800              0.7435070
SP   1   1.00
      0.1426570              1.0000000              1.0000000
D    1   1.00
      1.5000000              1.0000000
D    1   1.00
      0.3750000              1.0000000
F    1   1.00
      0.7000000              1.0000000
****
}

set {
reference uhf
freeze_core true
e_convergence 10
d_convergence 10
dft_spherical_points 1202
dft_radial_points 99
}

e = energy('b3lyp')

print_out('Grab this energy {0}'.format(e))
--------------------------------------------------------------------------

    Molecular point group: c1

    Geometry (in Bohr), charge = 0, multiplicity = 2:

       Center              X                  Y                   Z               Mass
    ------------   -----------------  -----------------  -----------------  -----------------
         C           -0.258484197873     0.805814129945     0.000442635579    12.000000000000
         O           -2.191179207873    -0.332392802355    -0.002592933421    15.994914619570
         C            2.409379368227    -0.247886315155     0.002278605179    12.000000000000
         H            2.382980993527    -2.308072129255     0.004804157579     1.007825032230
         H            3.384416132527     0.472187656845    -1.661973969321     1.007825032230
         H            3.397866691027     0.468048548945     1.665920199279     1.007825032230

  Charge       = 0
  Multiplicity = 2
  Basis Set: ANONYMOUS5F346774
    Blend: 6-31G_2DFP_
  Basis Set: (ANONYMOUS5F346774 AUX)
    Blend: DEF2-UNIVERSAL-JKFIT

    Orbital Energies [Eh]
    ---------------------

    Alpha Occupied:

       1A    -19.186893     2A    -10.271623     3A    -10.210390
       4A     -1.081152     5A     -0.761940     6A     -0.543926
       7A     -0.466614     8A     -0.457582     9A     -0.455958
      10A     -0.387330    11A     -0.386131    12A     -0.192304

    Alpha Virtual:

      13A     -0.018894    14A      0.091696    15A      0.137287
      16A      0.140969    17A      0.217684    18A      0.268149
      19A      0.427893    20A      0.431966    21A      0.443564
      22A      0.493653    23A      0.506287    24A      0.530510
      25A      0.562842    26A      0.577596    27A      0.608326
      28A      0.615597    29A      0.644200    30A      0.717615
      31A      0.766195    32A      0.785317    33A      0.832256
      34A      0.917355    35A      0.926937    36A      0.935783
      37A      1.023266    38A      1.085662    39A      1.107889
      40A      1.152839    41A      1.220476    42A      1.306465
      43A      1.315958    44A      1.327836    45A      1.404313
      46A      1.407765    47A      1.467987    48A      1.560496
      49A      1.630330    50A      1.653759    51A      1.720505
      52A      1.812657    53A      1.834485    54A      1.902002
      55A      2.065086    56A      2.165791    57A      2.495227
      58A      2.679755    59A      2.743836    60A      2.784056
      61A      2.842391    62A      2.894110    63A      2.973114
      64A      3.032249    65A      3.058819    66A      3.105375
      67A      3.114277    68A      3.182678    69A      3.314192
      70A      3.369493    71A      3.393289    72A      3.440466
      73A      3.465180    74A      3.485658    75A      3.570862
      76A      3.739027    77A      3.762073    78A      3.941886
      79A      3.983121    80A      4.055123    81A      4.110710
      82A      4.119375    83A      4.188622    84A      4.386149
      85A      4.434478    86A      4.450684    87A      4.533111
      88A      4.919392    89A      5.037000    90A      5.042182
      91A      5.197697    92A      5.208048    93A      5.473305
      94A      5.481900    95A      5.826624    96A      5.930006
      97A      6.103698    98A      6.770618    99A      6.772734
     100A      7.070897   101A      7.135174   102A      7.529680

    Beta Occupied:

       1A    -19.178817     2A    -10.261566     3A    -10.207008
       4A     -1.065209     5A     -0.750142     6A     -0.524187
       7A     -0.451513     8A     -0.447239     9A     -0.438743
      10A     -0.382158    11A     -0.347826

    Beta Virtual:

      12A     -0.052829    13A     -0.002616    14A      0.094384
      15A      0.142951    16A      0.144113    17A      0.228123
      18A      0.273846    19A      0.433824    20A      0.435203
      21A      0.465597    22A      0.500337    23A      0.527677
      24A      0.539416    25A      0.569186    26A      0.581791
      27A      0.622821    28A      0.626945    29A      0.649871
      30A      0.739530    31A      0.777332    32A      0.795310
      33A      0.833022    34A      0.922203    35A      0.943414
      36A      0.951008    37A      1.027463    38A      1.091792
      39A      1.109940    40A      1.159052    41A      1.229735
      42A      1.312068    43A      1.318791    44A      1.334611
      45A      1.413271    46A      1.414763    47A      1.480352
      48A      1.571535    49A      1.643641    50A      1.668162
      51A      1.726767    52A      1.815786    53A      1.848594
      54A      1.908674    55A      2.071816    56A      2.187205
      57A      2.507902    58A      2.694045    59A      2.758274
      60A      2.805193    61A      2.857727    62A      2.895733
      63A      2.982631    64A      3.048927    65A      3.067426
      66A      3.122184    67A      3.124476    68A      3.217372
      69A      3.357821    70A      3.381015    71A      3.399624
      72A      3.448502    73A      3.481104    74A      3.508563
      75A      3.584247    76A      3.764736    77A      3.771524
      78A      3.950558    79A      3.992414    80A      4.071543
      81A      4.122169    82A      4.125277    83A      4.200395
      84A      4.388441    85A      4.440626    86A      4.454852
      87A      4.544005    88A      4.923242    89A      5.054537
      90A      5.060216    91A      5.199860    92A      5.213784
      93A      5.485957    94A      5.495803    95A      5.839876
      96A      5.935597    97A      6.126912    98A      6.799942
      99A      6.802400   100A      7.075202   101A      7.164582
     102A      7.541356

    Final Occupation by Irrep:
              A
    DOCC [    11 ]
    SOCC [     1 ]

  @DF-UKS Final Energy:  -153.18842749667866

   => Energetics <=

    Nuclear Repulsion Energy =             62.7843939501559447
    One-Electron Energy =                -331.5693623308538918
    Two-Electron Energy =                 132.1768511833662387
    DFT Exchange-Correlation Energy =     -16.5803102993469516
    Empirical Dispersion Energy =           0.0000000000000000
    VV10 Nonlocal Energy =                  0.0000000000000000
    Total Energy =                       -153.1884274966786563

  UHF NO Occupations:
  HONO-2 :   10  A 1.9997842
  HONO-1 :   11  A 1.9992008
  HONO-0 :   12  A 1.0000000
  LUNO+0 :   13  A 0.0007992
  LUNO+1 :   14  A 0.0002158
  LUNO+2 :   15  A 0.0001795
  LUNO+3 :   16  A 0.0000617

Computation Completed

Properties will be evaluated at   0.000000,   0.000000,   0.000000 [a0]

Properties computed using the SCF density matrix

  Nuclear Dipole Moment: [e a0]
     X:     4.5412      Y:    -0.6794      Z:     0.0043

  Electronic Dipole Moment: [e a0]
     X:    -3.6097      Y:     0.6286      Z:    -0.0034

  Dipole Moment: [e a0]
     X:     0.9315      Y:    -0.0508      Z:     0.0010     Total:     0.9329

  Dipole Moment: [D]
     X:     2.3676      Y:    -0.1292      Z:     0.0024     Total:     2.3711

*** tstop() called on n082 at Tue Mar 15 10:30:02 2022
Module time:
	user time   =      44.24 seconds =       0.74 minutes
	system time =       0.52 seconds =       0.01 minutes
	total time  =         45 seconds =       0.75 minutes
Total time:
	user time   =      44.24 seconds =       0.74 minutes
	system time =       0.52 seconds =       0.01 minutes
	total time  =         45 seconds =       0.75 minutes
Grab this energy -153.18842749667866
    Psi4 stopped on: Tuesday, 15 March 2022 10:30AM
    Psi4 wall time for execution: 0:00:44.80

*** Psi4 exiting successfully. Buy a developer a beer!
