                               Psi4 1.4a2.dev629

  ==> Input File <==

--------------------------------------------------------------------------
import os
memory 14 GB

molecule {
 C   -0.2601212501    0.8042613459    0.0000000004
 O   -2.1916488541   -0.3369259190    0.0000000099
 C    2.4117745504   -0.2404690907    0.0000000113
 H    2.3871876879   -2.3036461157    0.0000000343
 H    3.3897027359    0.4734571191   -1.6551573455
 H    3.3897030801    0.4734572804    1.6551571097
units bohr
0 2
}

basis {

assign 6-31g_2dfp_

[ 6-31g_2dfp_ ]

spherical

!----------------------------------------------------------------------
! Basis Set Exchange
! Version v0.8.13
! https://www.basissetexchange.org
!----------------------------------------------------------------------
!   Basis set: 6-31G(2df,p)
! Description: 6-31G(2df,p)
!        Role: orbital
!     Version: 0  (Data from the original Basis Set Exchange)
!----------------------------------------------------------------------

****
H     0
S    3   1.00
     18.7311370              0.03349460
      2.8253937              0.23472695
      0.6401217              0.81375733
S    1   1.00
      0.1612778              1.00000000
P    1   1.00
      1.5000000              1.0000000
P    1   1.00
      0.3750000              1.0000000
****
B     0
S    6   1.00
   2068.8823000              0.0018663
    310.6495700              0.0142515
     70.6830330              0.0695516
     19.8610800              0.2325729
      6.2993048              0.4670787
      2.1270270              0.3634314
SP   3   1.00
      4.7279710             -0.1303938              0.0745976
      1.1903377             -0.1307889              0.3078467
      0.3594117              1.1309444              0.7434568
SP   1   1.00
      0.1267512              1.0000000              1.0000000
D    1   1.00
      0.8020000              1.0000000
D    1   1.00
      0.2005000              1.0000000
F    1   1.00
      0.5000000              1.0000000
****
C     0
S    6   1.00
   3047.5249000              0.0018347
    457.3695100              0.0140373
    103.9486900              0.0688426
     29.2101550              0.2321844
      9.2866630              0.4679413
      3.1639270              0.3623120
SP   3   1.00
      7.8682724             -0.1193324              0.0689991
      1.8812885             -0.1608542              0.3164240
      0.5442493              1.1434564              0.7443083
SP   1   1.00
      0.1687144              1.0000000              1.0000000
D    1   1.00
      1.2520000              1.0000000
D    1   1.00
      0.3130000              1.0000000
F    1   1.00
      0.8000000              1.0000000
****
N     0
S    6   1.00
   4173.5110000              0.0018348
    627.4579000              0.0139950
    142.9021000              0.0685870
     40.2343300              0.2322410
     12.8202100              0.4690700
      4.3904370              0.3604550
SP   3   1.00
     11.6263580             -0.1149610              0.0675800
      2.7162800             -0.1691180              0.3239070
      0.7722180              1.1458520              0.7408950
SP   1   1.00
      0.2120313              1.0000000              1.0000000
D    1   1.00
      1.8260000              1.0000000
D    1   1.00
      0.4565000              1.0000000
F    1   1.00
      1.0000000              1.0000000
****
O     0
S    6   1.00
   5484.6717000              0.0018311
    825.2349500              0.0139501
    188.0469600              0.0684451
     52.9645000              0.2327143
     16.8975700              0.4701930
      5.7996353              0.3585209
SP   3   1.00
     15.5396160             -0.1107775              0.0708743
      3.5999336             -0.1480263              0.3397528
      1.0137618              1.1307670              0.7271586
SP   1   1.00
      0.2700058              1.0000000              1.0000000
D    1   1.00
      2.5840000              1.0000000
D    1   1.00
      0.6460000              1.0000000
F    1   1.00
      1.4000000              1.0000000
****
F     0
S    6   1.00
   7001.7130900              0.0018196169
   1051.3660900              0.0139160796
    239.2856900              0.0684053245
     67.3974453              0.233185760
     21.5199573              0.471267439
      7.40310130             0.356618546
SP   3   1.00
     20.8479528             -0.108506975            0.0716287243
      4.80830834            -0.146451658            0.3459121030
      1.34406986             1.128688580            0.7224699570
SP   1   1.00
      0.358151393            1.0000000              1.0000000
D    1   1.00
      3.5000000              1.0000000
D    1   1.00
      0.8750000              1.0000000
F    1   1.00
      1.8500000              1.0000000
****
Al     0
S    6   1.00
  13983.1000000              0.00194267
   2098.7500000              0.0148599
    477.7050000              0.0728494
    134.3600000              0.2468300
     42.8709000              0.4872580
     14.5189000              0.3234960
SP   6   1.00
    239.6680000             -0.00292619             0.00460285
     57.4419000             -0.0374080              0.0331990
     18.2859000             -0.1144870              0.1362820
      6.5991400              0.1156350              0.3304760
      2.4904900              0.6125950              0.4491460
      0.9445400              0.3937990              0.2657040
SP   3   1.00
      1.2779000             -0.2276060             -0.0175130
      0.3975900              0.00144583             0.2445330
      0.1600950              1.0927900              0.8049340
SP   1   1.00
      0.0556577              1.0000000              1.0000000
D    1   1.00
      0.6500000              1.0000000
D    1   1.00
      0.1625000              1.0000000
F    1   1.00
      0.2500000              1.0000000
****
Si     0
S    6   1.00
  16115.9000000              0.00195948
   2425.5800000              0.01492880
    553.8670000              0.07284780
    156.3400000              0.24613000
     50.0683000              0.48591400
     17.0178000              0.32500200
SP   6   1.00
    292.7180000             -0.00278094             0.00443826
     69.8731000             -0.03571460             0.03266790
     22.3363000             -0.11498500             0.13472100
      8.1503900              0.09356340             0.32867800
      3.1345800              0.60301700             0.44964000
      1.2254300              0.41895900             0.26137200
SP   3   1.00
      1.7273800             -0.24463000            -0.01779510
      0.5729220              0.00431572             0.25353900
      0.2221920              1.09818000             0.80066900
SP   1   1.00
      0.0778369              1.00000000             1.00000000
D    1   1.00
      0.9000000              1.0000000
D    1   1.00
      0.2250000              1.0000000
F    1   1.00
      0.3200000              1.0000000
****
P     0
S    6   1.00
  19413.3000000              0.0018516
   2909.4200000              0.0142062
    661.3640000              0.0699995
    185.7590000              0.2400790
     59.1943000              0.4847620
     20.0310000              0.3352000
SP   6   1.00
    339.4780000             -0.00278217             0.00456462
     81.0101000             -0.0360499              0.03369360
     25.8780000             -0.1166310              0.13975500
      9.4522100              0.0968328              0.33936200
      3.6656600              0.6144180              0.45092100
      1.4674600              0.4037980              0.23858600
SP   3   1.00
      2.1562300             -0.2529230             -0.01776530
      0.7489970              0.0328517              0.27405800
      0.2831450              1.0812500              0.78542100
SP   1   1.00
      0.0998317              1.0000000              1.00000000
D    1   1.00
      1.1000000              1.0000000
D    1   1.00
      0.2750000              1.0000000
F    1   1.00
      0.4500000              1.0000000
****
S     0
S    6   1.00
  21917.1000000              0.0018690
   3301.4900000              0.0142300
    754.1460000              0.0696960
    212.7110000              0.2384870
     67.9896000              0.4833070
     23.0515000              0.3380740
SP   6   1.00
    423.7350000             -0.0023767              0.0040610
    100.7100000             -0.0316930              0.0306810
     32.1599000             -0.1133170              0.1304520
     11.8079000              0.0560900              0.3272050
      4.6311000              0.5922550              0.4528510
      1.8702500              0.4550060              0.2560420
SP   3   1.00
      2.6158400             -0.2503740             -0.0145110
      0.9221670              0.0669570              0.3102630
      0.3412870              1.0545100              0.7544830
SP   1   1.00
      0.1171670              1.0000000              1.0000000
D    1   1.00
      1.3000000              1.0000000
D    1   1.00
      0.3250000              1.0000000
F    1   1.00
      0.5500000              1.0000000
****
Cl     0
S    6   1.00
  25180.1000000              0.0018330
   3780.3500000              0.0140340
    860.4740000              0.0690970
    242.1450000              0.2374520
     77.3349000              0.4830340
     26.2470000              0.3398560
SP   6   1.00
    491.7650000             -0.0022974              0.0039894
    116.9840000             -0.0307140              0.0303180
     37.4153000             -0.1125280              0.1298800
     13.7834000              0.0450160              0.3279510
      5.4521500              0.5893530              0.4535270
      2.2258800              0.4652060              0.2521540
SP   3   1.00
      3.1864900             -0.2518300             -0.0142990
      1.1442700              0.0615890              0.3235720
      0.4203770              1.0601800              0.7435070
SP   1   1.00
      0.1426570              1.0000000              1.0000000
D    1   1.00
      1.5000000              1.0000000
D    1   1.00
      0.3750000              1.0000000
F    1   1.00
      0.7000000              1.0000000
****
}

set {
reference uhf
freeze_core true
e_convergence 10
d_convergence 10
dft_spherical_points 1202
dft_radial_points 99
}

e = energy('b3lyp')

print_out('Grab this energy {0}'.format(e))
--------------------------------------------------------------------------

    Molecular point group: c1

    Geometry (in Bohr), charge = 0, multiplicity = 2:

       Center              X                  Y                   Z               Mass
    ------------   -----------------  -----------------  -----------------  -----------------
         C           -0.260189260542     0.804050794800    -0.000000001824    12.000000000000
         O           -2.191716864542    -0.337136470100     0.000000007676    15.994914619570
         C            2.411706539958    -0.240679641800     0.000000009076    12.000000000000
         H            2.387119677458    -2.303856666800     0.000000032076     1.007825032230
         H            3.389634725458     0.473246568000    -1.655157347724     1.007825032230
         H            3.389635069658     0.473246729300     1.655157107476     1.007825032230

  Charge       = 0
  Multiplicity = 2
  Basis Set: ANONYMOUS31ACCB22
    Blend: 6-31G_2DFP_
  Basis Set: (ANONYMOUS31ACCB22 AUX)
    Blend: DEF2-UNIVERSAL-JKFIT

    Orbital Energies [Eh]
    ---------------------

    Alpha Occupied:

       1A    -19.186912     2A    -10.271694     3A    -10.209570
       4A     -1.080969     5A     -0.762563     6A     -0.544225
       7A     -0.466869     8A     -0.457274     9A     -0.456664
      10A     -0.387640    11A     -0.386352    12A     -0.192109

    Alpha Virtual:

      13A     -0.018944    14A      0.092507    15A      0.137125
      16A      0.142367    17A      0.217586    18A      0.268006
      19A      0.428279    20A      0.431484    21A      0.443950
      22A      0.494226    23A      0.506286    24A      0.530805
      25A      0.563853    26A      0.578907    27A      0.608350
      28A      0.616838    29A      0.644438    30A      0.717949
      31A      0.766323    32A      0.785249    33A      0.834021
      34A      0.917563    35A      0.927471    36A      0.935807
      37A      1.023758    38A      1.084733    39A      1.109785
      40A      1.153970    41A      1.221756    42A      1.306268
      43A      1.317914    44A      1.327711    45A      1.405224
      46A      1.409236    47A      1.468893    48A      1.560081
      49A      1.631403    50A      1.653954    51A      1.724239
      52A      1.816749    53A      1.834741    54A      1.903272
      55A      2.066609    56A      2.166523    57A      2.494837
      58A      2.680939    59A      2.744078    60A      2.785451
      61A      2.845959    62A      2.895512    63A      2.973474
      64A      3.030357    65A      3.057250    66A      3.105262
      67A      3.115353    68A      3.182737    69A      3.314107
      70A      3.368411    71A      3.390187    72A      3.439440
      73A      3.465827    74A      3.485984    75A      3.571690
      76A      3.738940    77A      3.761441    78A      3.946625
      79A      3.984153    80A      4.056437    81A      4.113899
      82A      4.124607    83A      4.193483    84A      4.394758
      85A      4.435184    86A      4.455003    87A      4.535531
      88A      4.922685    89A      5.037312    90A      5.042293
      91A      5.211256    92A      5.211543    93A      5.472864
      94A      5.483000    95A      5.826901    96A      5.929727
      97A      6.103524    98A      6.770603    99A      6.772766
     100A      7.071118   101A      7.134921   102A      7.529525

    Beta Occupied:

       1A    -19.178849     2A    -10.261631     3A    -10.206195
       4A     -1.065040     5A     -0.750837     6A     -0.524502
       7A     -0.452155     8A     -0.447028     9A     -0.439066
      10A     -0.382435    11A     -0.347956

    Beta Virtual:

      12A     -0.052651    13A     -0.002646    14A      0.095269
      15A      0.142754    16A      0.145443    17A      0.228053
      18A      0.273691    19A      0.433483    20A      0.435638
      21A      0.465790    22A      0.500947    23A      0.527724
      24A      0.539871    25A      0.570343    26A      0.583095
      27A      0.623910    28A      0.626944    29A      0.650030
      30A      0.739890    31A      0.777486    32A      0.795243
      33A      0.834806    34A      0.922391    35A      0.943690
      36A      0.951262    37A      1.027942    38A      1.090895
      39A      1.111821    40A      1.160160    41A      1.231030
      42A      1.311989    43A      1.320745    44A      1.334471
      45A      1.414744    46A      1.415612    47A      1.481138
      48A      1.571286    49A      1.644720    50A      1.668306
      51A      1.730578    52A      1.819927    53A      1.848717
      54A      1.909838    55A      2.073335    56A      2.187933
      57A      2.507520    58A      2.695216    59A      2.758494
      60A      2.806599    61A      2.861529    62A      2.897153
      63A      2.982890    64A      3.047175    65A      3.065635
      66A      3.123797    67A      3.123822    68A      3.217407
      69A      3.357728    70A      3.379908    71A      3.396553
      72A      3.447889    73A      3.481328    74A      3.509278
      75A      3.584665    76A      3.764849    77A      3.770951
      78A      3.955197    79A      3.993481    80A      4.072894
      81A      4.127471    82A      4.129629    83A      4.204091
      84A      4.396988    85A      4.441334    86A      4.459176
      87A      4.546325    88A      4.926625    89A      5.054803
      90A      5.060285    91A      5.213531    92A      5.217178
      93A      5.485503    94A      5.496788    95A      5.840137
      96A      5.935312    97A      6.126716    98A      6.799870
      99A      6.802374   100A      7.075416   101A      7.164288
     102A      7.541189

    Final Occupation by Irrep:
              A
    DOCC [    11 ]
    SOCC [     1 ]

  @DF-UKS Final Energy:  -153.18837036735852

   => Energetics <=

    Nuclear Repulsion Energy =             62.8024345000492517
    One-Electron Energy =                -331.6013780388973373
    Two-Electron Energy =                 132.1932626789009930
    DFT Exchange-Correlation Energy =     -16.5826895074113985
    Empirical Dispersion Energy =           0.0000000000000000
    VV10 Nonlocal Energy =                  0.0000000000000000
    Total Energy =                       -153.1883703673585160

  UHF NO Occupations:
  HONO-2 :   10  A 1.9997844
  HONO-1 :   11  A 1.9992018
  HONO-0 :   12  A 1.0000000
  LUNO+0 :   13  A 0.0007982
  LUNO+1 :   14  A 0.0002156
  LUNO+2 :   15  A 0.0001804
  LUNO+3 :   16  A 0.0000616

Computation Completed

Properties will be evaluated at   0.000000,   0.000000,   0.000000 [a0]

Properties computed using the SCF density matrix

  Nuclear Dipole Moment: [e a0]
     X:     4.5418      Y:    -0.6742      Z:    -0.0000

  Electronic Dipole Moment: [e a0]
     X:    -3.6084      Y:     0.6262      Z:     0.0000

  Dipole Moment: [e a0]
     X:     0.9334      Y:    -0.0481      Z:    -0.0000     Total:     0.9346

  Dipole Moment: [D]
     X:     2.3724      Y:    -0.1222      Z:    -0.0000     Total:     2.3755

*** tstop() called on n040 at Thu Nov  4 14:57:21 2021
Module time:
	user time   =      62.45 seconds =       1.04 minutes
	system time =       0.44 seconds =       0.01 minutes
	total time  =         63 seconds =       1.05 minutes
Total time:
	user time   =      62.45 seconds =       1.04 minutes
	system time =       0.44 seconds =       0.01 minutes
	total time  =         63 seconds =       1.05 minutes
Grab this energy -153.18837036735852
    Psi4 stopped on: Thursday, 04 November 2021 02:57PM
    Psi4 wall time for execution: 0:01:02.93

*** Psi4 exiting successfully. Buy a developer a beer!
