                               Psi4 1.4a2.dev629

  ==> Input File <==

--------------------------------------------------------------------------
import os
memory 14 GB

molecule {
 C   -0.2599255017    0.8047967029   -0.0041480973
 O   -2.1906557952   -0.3367204601    0.0028237235
 C    2.4097451882   -0.2442846605   -0.0012629473
 H    2.3869034258   -2.3045066443    0.0004343893
 H    3.3902095169    0.4766146122   -1.6628750669
 H    3.3903211160    0.4742350698    1.6650278187
units bohr
0 2
}

basis {

assign 6-31g_2dfp_

[ 6-31g_2dfp_ ]

spherical

!----------------------------------------------------------------------
! Basis Set Exchange
! Version v0.8.13
! https://www.basissetexchange.org
!----------------------------------------------------------------------
!   Basis set: 6-31G(2df,p)
! Description: 6-31G(2df,p)
!        Role: orbital
!     Version: 0  (Data from the original Basis Set Exchange)
!----------------------------------------------------------------------

****
H     0
S    3   1.00
     18.7311370              0.03349460
      2.8253937              0.23472695
      0.6401217              0.81375733
S    1   1.00
      0.1612778              1.00000000
P    1   1.00
      1.5000000              1.0000000
P    1   1.00
      0.3750000              1.0000000
****
B     0
S    6   1.00
   2068.8823000              0.0018663
    310.6495700              0.0142515
     70.6830330              0.0695516
     19.8610800              0.2325729
      6.2993048              0.4670787
      2.1270270              0.3634314
SP   3   1.00
      4.7279710             -0.1303938              0.0745976
      1.1903377             -0.1307889              0.3078467
      0.3594117              1.1309444              0.7434568
SP   1   1.00
      0.1267512              1.0000000              1.0000000
D    1   1.00
      0.8020000              1.0000000
D    1   1.00
      0.2005000              1.0000000
F    1   1.00
      0.5000000              1.0000000
****
C     0
S    6   1.00
   3047.5249000              0.0018347
    457.3695100              0.0140373
    103.9486900              0.0688426
     29.2101550              0.2321844
      9.2866630              0.4679413
      3.1639270              0.3623120
SP   3   1.00
      7.8682724             -0.1193324              0.0689991
      1.8812885             -0.1608542              0.3164240
      0.5442493              1.1434564              0.7443083
SP   1   1.00
      0.1687144              1.0000000              1.0000000
D    1   1.00
      1.2520000              1.0000000
D    1   1.00
      0.3130000              1.0000000
F    1   1.00
      0.8000000              1.0000000
****
N     0
S    6   1.00
   4173.5110000              0.0018348
    627.4579000              0.0139950
    142.9021000              0.0685870
     40.2343300              0.2322410
     12.8202100              0.4690700
      4.3904370              0.3604550
SP   3   1.00
     11.6263580             -0.1149610              0.0675800
      2.7162800             -0.1691180              0.3239070
      0.7722180              1.1458520              0.7408950
SP   1   1.00
      0.2120313              1.0000000              1.0000000
D    1   1.00
      1.8260000              1.0000000
D    1   1.00
      0.4565000              1.0000000
F    1   1.00
      1.0000000              1.0000000
****
O     0
S    6   1.00
   5484.6717000              0.0018311
    825.2349500              0.0139501
    188.0469600              0.0684451
     52.9645000              0.2327143
     16.8975700              0.4701930
      5.7996353              0.3585209
SP   3   1.00
     15.5396160             -0.1107775              0.0708743
      3.5999336             -0.1480263              0.3397528
      1.0137618              1.1307670              0.7271586
SP   1   1.00
      0.2700058              1.0000000              1.0000000
D    1   1.00
      2.5840000              1.0000000
D    1   1.00
      0.6460000              1.0000000
F    1   1.00
      1.4000000              1.0000000
****
F     0
S    6   1.00
   7001.7130900              0.0018196169
   1051.3660900              0.0139160796
    239.2856900              0.0684053245
     67.3974453              0.233185760
     21.5199573              0.471267439
      7.40310130             0.356618546
SP   3   1.00
     20.8479528             -0.108506975            0.0716287243
      4.80830834            -0.146451658            0.3459121030
      1.34406986             1.128688580            0.7224699570
SP   1   1.00
      0.358151393            1.0000000              1.0000000
D    1   1.00
      3.5000000              1.0000000
D    1   1.00
      0.8750000              1.0000000
F    1   1.00
      1.8500000              1.0000000
****
Al     0
S    6   1.00
  13983.1000000              0.00194267
   2098.7500000              0.0148599
    477.7050000              0.0728494
    134.3600000              0.2468300
     42.8709000              0.4872580
     14.5189000              0.3234960
SP   6   1.00
    239.6680000             -0.00292619             0.00460285
     57.4419000             -0.0374080              0.0331990
     18.2859000             -0.1144870              0.1362820
      6.5991400              0.1156350              0.3304760
      2.4904900              0.6125950              0.4491460
      0.9445400              0.3937990              0.2657040
SP   3   1.00
      1.2779000             -0.2276060             -0.0175130
      0.3975900              0.00144583             0.2445330
      0.1600950              1.0927900              0.8049340
SP   1   1.00
      0.0556577              1.0000000              1.0000000
D    1   1.00
      0.6500000              1.0000000
D    1   1.00
      0.1625000              1.0000000
F    1   1.00
      0.2500000              1.0000000
****
Si     0
S    6   1.00
  16115.9000000              0.00195948
   2425.5800000              0.01492880
    553.8670000              0.07284780
    156.3400000              0.24613000
     50.0683000              0.48591400
     17.0178000              0.32500200
SP   6   1.00
    292.7180000             -0.00278094             0.00443826
     69.8731000             -0.03571460             0.03266790
     22.3363000             -0.11498500             0.13472100
      8.1503900              0.09356340             0.32867800
      3.1345800              0.60301700             0.44964000
      1.2254300              0.41895900             0.26137200
SP   3   1.00
      1.7273800             -0.24463000            -0.01779510
      0.5729220              0.00431572             0.25353900
      0.2221920              1.09818000             0.80066900
SP   1   1.00
      0.0778369              1.00000000             1.00000000
D    1   1.00
      0.9000000              1.0000000
D    1   1.00
      0.2250000              1.0000000
F    1   1.00
      0.3200000              1.0000000
****
P     0
S    6   1.00
  19413.3000000              0.0018516
   2909.4200000              0.0142062
    661.3640000              0.0699995
    185.7590000              0.2400790
     59.1943000              0.4847620
     20.0310000              0.3352000
SP   6   1.00
    339.4780000             -0.00278217             0.00456462
     81.0101000             -0.0360499              0.03369360
     25.8780000             -0.1166310              0.13975500
      9.4522100              0.0968328              0.33936200
      3.6656600              0.6144180              0.45092100
      1.4674600              0.4037980              0.23858600
SP   3   1.00
      2.1562300             -0.2529230             -0.01776530
      0.7489970              0.0328517              0.27405800
      0.2831450              1.0812500              0.78542100
SP   1   1.00
      0.0998317              1.0000000              1.00000000
D    1   1.00
      1.1000000              1.0000000
D    1   1.00
      0.2750000              1.0000000
F    1   1.00
      0.4500000              1.0000000
****
S     0
S    6   1.00
  21917.1000000              0.0018690
   3301.4900000              0.0142300
    754.1460000              0.0696960
    212.7110000              0.2384870
     67.9896000              0.4833070
     23.0515000              0.3380740
SP   6   1.00
    423.7350000             -0.0023767              0.0040610
    100.7100000             -0.0316930              0.0306810
     32.1599000             -0.1133170              0.1304520
     11.8079000              0.0560900              0.3272050
      4.6311000              0.5922550              0.4528510
      1.8702500              0.4550060              0.2560420
SP   3   1.00
      2.6158400             -0.2503740             -0.0145110
      0.9221670              0.0669570              0.3102630
      0.3412870              1.0545100              0.7544830
SP   1   1.00
      0.1171670              1.0000000              1.0000000
D    1   1.00
      1.3000000              1.0000000
D    1   1.00
      0.3250000              1.0000000
F    1   1.00
      0.5500000              1.0000000
****
Cl     0
S    6   1.00
  25180.1000000              0.0018330
   3780.3500000              0.0140340
    860.4740000              0.0690970
    242.1450000              0.2374520
     77.3349000              0.4830340
     26.2470000              0.3398560
SP   6   1.00
    491.7650000             -0.0022974              0.0039894
    116.9840000             -0.0307140              0.0303180
     37.4153000             -0.1125280              0.1298800
     13.7834000              0.0450160              0.3279510
      5.4521500              0.5893530              0.4535270
      2.2258800              0.4652060              0.2521540
SP   3   1.00
      3.1864900             -0.2518300             -0.0142990
      1.1442700              0.0615890              0.3235720
      0.4203770              1.0601800              0.7435070
SP   1   1.00
      0.1426570              1.0000000              1.0000000
D    1   1.00
      1.5000000              1.0000000
D    1   1.00
      0.3750000              1.0000000
F    1   1.00
      0.7000000              1.0000000
****
}

set {
reference uhf
freeze_core true
e_convergence 10
d_convergence 10
dft_spherical_points 1202
dft_radial_points 99
}

e = energy('b3lyp')

print_out('Grab this energy {0}'.format(e))
--------------------------------------------------------------------------

    Molecular point group: c1

    Geometry (in Bohr), charge = 0, multiplicity = 2:

       Center              X                  Y                   Z               Mass
    ------------   -----------------  -----------------  -----------------  -----------------
         C           -0.259870951973     0.805352741212    -0.003749199678    12.000000000000
         O           -2.190601245473    -0.336164421788     0.003222621122    15.994914619570
         C            2.409799737927    -0.243728622188    -0.000864049678    12.000000000000
         H            2.386957975527    -2.303950605988     0.000833286922     1.007825032230
         H            3.390264066627     0.477170650512    -1.662476169278     1.007825032230
         H            3.390375665727     0.474791108112     1.665426716322     1.007825032230

  Charge       = 0
  Multiplicity = 2
  Basis Set: ANONYMOUS93067040
    Blend: 6-31G_2DFP_
  Basis Set: (ANONYMOUS93067040 AUX)
    Blend: DEF2-UNIVERSAL-JKFIT

    Orbital Energies [Eh]
    ---------------------

    Alpha Occupied:

       1A    -19.186892     2A    -10.271622     3A    -10.210389
       4A     -1.081152     5A     -0.761940     6A     -0.543926
       7A     -0.466614     8A     -0.457526     9A     -0.456015
      10A     -0.387330    11A     -0.386132    12A     -0.192303

    Alpha Virtual:

      13A     -0.018894    14A      0.091696    15A      0.137299
      16A      0.140962    17A      0.217685    18A      0.268149
      19A      0.427908    20A      0.431951    21A      0.443563
      22A      0.493650    23A      0.506289    24A      0.530514
      25A      0.562847    26A      0.577582    27A      0.608329
      28A      0.615599    29A      0.644201    30A      0.717619
      31A      0.766195    32A      0.785317    33A      0.832256
      34A      0.917356    35A      0.926939    36A      0.935783
      37A      1.023262    38A      1.085678    39A      1.107941
      40A      1.152784    41A      1.220481    42A      1.306534
      43A      1.315898    44A      1.327839    45A      1.404319
      46A      1.407745    47A      1.467982    48A      1.560497
      49A      1.630336    50A      1.653761    51A      1.720513
      52A      1.812660    53A      1.834484    54A      1.901993
      55A      2.065093    56A      2.165793    57A      2.495229
      58A      2.679753    59A      2.743839    60A      2.784050
      61A      2.842391    62A      2.894113    63A      2.973115
      64A      3.032250    65A      3.058818    66A      3.105446
      67A      3.114211    68A      3.182682    69A      3.314196
      70A      3.369500    71A      3.393284    72A      3.440466
      73A      3.465184    74A      3.485648    75A      3.570872
      76A      3.739031    77A      3.762064    78A      3.941895
      79A      3.983164    80A      4.055096    81A      4.110719
      82A      4.119376    83A      4.188632    84A      4.386175
      85A      4.434566    86A      4.450572    87A      4.533118
      88A      4.919395    89A      5.037001    90A      5.042181
      91A      5.197691    92A      5.208059    93A      5.473308
      94A      5.481895    95A      5.826626    96A      5.930010
      97A      6.103701    98A      6.770619    99A      6.772735
     100A      7.070900   101A      7.135174   102A      7.529682

    Beta Occupied:

       1A    -19.178817     2A    -10.261565     3A    -10.207007
       4A     -1.065209     5A     -0.750142     6A     -0.524187
       7A     -0.451479     8A     -0.447273     9A     -0.438744
      10A     -0.382158    11A     -0.347826

    Beta Virtual:

      12A     -0.052828    13A     -0.002616    14A      0.094384
      15A      0.142981    16A      0.144088    17A      0.228124
      18A      0.273846    19A      0.433890    20A      0.435135
      21A      0.465598    22A      0.500335    23A      0.527679
      24A      0.539421    25A      0.569190    26A      0.581779
      27A      0.622820    28A      0.626949    29A      0.649872
      30A      0.739535    31A      0.777332    32A      0.795311
      33A      0.833022    34A      0.922203    35A      0.943413
      36A      0.951010    37A      1.027458    38A      1.091809
      39A      1.109984    40A      1.159003    41A      1.229740
      42A      1.312173    43A      1.318694    44A      1.334615
      45A      1.413276    46A      1.414745    47A      1.480346
      48A      1.571535    49A      1.643647    50A      1.668165
      51A      1.726774    52A      1.815789    53A      1.848592
      54A      1.908666    55A      2.071822    56A      2.187207
      57A      2.507904    58A      2.694043    59A      2.758277
      60A      2.805187    61A      2.857727    62A      2.895736
      63A      2.982630    64A      3.048930    65A      3.067425
      66A      3.122552    67A      3.124111    68A      3.217378
      69A      3.357842    70A      3.381009    71A      3.399611
      72A      3.448501    73A      3.481109    74A      3.508559
      75A      3.584255    76A      3.764741    77A      3.771515
      78A      3.950569    79A      3.992455    80A      4.071516
      81A      4.122167    82A      4.125290    83A      4.200406
      84A      4.388463    85A      4.440737    86A      4.454721
      87A      4.544012    88A      4.923245    89A      5.054538
      90A      5.060215    91A      5.199854    92A      5.213795
      93A      5.485960    94A      5.495799    95A      5.839879
      96A      5.935601    97A      6.126916    98A      6.799943
      99A      6.802401   100A      7.075205   101A      7.164582
     102A      7.541358

    Final Occupation by Irrep:
              A
    DOCC [    11 ]
    SOCC [     1 ]

  @DF-UKS Final Energy:  -153.18843066125891

   => Energetics <=

    Nuclear Repulsion Energy =             62.7844846812435833
    One-Electron Energy =                -331.5695489040409143
    Two-Electron Energy =                 132.1769478787676917
    DFT Exchange-Correlation Energy =     -16.5803143172292380
    Empirical Dispersion Energy =           0.0000000000000000
    VV10 Nonlocal Energy =                  0.0000000000000000
    Total Energy =                       -153.1884306612589057

  UHF NO Occupations:
  HONO-2 :   10  A 1.9997842
  HONO-1 :   11  A 1.9992008
  HONO-0 :   12  A 1.0000000
  LUNO+0 :   13  A 0.0007992
  LUNO+1 :   14  A 0.0002158
  LUNO+2 :   15  A 0.0001796
  LUNO+3 :   16  A 0.0000617

Computation Completed

Properties will be evaluated at   0.000000,   0.000000,   0.000000 [a0]

Properties computed using the SCF density matrix

  Nuclear Dipole Moment: [e a0]
     X:     4.5424      Y:    -0.6716      Z:     0.0019

  Electronic Dipole Moment: [e a0]
     X:    -3.6108      Y:     0.6223      Z:    -0.0019

  Dipole Moment: [e a0]
     X:     0.9316      Y:    -0.0492      Z:     0.0000     Total:     0.9329

  Dipole Moment: [D]
     X:     2.3678      Y:    -0.1251      Z:     0.0000     Total:     2.3711

*** tstop() called on n033 at Thu Nov  4 14:50:21 2021
Module time:
	user time   =      62.55 seconds =       1.04 minutes
	system time =       0.36 seconds =       0.01 minutes
	total time  =         63 seconds =       1.05 minutes
Total time:
	user time   =      62.55 seconds =       1.04 minutes
	system time =       0.36 seconds =       0.01 minutes
	total time  =         63 seconds =       1.05 minutes
Grab this energy -153.1884306612589
    Psi4 stopped on: Thursday, 04 November 2021 02:50PM
    Psi4 wall time for execution: 0:01:02.96

*** Psi4 exiting successfully. Buy a developer a beer!
