                               Psi4 1.4a2.dev629

  ==> Input File <==

--------------------------------------------------------------------------
import os
memory 14 GB

molecule {
 C   -0.2555407085    0.7986901369    0.0000000000
 O   -2.1916111388   -0.3312011814    0.0000000000
 C    2.4090545252   -0.2455386842   -0.0000000000
 H    2.3791819412   -2.3091461944   -0.0000000000
 H    3.3917766815    0.4707807854   -1.6637291550
 H    3.3917766815    0.4707807854    1.6637291550
units bohr
0 2
}

basis {

assign 6-31g_2dfp_

[ 6-31g_2dfp_ ]

spherical

!----------------------------------------------------------------------
! Basis Set Exchange
! Version v0.8.13
! https://www.basissetexchange.org
!----------------------------------------------------------------------
!   Basis set: 6-31G(2df,p)
! Description: 6-31G(2df,p)
!        Role: orbital
!     Version: 0  (Data from the original Basis Set Exchange)
!----------------------------------------------------------------------

****
H     0
S    3   1.00
     18.7311370              0.03349460
      2.8253937              0.23472695
      0.6401217              0.81375733
S    1   1.00
      0.1612778              1.00000000
P    1   1.00
      1.5000000              1.0000000
P    1   1.00
      0.3750000              1.0000000
****
B     0
S    6   1.00
   2068.8823000              0.0018663
    310.6495700              0.0142515
     70.6830330              0.0695516
     19.8610800              0.2325729
      6.2993048              0.4670787
      2.1270270              0.3634314
SP   3   1.00
      4.7279710             -0.1303938              0.0745976
      1.1903377             -0.1307889              0.3078467
      0.3594117              1.1309444              0.7434568
SP   1   1.00
      0.1267512              1.0000000              1.0000000
D    1   1.00
      0.8020000              1.0000000
D    1   1.00
      0.2005000              1.0000000
F    1   1.00
      0.5000000              1.0000000
****
C     0
S    6   1.00
   3047.5249000              0.0018347
    457.3695100              0.0140373
    103.9486900              0.0688426
     29.2101550              0.2321844
      9.2866630              0.4679413
      3.1639270              0.3623120
SP   3   1.00
      7.8682724             -0.1193324              0.0689991
      1.8812885             -0.1608542              0.3164240
      0.5442493              1.1434564              0.7443083
SP   1   1.00
      0.1687144              1.0000000              1.0000000
D    1   1.00
      1.2520000              1.0000000
D    1   1.00
      0.3130000              1.0000000
F    1   1.00
      0.8000000              1.0000000
****
N     0
S    6   1.00
   4173.5110000              0.0018348
    627.4579000              0.0139950
    142.9021000              0.0685870
     40.2343300              0.2322410
     12.8202100              0.4690700
      4.3904370              0.3604550
SP   3   1.00
     11.6263580             -0.1149610              0.0675800
      2.7162800             -0.1691180              0.3239070
      0.7722180              1.1458520              0.7408950
SP   1   1.00
      0.2120313              1.0000000              1.0000000
D    1   1.00
      1.8260000              1.0000000
D    1   1.00
      0.4565000              1.0000000
F    1   1.00
      1.0000000              1.0000000
****
O     0
S    6   1.00
   5484.6717000              0.0018311
    825.2349500              0.0139501
    188.0469600              0.0684451
     52.9645000              0.2327143
     16.8975700              0.4701930
      5.7996353              0.3585209
SP   3   1.00
     15.5396160             -0.1107775              0.0708743
      3.5999336             -0.1480263              0.3397528
      1.0137618              1.1307670              0.7271586
SP   1   1.00
      0.2700058              1.0000000              1.0000000
D    1   1.00
      2.5840000              1.0000000
D    1   1.00
      0.6460000              1.0000000
F    1   1.00
      1.4000000              1.0000000
****
F     0
S    6   1.00
   7001.7130900              0.0018196169
   1051.3660900              0.0139160796
    239.2856900              0.0684053245
     67.3974453              0.233185760
     21.5199573              0.471267439
      7.40310130             0.356618546
SP   3   1.00
     20.8479528             -0.108506975            0.0716287243
      4.80830834            -0.146451658            0.3459121030
      1.34406986             1.128688580            0.7224699570
SP   1   1.00
      0.358151393            1.0000000              1.0000000
D    1   1.00
      3.5000000              1.0000000
D    1   1.00
      0.8750000              1.0000000
F    1   1.00
      1.8500000              1.0000000
****
Al     0
S    6   1.00
  13983.1000000              0.00194267
   2098.7500000              0.0148599
    477.7050000              0.0728494
    134.3600000              0.2468300
     42.8709000              0.4872580
     14.5189000              0.3234960
SP   6   1.00
    239.6680000             -0.00292619             0.00460285
     57.4419000             -0.0374080              0.0331990
     18.2859000             -0.1144870              0.1362820
      6.5991400              0.1156350              0.3304760
      2.4904900              0.6125950              0.4491460
      0.9445400              0.3937990              0.2657040
SP   3   1.00
      1.2779000             -0.2276060             -0.0175130
      0.3975900              0.00144583             0.2445330
      0.1600950              1.0927900              0.8049340
SP   1   1.00
      0.0556577              1.0000000              1.0000000
D    1   1.00
      0.6500000              1.0000000
D    1   1.00
      0.1625000              1.0000000
F    1   1.00
      0.2500000              1.0000000
****
Si     0
S    6   1.00
  16115.9000000              0.00195948
   2425.5800000              0.01492880
    553.8670000              0.07284780
    156.3400000              0.24613000
     50.0683000              0.48591400
     17.0178000              0.32500200
SP   6   1.00
    292.7180000             -0.00278094             0.00443826
     69.8731000             -0.03571460             0.03266790
     22.3363000             -0.11498500             0.13472100
      8.1503900              0.09356340             0.32867800
      3.1345800              0.60301700             0.44964000
      1.2254300              0.41895900             0.26137200
SP   3   1.00
      1.7273800             -0.24463000            -0.01779510
      0.5729220              0.00431572             0.25353900
      0.2221920              1.09818000             0.80066900
SP   1   1.00
      0.0778369              1.00000000             1.00000000
D    1   1.00
      0.9000000              1.0000000
D    1   1.00
      0.2250000              1.0000000
F    1   1.00
      0.3200000              1.0000000
****
P     0
S    6   1.00
  19413.3000000              0.0018516
   2909.4200000              0.0142062
    661.3640000              0.0699995
    185.7590000              0.2400790
     59.1943000              0.4847620
     20.0310000              0.3352000
SP   6   1.00
    339.4780000             -0.00278217             0.00456462
     81.0101000             -0.0360499              0.03369360
     25.8780000             -0.1166310              0.13975500
      9.4522100              0.0968328              0.33936200
      3.6656600              0.6144180              0.45092100
      1.4674600              0.4037980              0.23858600
SP   3   1.00
      2.1562300             -0.2529230             -0.01776530
      0.7489970              0.0328517              0.27405800
      0.2831450              1.0812500              0.78542100
SP   1   1.00
      0.0998317              1.0000000              1.00000000
D    1   1.00
      1.1000000              1.0000000
D    1   1.00
      0.2750000              1.0000000
F    1   1.00
      0.4500000              1.0000000
****
S     0
S    6   1.00
  21917.1000000              0.0018690
   3301.4900000              0.0142300
    754.1460000              0.0696960
    212.7110000              0.2384870
     67.9896000              0.4833070
     23.0515000              0.3380740
SP   6   1.00
    423.7350000             -0.0023767              0.0040610
    100.7100000             -0.0316930              0.0306810
     32.1599000             -0.1133170              0.1304520
     11.8079000              0.0560900              0.3272050
      4.6311000              0.5922550              0.4528510
      1.8702500              0.4550060              0.2560420
SP   3   1.00
      2.6158400             -0.2503740             -0.0145110
      0.9221670              0.0669570              0.3102630
      0.3412870              1.0545100              0.7544830
SP   1   1.00
      0.1171670              1.0000000              1.0000000
D    1   1.00
      1.3000000              1.0000000
D    1   1.00
      0.3250000              1.0000000
F    1   1.00
      0.5500000              1.0000000
****
Cl     0
S    6   1.00
  25180.1000000              0.0018330
   3780.3500000              0.0140340
    860.4740000              0.0690970
    242.1450000              0.2374520
     77.3349000              0.4830340
     26.2470000              0.3398560
SP   6   1.00
    491.7650000             -0.0022974              0.0039894
    116.9840000             -0.0307140              0.0303180
     37.4153000             -0.1125280              0.1298800
     13.7834000              0.0450160              0.3279510
      5.4521500              0.5893530              0.4535270
      2.2258800              0.4652060              0.2521540
SP   3   1.00
      3.1864900             -0.2518300             -0.0142990
      1.1442700              0.0615890              0.3235720
      0.4203770              1.0601800              0.7435070
SP   1   1.00
      0.1426570              1.0000000              1.0000000
D    1   1.00
      1.5000000              1.0000000
D    1   1.00
      0.3750000              1.0000000
F    1   1.00
      0.7000000              1.0000000
****
}

set {
reference uhf
freeze_core true
e_convergence 10
d_convergence 10
dft_spherical_points 1202
dft_radial_points 99
}

e = energy('b3lyp')

print_out('Grab this energy {0}'.format(e))
--------------------------------------------------------------------------

    Molecular point group: cs

    Geometry (in Bohr), charge = 0, multiplicity = 2:

       Center              X                  Y                   Z               Mass
    ------------   -----------------  -----------------  -----------------  -----------------
         C           -0.256051344984     0.799573554517     0.000000000000    12.000000000000
         O           -2.192121775284    -0.330317763783     0.000000000000    15.994914619570
         C            2.408543888716    -0.244655266583     0.000000000000    12.000000000000
         H            2.378671304716    -2.308262776783     0.000000000000     1.007825032230
         H            3.391266045016     0.471664203017    -1.663729155000     1.007825032230
         H            3.391266045016     0.471664203017     1.663729155000     1.007825032230

  Charge       = 0
  Multiplicity = 2
  Basis Set: ANONYMOUS977EB61C
    Blend: 6-31G_2DFP_
  Basis Set: (ANONYMOUS977EB61C AUX)
    Blend: DEF2-UNIVERSAL-JKFIT

    Orbital Energies [Eh]
    ---------------------

    Alpha Occupied:

       1Ap   -19.186623     2Ap   -10.271172     3Ap   -10.210445
       4Ap    -1.081271     5Ap    -0.762585     6Ap    -0.543801
       7Ap    -0.466980     8Ap    -0.457514     1App   -0.456397
       2App   -0.387315     9Ap    -0.386215    10Ap    -0.191313

    Alpha Virtual:

       3App   -0.018669    11Ap     0.091537    12Ap     0.136768
       4App    0.141072    13Ap     0.218794    14Ap     0.268248
      15Ap     0.427876     5App    0.431513    16Ap     0.444094
       6App    0.493764    17Ap     0.506172    18Ap     0.530283
       7App    0.562677    19Ap     0.577388    20Ap     0.609494
       8App    0.616396    21Ap     0.644247    22Ap     0.717615
       9App    0.765669    23Ap     0.785377    10App    0.831856
      11App    0.917471    24Ap     0.927246    25Ap     0.935658
      12App    1.024054    26Ap     1.084772    27Ap     1.107624
      13App    1.154063    28Ap     1.222939    29Ap     1.307346
      14App    1.316003    30Ap     1.328051    31Ap     1.403544
      15App    1.408123    32Ap     1.469228    33Ap     1.560563
      34Ap     1.632387    16App    1.654254    35Ap     1.720248
      17App    1.813007    36Ap     1.835315    37Ap     1.900955
      18App    2.066888    38Ap     2.169631    39Ap     2.495841
      19App    2.680764    40Ap     2.745218    41Ap     2.784377
      20App    2.841475    21App    2.893912    42Ap     2.975046
      43Ap     3.029416    22App    3.057996    23App    3.104269
      44Ap     3.116941    45Ap     3.181088    24App    3.314558
      46Ap     3.369067    25App    3.391856    26App    3.442020
      27App    3.466886    47Ap     3.485451    48Ap     3.569447
      49Ap     3.741462    50Ap     3.765610    51Ap     3.943843
      28App    3.984882    52Ap     4.058903    53Ap     4.112825
      29App    4.117940    54Ap     4.189814    30App    4.388185
      55Ap     4.437577    31App    4.450090    56Ap     4.533752
      57Ap     4.919215    58Ap     5.037125    32App    5.042571
      33App    5.197600    59Ap     5.206146    60Ap     5.474845
      34App    5.484291    61Ap     5.827756    35App    5.931944
      62Ap     6.107062    63Ap     6.771091    36App    6.773295
      37App    7.071950    64Ap     7.135180    65Ap     7.530722

    Beta Occupied:

       1Ap   -19.178574     2Ap   -10.261088     3Ap   -10.207101
       4Ap    -1.065364     5Ap    -0.750801     6Ap    -0.524150
       1App   -0.451850     7Ap    -0.447194     8Ap    -0.439239
       2App   -0.382166     9Ap    -0.347967

    Beta Virtual:

      10Ap    -0.051727     3App   -0.002418    11Ap     0.094240
      12Ap     0.142512     4App    0.144210    13Ap     0.229070
      14Ap     0.273919     5App    0.433502    15Ap     0.434679
      16Ap     0.466473     6App    0.500467    17Ap     0.527454
      18Ap     0.539326     7App    0.568941    19Ap     0.581604
       8App    0.623687    20Ap     0.628012    21Ap     0.650093
      22Ap     0.739740     9App    0.776836    23Ap     0.795348
      10App    0.832658    11App    0.922323    24Ap     0.943224
      25Ap     0.951281    12App    1.028249    26Ap     1.090951
      27Ap     1.109660    13App    1.160215    28Ap     1.232225
      29Ap     1.312899    14App    1.318781    30Ap     1.334831
      15App    1.413605    31Ap     1.413911    32Ap     1.481499
      33Ap     1.571594    34Ap     1.645772    16App    1.668608
      35Ap     1.726538    17App    1.816230    36Ap     1.849489
      37Ap     1.907618    18App    2.073597    38Ap     2.191063
      39Ap     2.508500    19App    2.695015    40Ap     2.759732
      41Ap     2.805459    20App    2.857001    21App    2.895551
      42Ap     2.984436    43Ap     3.046319    22App    3.066621
      23App    3.122979    44Ap     3.125372    45Ap     3.215870
      24App    3.358176    46Ap     3.380581    25App    3.398108
      26App    3.449860    27App    3.482851    47Ap     3.508410
      48Ap     3.582746    49Ap     3.767327    50Ap     3.774873
      51Ap     3.952511    28App    3.994134    52Ap     4.075123
      29App    4.120777    53Ap     4.126911    54Ap     4.202035
      30App    4.390427    55Ap     4.443801    31App    4.454293
      56Ap     4.544688    57Ap     4.923072    58Ap     5.054590
      32App    5.060525    33App    5.199764    59Ap     5.211925
      60Ap     5.487474    34App    5.498164    61Ap     5.841002
      35App    5.937534    62Ap     6.130235    63Ap     6.800293
      36App    6.802841    37App    7.076245    64Ap     7.164505
      65Ap     7.542370

    Final Occupation by Irrep:
             Ap   App
    DOCC [     9,    2 ]
    SOCC [     1,    0 ]

  @DF-UKS Final Energy:  -153.18844576763553

   => Energetics <=

    Nuclear Repulsion Energy =             62.8262250726575147
    One-Electron Energy =                -331.6514599508558376
    Two-Electron Energy =                 132.2181832382133280
    DFT Exchange-Correlation Energy =     -16.5813941276505332
    Empirical Dispersion Energy =           0.0000000000000000
    VV10 Nonlocal Energy =                  0.0000000000000000
    Total Energy =                       -153.1884457676355282

  UHF NO Occupations:
  HONO-2 :    8 Ap 1.9997888
  HONO-1 :    9 Ap 1.9992034
  HONO-0 :   10 Ap 1.0000000
  LUNO+0 :   11 Ap 0.0007966
  LUNO+1 :   12 Ap 0.0002112
  LUNO+2 :    3App 0.0001813
  LUNO+3 :   13 Ap 0.0000613

Computation Completed

Properties will be evaluated at   0.000000,   0.000000,   0.000000 [a0]

Properties computed using the SCF density matrix

  Nuclear Dipole Moment: [e a0]
     X:     4.5392      Y:    -0.6780      Z:     0.0000

  Electronic Dipole Moment: [e a0]
     X:    -3.6047      Y:     0.6275      Z:     0.0000

  Dipole Moment: [e a0]
     X:     0.9345      Y:    -0.0505      Z:     0.0000     Total:     0.9358

  Dipole Moment: [D]
     X:     2.3752      Y:    -0.1284      Z:     0.0000     Total:     2.3787

*** tstop() called on n049 at Tue Mar 15 10:33:09 2022
Module time:
	user time   =      50.89 seconds =       0.85 minutes
	system time =       0.57 seconds =       0.01 minutes
	total time  =         51 seconds =       0.85 minutes
Total time:
	user time   =      50.89 seconds =       0.85 minutes
	system time =       0.57 seconds =       0.01 minutes
	total time  =         51 seconds =       0.85 minutes
Grab this energy -153.18844576763553
    Psi4 stopped on: Tuesday, 15 March 2022 10:33AM
    Psi4 wall time for execution: 0:00:51.49

*** Psi4 exiting successfully. Buy a developer a beer!
