                               Psi4 1.4a2.dev629

  ==> Input File <==

--------------------------------------------------------------------------
import os
memory 14 GB

molecule {
 C   -0.2599220104    0.8048027859    0.0010029905
 O   -2.1906559420   -0.3367287989   -0.0002803012
 C    2.4097460473   -0.2442829933   -0.0025952354
 H    2.3868970143   -2.3045024339    0.0010171927
 H    3.3904386809    0.4755464203   -1.6635254773
 H    3.3900941600    0.4752996398    1.6643806507
units bohr
0 2
}

basis {

assign 6-31g_2dfp_

[ 6-31g_2dfp_ ]

spherical

!----------------------------------------------------------------------
! Basis Set Exchange
! Version v0.8.13
! https://www.basissetexchange.org
!----------------------------------------------------------------------
!   Basis set: 6-31G(2df,p)
! Description: 6-31G(2df,p)
!        Role: orbital
!     Version: 0  (Data from the original Basis Set Exchange)
!----------------------------------------------------------------------

****
H     0
S    3   1.00
     18.7311370              0.03349460
      2.8253937              0.23472695
      0.6401217              0.81375733
S    1   1.00
      0.1612778              1.00000000
P    1   1.00
      1.5000000              1.0000000
P    1   1.00
      0.3750000              1.0000000
****
B     0
S    6   1.00
   2068.8823000              0.0018663
    310.6495700              0.0142515
     70.6830330              0.0695516
     19.8610800              0.2325729
      6.2993048              0.4670787
      2.1270270              0.3634314
SP   3   1.00
      4.7279710             -0.1303938              0.0745976
      1.1903377             -0.1307889              0.3078467
      0.3594117              1.1309444              0.7434568
SP   1   1.00
      0.1267512              1.0000000              1.0000000
D    1   1.00
      0.8020000              1.0000000
D    1   1.00
      0.2005000              1.0000000
F    1   1.00
      0.5000000              1.0000000
****
C     0
S    6   1.00
   3047.5249000              0.0018347
    457.3695100              0.0140373
    103.9486900              0.0688426
     29.2101550              0.2321844
      9.2866630              0.4679413
      3.1639270              0.3623120
SP   3   1.00
      7.8682724             -0.1193324              0.0689991
      1.8812885             -0.1608542              0.3164240
      0.5442493              1.1434564              0.7443083
SP   1   1.00
      0.1687144              1.0000000              1.0000000
D    1   1.00
      1.2520000              1.0000000
D    1   1.00
      0.3130000              1.0000000
F    1   1.00
      0.8000000              1.0000000
****
N     0
S    6   1.00
   4173.5110000              0.0018348
    627.4579000              0.0139950
    142.9021000              0.0685870
     40.2343300              0.2322410
     12.8202100              0.4690700
      4.3904370              0.3604550
SP   3   1.00
     11.6263580             -0.1149610              0.0675800
      2.7162800             -0.1691180              0.3239070
      0.7722180              1.1458520              0.7408950
SP   1   1.00
      0.2120313              1.0000000              1.0000000
D    1   1.00
      1.8260000              1.0000000
D    1   1.00
      0.4565000              1.0000000
F    1   1.00
      1.0000000              1.0000000
****
O     0
S    6   1.00
   5484.6717000              0.0018311
    825.2349500              0.0139501
    188.0469600              0.0684451
     52.9645000              0.2327143
     16.8975700              0.4701930
      5.7996353              0.3585209
SP   3   1.00
     15.5396160             -0.1107775              0.0708743
      3.5999336             -0.1480263              0.3397528
      1.0137618              1.1307670              0.7271586
SP   1   1.00
      0.2700058              1.0000000              1.0000000
D    1   1.00
      2.5840000              1.0000000
D    1   1.00
      0.6460000              1.0000000
F    1   1.00
      1.4000000              1.0000000
****
F     0
S    6   1.00
   7001.7130900              0.0018196169
   1051.3660900              0.0139160796
    239.2856900              0.0684053245
     67.3974453              0.233185760
     21.5199573              0.471267439
      7.40310130             0.356618546
SP   3   1.00
     20.8479528             -0.108506975            0.0716287243
      4.80830834            -0.146451658            0.3459121030
      1.34406986             1.128688580            0.7224699570
SP   1   1.00
      0.358151393            1.0000000              1.0000000
D    1   1.00
      3.5000000              1.0000000
D    1   1.00
      0.8750000              1.0000000
F    1   1.00
      1.8500000              1.0000000
****
Al     0
S    6   1.00
  13983.1000000              0.00194267
   2098.7500000              0.0148599
    477.7050000              0.0728494
    134.3600000              0.2468300
     42.8709000              0.4872580
     14.5189000              0.3234960
SP   6   1.00
    239.6680000             -0.00292619             0.00460285
     57.4419000             -0.0374080              0.0331990
     18.2859000             -0.1144870              0.1362820
      6.5991400              0.1156350              0.3304760
      2.4904900              0.6125950              0.4491460
      0.9445400              0.3937990              0.2657040
SP   3   1.00
      1.2779000             -0.2276060             -0.0175130
      0.3975900              0.00144583             0.2445330
      0.1600950              1.0927900              0.8049340
SP   1   1.00
      0.0556577              1.0000000              1.0000000
D    1   1.00
      0.6500000              1.0000000
D    1   1.00
      0.1625000              1.0000000
F    1   1.00
      0.2500000              1.0000000
****
Si     0
S    6   1.00
  16115.9000000              0.00195948
   2425.5800000              0.01492880
    553.8670000              0.07284780
    156.3400000              0.24613000
     50.0683000              0.48591400
     17.0178000              0.32500200
SP   6   1.00
    292.7180000             -0.00278094             0.00443826
     69.8731000             -0.03571460             0.03266790
     22.3363000             -0.11498500             0.13472100
      8.1503900              0.09356340             0.32867800
      3.1345800              0.60301700             0.44964000
      1.2254300              0.41895900             0.26137200
SP   3   1.00
      1.7273800             -0.24463000            -0.01779510
      0.5729220              0.00431572             0.25353900
      0.2221920              1.09818000             0.80066900
SP   1   1.00
      0.0778369              1.00000000             1.00000000
D    1   1.00
      0.9000000              1.0000000
D    1   1.00
      0.2250000              1.0000000
F    1   1.00
      0.3200000              1.0000000
****
P     0
S    6   1.00
  19413.3000000              0.0018516
   2909.4200000              0.0142062
    661.3640000              0.0699995
    185.7590000              0.2400790
     59.1943000              0.4847620
     20.0310000              0.3352000
SP   6   1.00
    339.4780000             -0.00278217             0.00456462
     81.0101000             -0.0360499              0.03369360
     25.8780000             -0.1166310              0.13975500
      9.4522100              0.0968328              0.33936200
      3.6656600              0.6144180              0.45092100
      1.4674600              0.4037980              0.23858600
SP   3   1.00
      2.1562300             -0.2529230             -0.01776530
      0.7489970              0.0328517              0.27405800
      0.2831450              1.0812500              0.78542100
SP   1   1.00
      0.0998317              1.0000000              1.00000000
D    1   1.00
      1.1000000              1.0000000
D    1   1.00
      0.2750000              1.0000000
F    1   1.00
      0.4500000              1.0000000
****
S     0
S    6   1.00
  21917.1000000              0.0018690
   3301.4900000              0.0142300
    754.1460000              0.0696960
    212.7110000              0.2384870
     67.9896000              0.4833070
     23.0515000              0.3380740
SP   6   1.00
    423.7350000             -0.0023767              0.0040610
    100.7100000             -0.0316930              0.0306810
     32.1599000             -0.1133170              0.1304520
     11.8079000              0.0560900              0.3272050
      4.6311000              0.5922550              0.4528510
      1.8702500              0.4550060              0.2560420
SP   3   1.00
      2.6158400             -0.2503740             -0.0145110
      0.9221670              0.0669570              0.3102630
      0.3412870              1.0545100              0.7544830
SP   1   1.00
      0.1171670              1.0000000              1.0000000
D    1   1.00
      1.3000000              1.0000000
D    1   1.00
      0.3250000              1.0000000
F    1   1.00
      0.5500000              1.0000000
****
Cl     0
S    6   1.00
  25180.1000000              0.0018330
   3780.3500000              0.0140340
    860.4740000              0.0690970
    242.1450000              0.2374520
     77.3349000              0.4830340
     26.2470000              0.3398560
SP   6   1.00
    491.7650000             -0.0022974              0.0039894
    116.9840000             -0.0307140              0.0303180
     37.4153000             -0.1125280              0.1298800
     13.7834000              0.0450160              0.3279510
      5.4521500              0.5893530              0.4535270
      2.2258800              0.4652060              0.2521540
SP   3   1.00
      3.1864900             -0.2518300             -0.0142990
      1.1442700              0.0615890              0.3235720
      0.4203770              1.0601800              0.7435070
SP   1   1.00
      0.1426570              1.0000000              1.0000000
D    1   1.00
      1.5000000              1.0000000
D    1   1.00
      0.3750000              1.0000000
F    1   1.00
      0.7000000              1.0000000
****
}

set {
reference uhf
freeze_core true
e_convergence 10
d_convergence 10
dft_spherical_points 1202
dft_radial_points 99
}

e = energy('b3lyp')

print_out('Grab this energy {0}'.format(e))
--------------------------------------------------------------------------

    Molecular point group: c1

    Geometry (in Bohr), charge = 0, multiplicity = 2:

       Center              X                  Y                   Z               Mass
    ------------   -----------------  -----------------  -----------------  -----------------
         C           -0.259868521158     0.805359749000     0.001507502995    12.000000000000
         O           -2.190602452758    -0.336171835800     0.000224211295    15.994914619570
         C            2.409799536542    -0.243726030200    -0.002090722905    12.000000000000
         H            2.386950503542    -2.303945470800     0.001521705195     1.007825032230
         H            3.390492170142     0.476103383400    -1.663020964805     1.007825032230
         H            3.390147649242     0.475856602900     1.664885163195     1.007825032230

  Charge       = 0
  Multiplicity = 2
  Basis Set: ANONYMOUSEA5C7280
    Blend: 6-31G_2DFP_
  Basis Set: (ANONYMOUSEA5C7280 AUX)
    Blend: DEF2-UNIVERSAL-JKFIT

    Orbital Energies [Eh]
    ---------------------

    Alpha Occupied:

       1A    -19.186892     2A    -10.271622     3A    -10.210389
       4A     -1.081152     5A     -0.761940     6A     -0.543926
       7A     -0.466617     8A     -0.457515     9A     -0.456024
      10A     -0.387348    11A     -0.386113    12A     -0.192303

    Alpha Virtual:

      13A     -0.018893    14A      0.091694    15A      0.137284
      16A      0.140976    17A      0.217685    18A      0.268150
      19A      0.427914    20A      0.431941    21A      0.443567
      22A      0.493655    23A      0.506285    24A      0.530512
      25A      0.562847    26A      0.577582    27A      0.608325
      28A      0.615600    29A      0.644203    30A      0.717619
      31A      0.766196    32A      0.785317    33A      0.832255
      34A      0.917360    35A      0.926938    36A      0.935783
      37A      1.023275    38A      1.085664    39A      1.107928
      40A      1.152782    41A      1.220475    42A      1.306542
      43A      1.315870    44A      1.327872    45A      1.403980
      46A      1.408094    47A      1.467990    48A      1.560496
      49A      1.630331    50A      1.653763    51A      1.720510
      52A      1.812640    53A      1.834491    54A      1.902009
      55A      2.065095    56A      2.165793    57A      2.495227
      58A      2.679756    59A      2.743838    60A      2.784049
      61A      2.842391    62A      2.894118    63A      2.973113
      64A      3.032251    65A      3.058814    66A      3.105415
      67A      3.114244    68A      3.182683    69A      3.314199
      70A      3.369487    71A      3.393286    72A      3.440475
      73A      3.465181    74A      3.485641    75A      3.570881
      76A      3.739032    77A      3.762067    78A      3.941885
      79A      3.983192    80A      4.055050    81A      4.110696
      82A      4.119424    83A      4.188627    84A      4.386188
      85A      4.434566    86A      4.450463    87A      4.533227
      88A      4.919388    89A      5.037002    90A      5.042181
      91A      5.197702    92A      5.208060    93A      5.473309
      94A      5.481896    95A      5.826625    96A      5.930009
      97A      6.103700    98A      6.770619    99A      6.772735
     100A      7.070899   101A      7.135174   102A      7.529682

    Beta Occupied:

       1A    -19.178817     2A    -10.261565     3A    -10.207007
       4A     -1.065209     5A     -0.750142     6A     -0.524187
       7A     -0.451488     8A     -0.447267     9A     -0.438742
      10A     -0.382159    11A     -0.347825

    Beta Virtual:

      12A     -0.052828    13A     -0.002615    14A      0.094382
      15A      0.142940    16A      0.144128    17A      0.228124
      18A      0.273847    19A      0.433909    20A      0.435114
      21A      0.465600    22A      0.500338    23A      0.527677
      24A      0.539419    25A      0.569190    26A      0.581779
      27A      0.622822    28A      0.626947    29A      0.649874
      30A      0.739536    31A      0.777332    32A      0.795312
      33A      0.833021    34A      0.922207    35A      0.943415
      36A      0.951009    37A      1.027472    38A      1.091794
      39A      1.109971    40A      1.159002    41A      1.229733
      42A      1.312184    43A      1.318670    44A      1.334641
      45A      1.412650    46A      1.415379    47A      1.480356
      48A      1.571534    49A      1.643642    50A      1.668167
      51A      1.726771    52A      1.815773    53A      1.848597
      54A      1.908682    55A      2.071824    56A      2.187208
      57A      2.507903    58A      2.694046    59A      2.758276
      60A      2.805186    61A      2.857728    62A      2.895742
      63A      2.982629    64A      3.048932    65A      3.067418
      66A      3.122377    67A      3.124287    68A      3.217380
      69A      3.357844    70A      3.380994    71A      3.399615
      72A      3.448506    73A      3.481107    74A      3.508555
      75A      3.584265    76A      3.764741    77A      3.771518
      78A      3.950559    79A      3.992481    80A      4.071466
      81A      4.122110    82A      4.125374    83A      4.200402
      84A      4.388476    85A      4.440736    86A      4.454622
      87A      4.544113    88A      4.923238    89A      5.054539
      90A      5.060215    91A      5.199865    92A      5.213796
      93A      5.485961    94A      5.495800    95A      5.839877
      96A      5.935600    97A      6.126915    98A      6.799943
      99A      6.802401   100A      7.075204   101A      7.164582
     102A      7.541357

    Final Occupation by Irrep:
              A
    DOCC [    11 ]
    SOCC [     1 ]

  @DF-UKS Final Energy:  -153.18842942592971

   => Energetics <=

    Nuclear Repulsion Energy =             62.7844962370935136
    One-Electron Energy =                -331.5695672234498943
    Two-Electron Energy =                 132.1769562954276296
    DFT Exchange-Correlation Energy =     -16.5803147350009255
    Empirical Dispersion Energy =           0.0000000000000000
    VV10 Nonlocal Energy =                  0.0000000000000000
    Total Energy =                       -153.1884294259297121

  UHF NO Occupations:
  HONO-2 :   10  A 1.9997842
  HONO-1 :   11  A 1.9992008
  HONO-0 :   12  A 1.0000000
  LUNO+0 :   13  A 0.0007992
  LUNO+1 :   14  A 0.0002158
  LUNO+2 :   15  A 0.0001796
  LUNO+3 :   16  A 0.0000617

Computation Completed

Properties will be evaluated at   0.000000,   0.000000,   0.000000 [a0]

Properties computed using the SCF density matrix

  Nuclear Dipole Moment: [e a0]
     X:     4.5424      Y:    -0.6716      Z:     0.0017

  Electronic Dipole Moment: [e a0]
     X:    -3.6108      Y:     0.6223      Z:    -0.0020

  Dipole Moment: [e a0]
     X:     0.9316      Y:    -0.0492      Z:    -0.0004     Total:     0.9329

  Dipole Moment: [D]
     X:     2.3678      Y:    -0.1251      Z:    -0.0009     Total:     2.3711

*** tstop() called on n035 at Thu Nov  4 14:48:21 2021
Module time:
	user time   =      62.31 seconds =       1.04 minutes
	system time =       0.42 seconds =       0.01 minutes
	total time  =         63 seconds =       1.05 minutes
Total time:
	user time   =      62.31 seconds =       1.04 minutes
	system time =       0.42 seconds =       0.01 minutes
	total time  =         63 seconds =       1.05 minutes
Grab this energy -153.1884294259297
    Psi4 stopped on: Thursday, 04 November 2021 02:48PM
    Psi4 wall time for execution: 0:01:02.79

*** Psi4 exiting successfully. Buy a developer a beer!
