                               Psi4 1.4a2.dev629

  ==> Input File <==

--------------------------------------------------------------------------
import os
memory 14 GB

molecule {
 C   -0.2604374404    0.8040058439   -0.0004728436
 O   -2.1906198077   -0.3366124230    0.0001014503
 C    2.4127800974   -0.2418610085   -0.0015403880
 H    2.3859826824   -2.3047852894   -0.0043266076
 H    3.3873397148    0.4708209648   -1.6613185813
 H    3.3915527036    0.4785665323    1.6675567902
units bohr
0 2
}

basis {

assign 6-31g_2dfp_

[ 6-31g_2dfp_ ]

spherical

!----------------------------------------------------------------------
! Basis Set Exchange
! Version v0.8.13
! https://www.basissetexchange.org
!----------------------------------------------------------------------
!   Basis set: 6-31G(2df,p)
! Description: 6-31G(2df,p)
!        Role: orbital
!     Version: 0  (Data from the original Basis Set Exchange)
!----------------------------------------------------------------------

****
H     0
S    3   1.00
     18.7311370              0.03349460
      2.8253937              0.23472695
      0.6401217              0.81375733
S    1   1.00
      0.1612778              1.00000000
P    1   1.00
      1.5000000              1.0000000
P    1   1.00
      0.3750000              1.0000000
****
B     0
S    6   1.00
   2068.8823000              0.0018663
    310.6495700              0.0142515
     70.6830330              0.0695516
     19.8610800              0.2325729
      6.2993048              0.4670787
      2.1270270              0.3634314
SP   3   1.00
      4.7279710             -0.1303938              0.0745976
      1.1903377             -0.1307889              0.3078467
      0.3594117              1.1309444              0.7434568
SP   1   1.00
      0.1267512              1.0000000              1.0000000
D    1   1.00
      0.8020000              1.0000000
D    1   1.00
      0.2005000              1.0000000
F    1   1.00
      0.5000000              1.0000000
****
C     0
S    6   1.00
   3047.5249000              0.0018347
    457.3695100              0.0140373
    103.9486900              0.0688426
     29.2101550              0.2321844
      9.2866630              0.4679413
      3.1639270              0.3623120
SP   3   1.00
      7.8682724             -0.1193324              0.0689991
      1.8812885             -0.1608542              0.3164240
      0.5442493              1.1434564              0.7443083
SP   1   1.00
      0.1687144              1.0000000              1.0000000
D    1   1.00
      1.2520000              1.0000000
D    1   1.00
      0.3130000              1.0000000
F    1   1.00
      0.8000000              1.0000000
****
N     0
S    6   1.00
   4173.5110000              0.0018348
    627.4579000              0.0139950
    142.9021000              0.0685870
     40.2343300              0.2322410
     12.8202100              0.4690700
      4.3904370              0.3604550
SP   3   1.00
     11.6263580             -0.1149610              0.0675800
      2.7162800             -0.1691180              0.3239070
      0.7722180              1.1458520              0.7408950
SP   1   1.00
      0.2120313              1.0000000              1.0000000
D    1   1.00
      1.8260000              1.0000000
D    1   1.00
      0.4565000              1.0000000
F    1   1.00
      1.0000000              1.0000000
****
O     0
S    6   1.00
   5484.6717000              0.0018311
    825.2349500              0.0139501
    188.0469600              0.0684451
     52.9645000              0.2327143
     16.8975700              0.4701930
      5.7996353              0.3585209
SP   3   1.00
     15.5396160             -0.1107775              0.0708743
      3.5999336             -0.1480263              0.3397528
      1.0137618              1.1307670              0.7271586
SP   1   1.00
      0.2700058              1.0000000              1.0000000
D    1   1.00
      2.5840000              1.0000000
D    1   1.00
      0.6460000              1.0000000
F    1   1.00
      1.4000000              1.0000000
****
F     0
S    6   1.00
   7001.7130900              0.0018196169
   1051.3660900              0.0139160796
    239.2856900              0.0684053245
     67.3974453              0.233185760
     21.5199573              0.471267439
      7.40310130             0.356618546
SP   3   1.00
     20.8479528             -0.108506975            0.0716287243
      4.80830834            -0.146451658            0.3459121030
      1.34406986             1.128688580            0.7224699570
SP   1   1.00
      0.358151393            1.0000000              1.0000000
D    1   1.00
      3.5000000              1.0000000
D    1   1.00
      0.8750000              1.0000000
F    1   1.00
      1.8500000              1.0000000
****
Al     0
S    6   1.00
  13983.1000000              0.00194267
   2098.7500000              0.0148599
    477.7050000              0.0728494
    134.3600000              0.2468300
     42.8709000              0.4872580
     14.5189000              0.3234960
SP   6   1.00
    239.6680000             -0.00292619             0.00460285
     57.4419000             -0.0374080              0.0331990
     18.2859000             -0.1144870              0.1362820
      6.5991400              0.1156350              0.3304760
      2.4904900              0.6125950              0.4491460
      0.9445400              0.3937990              0.2657040
SP   3   1.00
      1.2779000             -0.2276060             -0.0175130
      0.3975900              0.00144583             0.2445330
      0.1600950              1.0927900              0.8049340
SP   1   1.00
      0.0556577              1.0000000              1.0000000
D    1   1.00
      0.6500000              1.0000000
D    1   1.00
      0.1625000              1.0000000
F    1   1.00
      0.2500000              1.0000000
****
Si     0
S    6   1.00
  16115.9000000              0.00195948
   2425.5800000              0.01492880
    553.8670000              0.07284780
    156.3400000              0.24613000
     50.0683000              0.48591400
     17.0178000              0.32500200
SP   6   1.00
    292.7180000             -0.00278094             0.00443826
     69.8731000             -0.03571460             0.03266790
     22.3363000             -0.11498500             0.13472100
      8.1503900              0.09356340             0.32867800
      3.1345800              0.60301700             0.44964000
      1.2254300              0.41895900             0.26137200
SP   3   1.00
      1.7273800             -0.24463000            -0.01779510
      0.5729220              0.00431572             0.25353900
      0.2221920              1.09818000             0.80066900
SP   1   1.00
      0.0778369              1.00000000             1.00000000
D    1   1.00
      0.9000000              1.0000000
D    1   1.00
      0.2250000              1.0000000
F    1   1.00
      0.3200000              1.0000000
****
P     0
S    6   1.00
  19413.3000000              0.0018516
   2909.4200000              0.0142062
    661.3640000              0.0699995
    185.7590000              0.2400790
     59.1943000              0.4847620
     20.0310000              0.3352000
SP   6   1.00
    339.4780000             -0.00278217             0.00456462
     81.0101000             -0.0360499              0.03369360
     25.8780000             -0.1166310              0.13975500
      9.4522100              0.0968328              0.33936200
      3.6656600              0.6144180              0.45092100
      1.4674600              0.4037980              0.23858600
SP   3   1.00
      2.1562300             -0.2529230             -0.01776530
      0.7489970              0.0328517              0.27405800
      0.2831450              1.0812500              0.78542100
SP   1   1.00
      0.0998317              1.0000000              1.00000000
D    1   1.00
      1.1000000              1.0000000
D    1   1.00
      0.2750000              1.0000000
F    1   1.00
      0.4500000              1.0000000
****
S     0
S    6   1.00
  21917.1000000              0.0018690
   3301.4900000              0.0142300
    754.1460000              0.0696960
    212.7110000              0.2384870
     67.9896000              0.4833070
     23.0515000              0.3380740
SP   6   1.00
    423.7350000             -0.0023767              0.0040610
    100.7100000             -0.0316930              0.0306810
     32.1599000             -0.1133170              0.1304520
     11.8079000              0.0560900              0.3272050
      4.6311000              0.5922550              0.4528510
      1.8702500              0.4550060              0.2560420
SP   3   1.00
      2.6158400             -0.2503740             -0.0145110
      0.9221670              0.0669570              0.3102630
      0.3412870              1.0545100              0.7544830
SP   1   1.00
      0.1171670              1.0000000              1.0000000
D    1   1.00
      1.3000000              1.0000000
D    1   1.00
      0.3250000              1.0000000
F    1   1.00
      0.5500000              1.0000000
****
Cl     0
S    6   1.00
  25180.1000000              0.0018330
   3780.3500000              0.0140340
    860.4740000              0.0690970
    242.1450000              0.2374520
     77.3349000              0.4830340
     26.2470000              0.3398560
SP   6   1.00
    491.7650000             -0.0022974              0.0039894
    116.9840000             -0.0307140              0.0303180
     37.4153000             -0.1125280              0.1298800
     13.7834000              0.0450160              0.3279510
      5.4521500              0.5893530              0.4535270
      2.2258800              0.4652060              0.2521540
SP   3   1.00
      3.1864900             -0.2518300             -0.0142990
      1.1442700              0.0615890              0.3235720
      0.4203770              1.0601800              0.7435070
SP   1   1.00
      0.1426570              1.0000000              1.0000000
D    1   1.00
      1.5000000              1.0000000
D    1   1.00
      0.3750000              1.0000000
F    1   1.00
      0.7000000              1.0000000
****
}

set {
reference uhf
freeze_core true
e_convergence 10
d_convergence 10
dft_spherical_points 1202
dft_radial_points 99
}

e = energy('b3lyp')

print_out('Grab this energy {0}'.format(e))
--------------------------------------------------------------------------

    Molecular point group: c1

    Geometry (in Bohr), charge = 0, multiplicity = 2:

       Center              X                  Y                   Z               Mass
    ------------   -----------------  -----------------  -----------------  -----------------
         C           -0.261040104515     0.804107027713     0.000006242921    12.000000000000
         O           -2.191222471815    -0.336511239187     0.000580536821    15.994914619570
         C            2.412177433285    -0.241759824687    -0.001061301479    12.000000000000
         H            2.385380018285    -2.304684105587    -0.003847521079     1.007825032230
         H            3.386737050685     0.470922148613    -1.660839494779     1.007825032230
         H            3.390950039485     0.478667716113     1.668035876721     1.007825032230

  Charge       = 0
  Multiplicity = 2
  Basis Set: ANONYMOUSEB6D7A4F
    Blend: 6-31G_2DFP_
  Basis Set: (ANONYMOUSEB6D7A4F AUX)
    Blend: DEF2-UNIVERSAL-JKFIT

    Orbital Energies [Eh]
    ---------------------

    Alpha Occupied:

       1A    -19.186910     2A    -10.271573     3A    -10.210328
       4A     -1.081398     5A     -0.761852     6A     -0.543788
       7A     -0.466565     8A     -0.457296     9A     -0.456369
      10A     -0.387716    11A     -0.386208    12A     -0.191973

    Alpha Virtual:

      13A     -0.018743    14A      0.091816    15A      0.136977
      16A      0.141399    17A      0.217322    18A      0.268149
      19A      0.427997    20A      0.431704    21A      0.443626
      22A      0.493651    23A      0.506353    24A      0.530435
      25A      0.563313    26A      0.577655    27A      0.608538
      28A      0.615880    29A      0.644010    30A      0.717736
      31A      0.766183    32A      0.785371    33A      0.832181
      34A      0.917251    35A      0.927086    36A      0.935710
      37A      1.023314    38A      1.085339    39A      1.106845
      40A      1.153437    41A      1.221826    42A      1.305907
      43A      1.316336    44A      1.327020    45A      1.404021
      46A      1.408485    47A      1.468378    48A      1.559751
      49A      1.630639    50A      1.653960    51A      1.721373
      52A      1.813435    53A      1.834391    54A      1.900420
      55A      2.065685    56A      2.166598    57A      2.495795
      58A      2.680296    59A      2.743678    60A      2.784313
      61A      2.842339    62A      2.894668    63A      2.973288
      64A      3.031319    65A      3.058276    66A      3.104909
      67A      3.114331    68A      3.182217    69A      3.313972
      70A      3.369868    71A      3.393070    72A      3.440410
      73A      3.465418    74A      3.485736    75A      3.571967
      76A      3.739696    77A      3.760467    78A      3.941701
      79A      3.982465    80A      4.055219    81A      4.109818
      82A      4.119086    83A      4.188229    84A      4.391283
      85A      4.434387    86A      4.449573    87A      4.530667
      88A      4.921539    89A      5.037092    90A      5.042216
      91A      5.196795    92A      5.209552    93A      5.473885
      94A      5.482422    95A      5.826501    96A      5.930696
      97A      6.104041    98A      6.770629    99A      6.772813
     100A      7.070794   101A      7.135002   102A      7.529991

    Beta Occupied:

       1A    -19.178852     2A    -10.261518     3A    -10.206939
       4A     -1.065489     5A     -0.750058     6A     -0.524060
       7A     -0.451884     8A     -0.446871     9A     -0.438770
      10A     -0.382529    11A     -0.348014

    Beta Virtual:

      12A     -0.052559    13A     -0.002463    14A      0.094534
      15A      0.142627    16A      0.144512    17A      0.227834
      18A      0.273833    19A      0.433623    20A      0.435390
      21A      0.465478    22A      0.500342    23A      0.527760
      24A      0.539424    25A      0.569711    26A      0.581858
      27A      0.623050    28A      0.627088    29A      0.649714
      30A      0.739720    31A      0.777332    32A      0.795343
      33A      0.832955    34A      0.922093    35A      0.943482
      36A      0.950988    37A      1.027509    38A      1.091538
      39A      1.108909    40A      1.159642    41A      1.231096
      42A      1.311446    43A      1.319135    44A      1.333814
      45A      1.413785    46A      1.414588    47A      1.480660
      48A      1.570939    49A      1.643958    50A      1.668329
      51A      1.727607    52A      1.816639    53A      1.848444
      54A      1.907067    55A      2.072397    56A      2.187988
      57A      2.508474    58A      2.694582    59A      2.758132
      60A      2.805410    61A      2.857716    62A      2.896307
      63A      2.982728    64A      3.048164    65A      3.066911
      66A      3.122286    67A      3.123996    68A      3.216922
      69A      3.357572    70A      3.381380    71A      3.399446
      72A      3.448742    73A      3.481034    74A      3.508888
      75A      3.585088    76A      3.765414    77A      3.769917
      78A      3.950405    79A      3.991774    80A      4.071596
      81A      4.121690    82A      4.124531    83A      4.200075
      84A      4.393613    85A      4.440558    86A      4.453686
      87A      4.541505    88A      4.925451    89A      5.054565
      90A      5.060203    91A      5.199467    92A      5.214738
      93A      5.486515    94A      5.496303    95A      5.839732
      96A      5.936281    97A      6.127217    98A      6.799881
      99A      6.802405   100A      7.075087   101A      7.164345
     102A      7.541645

    Final Occupation by Irrep:
              A
    DOCC [    11 ]
    SOCC [     1 ]

  @DF-UKS Final Energy:  -153.18840949356053

   => Energetics <=

    Nuclear Repulsion Energy =             62.7814307756660313
    One-Electron Energy =                -331.5624295537088528
    Two-Electron Energy =                 132.1732673010155565
    DFT Exchange-Correlation Energy =     -16.5806780165332484
    Empirical Dispersion Energy =           0.0000000000000000
    VV10 Nonlocal Energy =                  0.0000000000000000
    Total Energy =                       -153.1884094935605276

  UHF NO Occupations:
  HONO-2 :   10  A 1.9997830
  HONO-1 :   11  A 1.9992034
  HONO-0 :   12  A 1.0000000
  LUNO+0 :   13  A 0.0007966
  LUNO+1 :   14  A 0.0002170
  LUNO+2 :   15  A 0.0001799
  LUNO+3 :   16  A 0.0000615

Computation Completed

Properties will be evaluated at   0.000000,   0.000000,   0.000000 [a0]

Properties computed using the SCF density matrix

  Nuclear Dipole Moment: [e a0]
     X:     4.5401      Y:    -0.6731      Z:     0.0017

  Electronic Dipole Moment: [e a0]
     X:    -3.6096      Y:     0.6242      Z:    -0.0026

  Dipole Moment: [e a0]
     X:     0.9305      Y:    -0.0489      Z:    -0.0010     Total:     0.9318

  Dipole Moment: [D]
     X:     2.3650      Y:    -0.1243      Z:    -0.0025     Total:     2.3683

*** tstop() called on n033 at Thu Nov  4 14:47:06 2021
Module time:
	user time   =      62.50 seconds =       1.04 minutes
	system time =       0.42 seconds =       0.01 minutes
	total time  =         63 seconds =       1.05 minutes
Total time:
	user time   =      62.50 seconds =       1.04 minutes
	system time =       0.42 seconds =       0.01 minutes
	total time  =         63 seconds =       1.05 minutes
Grab this energy -153.18840949356053
    Psi4 stopped on: Thursday, 04 November 2021 02:47PM
    Psi4 wall time for execution: 0:01:02.97

*** Psi4 exiting successfully. Buy a developer a beer!
