                               Psi4 1.4a2.dev629

  ==> Input File <==

--------------------------------------------------------------------------
import os
memory 14 GB

molecule {
 C   -0.2579044312    0.8029691391   -0.0010402772
 O   -2.1911546338   -0.3325194086   -0.0040794227
 C    2.4088863580   -0.2469958884    0.0008040207
 H    2.3831905600   -2.3038440774    0.0033296143
 H    3.3840732243    0.4694516839   -1.6683933357
 H    3.3975469050    0.4653041991    1.6693794006
units bohr
0 2
}

basis {

assign 6-31g_2dfp_

[ 6-31g_2dfp_ ]

spherical

!----------------------------------------------------------------------
! Basis Set Exchange
! Version v0.8.13
! https://www.basissetexchange.org
!----------------------------------------------------------------------
!   Basis set: 6-31G(2df,p)
! Description: 6-31G(2df,p)
!        Role: orbital
!     Version: 0  (Data from the original Basis Set Exchange)
!----------------------------------------------------------------------

****
H     0
S    3   1.00
     18.7311370              0.03349460
      2.8253937              0.23472695
      0.6401217              0.81375733
S    1   1.00
      0.1612778              1.00000000
P    1   1.00
      1.5000000              1.0000000
P    1   1.00
      0.3750000              1.0000000
****
B     0
S    6   1.00
   2068.8823000              0.0018663
    310.6495700              0.0142515
     70.6830330              0.0695516
     19.8610800              0.2325729
      6.2993048              0.4670787
      2.1270270              0.3634314
SP   3   1.00
      4.7279710             -0.1303938              0.0745976
      1.1903377             -0.1307889              0.3078467
      0.3594117              1.1309444              0.7434568
SP   1   1.00
      0.1267512              1.0000000              1.0000000
D    1   1.00
      0.8020000              1.0000000
D    1   1.00
      0.2005000              1.0000000
F    1   1.00
      0.5000000              1.0000000
****
C     0
S    6   1.00
   3047.5249000              0.0018347
    457.3695100              0.0140373
    103.9486900              0.0688426
     29.2101550              0.2321844
      9.2866630              0.4679413
      3.1639270              0.3623120
SP   3   1.00
      7.8682724             -0.1193324              0.0689991
      1.8812885             -0.1608542              0.3164240
      0.5442493              1.1434564              0.7443083
SP   1   1.00
      0.1687144              1.0000000              1.0000000
D    1   1.00
      1.2520000              1.0000000
D    1   1.00
      0.3130000              1.0000000
F    1   1.00
      0.8000000              1.0000000
****
N     0
S    6   1.00
   4173.5110000              0.0018348
    627.4579000              0.0139950
    142.9021000              0.0685870
     40.2343300              0.2322410
     12.8202100              0.4690700
      4.3904370              0.3604550
SP   3   1.00
     11.6263580             -0.1149610              0.0675800
      2.7162800             -0.1691180              0.3239070
      0.7722180              1.1458520              0.7408950
SP   1   1.00
      0.2120313              1.0000000              1.0000000
D    1   1.00
      1.8260000              1.0000000
D    1   1.00
      0.4565000              1.0000000
F    1   1.00
      1.0000000              1.0000000
****
O     0
S    6   1.00
   5484.6717000              0.0018311
    825.2349500              0.0139501
    188.0469600              0.0684451
     52.9645000              0.2327143
     16.8975700              0.4701930
      5.7996353              0.3585209
SP   3   1.00
     15.5396160             -0.1107775              0.0708743
      3.5999336             -0.1480263              0.3397528
      1.0137618              1.1307670              0.7271586
SP   1   1.00
      0.2700058              1.0000000              1.0000000
D    1   1.00
      2.5840000              1.0000000
D    1   1.00
      0.6460000              1.0000000
F    1   1.00
      1.4000000              1.0000000
****
F     0
S    6   1.00
   7001.7130900              0.0018196169
   1051.3660900              0.0139160796
    239.2856900              0.0684053245
     67.3974453              0.233185760
     21.5199573              0.471267439
      7.40310130             0.356618546
SP   3   1.00
     20.8479528             -0.108506975            0.0716287243
      4.80830834            -0.146451658            0.3459121030
      1.34406986             1.128688580            0.7224699570
SP   1   1.00
      0.358151393            1.0000000              1.0000000
D    1   1.00
      3.5000000              1.0000000
D    1   1.00
      0.8750000              1.0000000
F    1   1.00
      1.8500000              1.0000000
****
Al     0
S    6   1.00
  13983.1000000              0.00194267
   2098.7500000              0.0148599
    477.7050000              0.0728494
    134.3600000              0.2468300
     42.8709000              0.4872580
     14.5189000              0.3234960
SP   6   1.00
    239.6680000             -0.00292619             0.00460285
     57.4419000             -0.0374080              0.0331990
     18.2859000             -0.1144870              0.1362820
      6.5991400              0.1156350              0.3304760
      2.4904900              0.6125950              0.4491460
      0.9445400              0.3937990              0.2657040
SP   3   1.00
      1.2779000             -0.2276060             -0.0175130
      0.3975900              0.00144583             0.2445330
      0.1600950              1.0927900              0.8049340
SP   1   1.00
      0.0556577              1.0000000              1.0000000
D    1   1.00
      0.6500000              1.0000000
D    1   1.00
      0.1625000              1.0000000
F    1   1.00
      0.2500000              1.0000000
****
Si     0
S    6   1.00
  16115.9000000              0.00195948
   2425.5800000              0.01492880
    553.8670000              0.07284780
    156.3400000              0.24613000
     50.0683000              0.48591400
     17.0178000              0.32500200
SP   6   1.00
    292.7180000             -0.00278094             0.00443826
     69.8731000             -0.03571460             0.03266790
     22.3363000             -0.11498500             0.13472100
      8.1503900              0.09356340             0.32867800
      3.1345800              0.60301700             0.44964000
      1.2254300              0.41895900             0.26137200
SP   3   1.00
      1.7273800             -0.24463000            -0.01779510
      0.5729220              0.00431572             0.25353900
      0.2221920              1.09818000             0.80066900
SP   1   1.00
      0.0778369              1.00000000             1.00000000
D    1   1.00
      0.9000000              1.0000000
D    1   1.00
      0.2250000              1.0000000
F    1   1.00
      0.3200000              1.0000000
****
P     0
S    6   1.00
  19413.3000000              0.0018516
   2909.4200000              0.0142062
    661.3640000              0.0699995
    185.7590000              0.2400790
     59.1943000              0.4847620
     20.0310000              0.3352000
SP   6   1.00
    339.4780000             -0.00278217             0.00456462
     81.0101000             -0.0360499              0.03369360
     25.8780000             -0.1166310              0.13975500
      9.4522100              0.0968328              0.33936200
      3.6656600              0.6144180              0.45092100
      1.4674600              0.4037980              0.23858600
SP   3   1.00
      2.1562300             -0.2529230             -0.01776530
      0.7489970              0.0328517              0.27405800
      0.2831450              1.0812500              0.78542100
SP   1   1.00
      0.0998317              1.0000000              1.00000000
D    1   1.00
      1.1000000              1.0000000
D    1   1.00
      0.2750000              1.0000000
F    1   1.00
      0.4500000              1.0000000
****
S     0
S    6   1.00
  21917.1000000              0.0018690
   3301.4900000              0.0142300
    754.1460000              0.0696960
    212.7110000              0.2384870
     67.9896000              0.4833070
     23.0515000              0.3380740
SP   6   1.00
    423.7350000             -0.0023767              0.0040610
    100.7100000             -0.0316930              0.0306810
     32.1599000             -0.1133170              0.1304520
     11.8079000              0.0560900              0.3272050
      4.6311000              0.5922550              0.4528510
      1.8702500              0.4550060              0.2560420
SP   3   1.00
      2.6158400             -0.2503740             -0.0145110
      0.9221670              0.0669570              0.3102630
      0.3412870              1.0545100              0.7544830
SP   1   1.00
      0.1171670              1.0000000              1.0000000
D    1   1.00
      1.3000000              1.0000000
D    1   1.00
      0.3250000              1.0000000
F    1   1.00
      0.5500000              1.0000000
****
Cl     0
S    6   1.00
  25180.1000000              0.0018330
   3780.3500000              0.0140340
    860.4740000              0.0690970
    242.1450000              0.2374520
     77.3349000              0.4830340
     26.2470000              0.3398560
SP   6   1.00
    491.7650000             -0.0022974              0.0039894
    116.9840000             -0.0307140              0.0303180
     37.4153000             -0.1125280              0.1298800
     13.7834000              0.0450160              0.3279510
      5.4521500              0.5893530              0.4535270
      2.2258800              0.4652060              0.2521540
SP   3   1.00
      3.1864900             -0.2518300             -0.0142990
      1.1442700              0.0615890              0.3235720
      0.4203770              1.0601800              0.7435070
SP   1   1.00
      0.1426570              1.0000000              1.0000000
D    1   1.00
      1.5000000              1.0000000
D    1   1.00
      0.3750000              1.0000000
F    1   1.00
      0.7000000              1.0000000
****
}

set {
reference uhf
freeze_core true
e_convergence 10
d_convergence 10
dft_spherical_points 1202
dft_radial_points 99
}

e = energy('b3lyp')

print_out('Grab this energy {0}'.format(e))
--------------------------------------------------------------------------

    Molecular point group: c1

    Geometry (in Bohr), charge = 0, multiplicity = 2:

       Center              X                  Y                   Z               Mass
    ------------   -----------------  -----------------  -----------------  -----------------
         C           -0.257927153204     0.803590777784     0.000441313503    12.000000000000
         O           -2.191177355804    -0.331897769916    -0.002597831997    15.994914619570
         C            2.408863635996    -0.246374249716     0.002285611403    12.000000000000
         H            2.383167837996    -2.303222438716     0.004811205003     1.007825032230
         H            3.384050502296     0.470073322584    -1.666911744997     1.007825032230
         H            3.397524182996     0.465925837784     1.670860991303     1.007825032230

  Charge       = 0
  Multiplicity = 2
  Basis Set: ANONYMOUSCEFA1451
    Blend: 6-31G_2DFP_
  Basis Set: (ANONYMOUSCEFA1451 AUX)
    Blend: DEF2-UNIVERSAL-JKFIT

    Orbital Energies [Eh]
    ---------------------

    Alpha Occupied:

       1A    -19.186803     2A    -10.271426     3A    -10.210435
       4A     -1.081336     5A     -0.762071     6A     -0.543902
       7A     -0.466515     8A     -0.457809     9A     -0.456151
      10A     -0.387409    11A     -0.386027    12A     -0.191919

    Alpha Virtual:

      13A     -0.018805    14A      0.091437    15A      0.137515
      16A      0.140756    17A      0.218109    18A      0.268309
      19A      0.427880    20A      0.432058    21A      0.443662
      22A      0.493302    23A      0.506385    24A      0.530332
      25A      0.562570    26A      0.577696    27A      0.608790
      28A      0.615433    29A      0.644447    30A      0.717751
      31A      0.766142    32A      0.785386    33A      0.831982
      34A      0.917232    35A      0.926905    36A      0.936133
      37A      1.023151    38A      1.086331    39A      1.106592
      40A      1.153388    41A      1.222700    42A      1.306465
      43A      1.316968    44A      1.327863    45A      1.402945
      46A      1.407088    47A      1.468506    48A      1.560131
      49A      1.630938    50A      1.653868    51A      1.719891
      52A      1.811831    53A      1.835466    54A      1.901881
      55A      2.065207    56A      2.167186    57A      2.495791
      58A      2.680168    59A      2.744445    60A      2.784814
      61A      2.840016    62A      2.894738    63A      2.974552
      64A      3.031505    65A      3.058582    66A      3.104735
      67A      3.115436    68A      3.181192    69A      3.314787
      70A      3.368443    71A      3.393774    72A      3.441306
      73A      3.465634    74A      3.485218    75A      3.571047
      76A      3.740002    77A      3.764094    78A      3.943171
      79A      3.982401    80A      4.055836    81A      4.109882
      82A      4.120150    83A      4.189528    84A      4.387448
      85A      4.435114    86A      4.448100    87A      4.534502
      88A      4.918335    89A      5.037112    90A      5.042308
      91A      5.192809    92A      5.212342    93A      5.474177
      94A      5.482472    95A      5.826843    96A      5.930884
      97A      6.105142    98A      6.770795    99A      6.772962
     100A      7.071332   101A      7.135217   102A      7.530221

    Beta Occupied:

       1A    -19.178737     2A    -10.261357     3A    -10.207064
       4A     -1.065408     5A     -0.750264     6A     -0.524156
       7A     -0.451705     8A     -0.447258     9A     -0.438817
      10A     -0.382245    11A     -0.347847

    Beta Virtual:

      12A     -0.052359    13A     -0.002538    14A      0.094077
      15A      0.143205    16A      0.143934    17A      0.228480
      18A      0.273993    19A      0.433898    20A      0.435054
      21A      0.465837    22A      0.499986    23A      0.527717
      24A      0.539206    25A      0.568868    26A      0.581928
      27A      0.622709    28A      0.627441    29A      0.650215
      30A      0.739738    31A      0.777277    32A      0.795375
      33A      0.832759    34A      0.922082    35A      0.943611
      36A      0.951084    37A      1.027344    38A      1.092371
      39A      1.108747    40A      1.159586    41A      1.231968
      42A      1.311955    43A      1.319790    44A      1.334653
      45A      1.412586    46A      1.413331    47A      1.480861
      48A      1.571229    49A      1.644297    50A      1.668245
      51A      1.726122    52A      1.814994    53A      1.849588
      54A      1.908582    55A      2.071920    56A      2.188614
      57A      2.508472    58A      2.694433    59A      2.759003
      60A      2.805898    61A      2.855294    62A      2.896381
      63A      2.984017    64A      3.048164    65A      3.067293
      66A      3.122799    67A      3.124571    68A      3.215915
      69A      3.358458    70A      3.379879    71A      3.399923
      72A      3.449216    73A      3.481700    74A      3.508290
      75A      3.584430    76A      3.765720    77A      3.773450
      78A      3.951872    79A      3.991670    80A      4.072139
      81A      4.122897    82A      4.123854    83A      4.201901
      84A      4.389737    85A      4.441291    86A      4.452327
      87A      4.545429    88A      4.922166    89A      5.054659
      90A      5.060313    91A      5.194935    92A      5.218072
      93A      5.486822    94A      5.496398    95A      5.840094
      96A      5.936477    97A      6.128343    98A      6.800076
      99A      6.802584   100A      7.075634   101A      7.164596
     102A      7.541887

    Final Occupation by Irrep:
              A
    DOCC [    11 ]
    SOCC [     1 ]

  @DF-UKS Final Energy:  -153.18842545937684

   => Energetics <=

    Nuclear Repulsion Energy =             62.8023171006470733
    One-Electron Energy =                -331.6045312711838733
    Two-Electron Energy =                 132.1944905364923954
    DFT Exchange-Correlation Energy =     -16.5807018253324401
    Empirical Dispersion Energy =           0.0000000000000000
    VV10 Nonlocal Energy =                  0.0000000000000000
    Total Energy =                       -153.1884254593768446

  UHF NO Occupations:
  HONO-2 :   10  A 1.9997862
  HONO-1 :   11  A 1.9992019
  HONO-0 :   12  A 1.0000000
  LUNO+0 :   13  A 0.0007981
  LUNO+1 :   14  A 0.0002138
  LUNO+2 :   15  A 0.0001803
  LUNO+3 :   16  A 0.0000615

Computation Completed

Properties will be evaluated at   0.000000,   0.000000,   0.000000 [a0]

Properties computed using the SCF density matrix

  Nuclear Dipole Moment: [e a0]
     X:     4.5409      Y:    -0.6791      Z:     0.0043

  Electronic Dipole Moment: [e a0]
     X:    -3.6093      Y:     0.6274      Z:    -0.0034

  Dipole Moment: [e a0]
     X:     0.9316      Y:    -0.0517      Z:     0.0010     Total:     0.9331

  Dipole Moment: [D]
     X:     2.3680      Y:    -0.1315      Z:     0.0025     Total:     2.3717

*** tstop() called on n058 at Tue Mar 15 10:34:39 2022
Module time:
	user time   =      50.84 seconds =       0.85 minutes
	system time =       0.56 seconds =       0.01 minutes
	total time  =         52 seconds =       0.87 minutes
Total time:
	user time   =      50.84 seconds =       0.85 minutes
	system time =       0.56 seconds =       0.01 minutes
	total time  =         52 seconds =       0.87 minutes
Grab this energy -153.18842545937684
    Psi4 stopped on: Tuesday, 15 March 2022 10:34AM
    Psi4 wall time for execution: 0:00:51.43

*** Psi4 exiting successfully. Buy a developer a beer!
