                               Psi4 1.4a2.dev629

  ==> Input File <==

--------------------------------------------------------------------------
import os
memory 14 GB

molecule {
 C   -0.2577042183    0.8037211977    0.0000000000
 O   -2.1911738500   -0.3326127305    0.0000000000
 C    2.4084943074   -0.2498064459   -0.0000000000
 H    2.3832458286   -2.3035217760    0.0000000000
 H    3.3908879573    0.4682927013   -1.6686285489
 H    3.3908879573    0.4682927013    1.6686285489
units bohr
0 2
}

basis {

assign 6-31g_2dfp_

[ 6-31g_2dfp_ ]

spherical

!----------------------------------------------------------------------
! Basis Set Exchange
! Version v0.8.13
! https://www.basissetexchange.org
!----------------------------------------------------------------------
!   Basis set: 6-31G(2df,p)
! Description: 6-31G(2df,p)
!        Role: orbital
!     Version: 0  (Data from the original Basis Set Exchange)
!----------------------------------------------------------------------

****
H     0
S    3   1.00
     18.7311370              0.03349460
      2.8253937              0.23472695
      0.6401217              0.81375733
S    1   1.00
      0.1612778              1.00000000
P    1   1.00
      1.5000000              1.0000000
P    1   1.00
      0.3750000              1.0000000
****
B     0
S    6   1.00
   2068.8823000              0.0018663
    310.6495700              0.0142515
     70.6830330              0.0695516
     19.8610800              0.2325729
      6.2993048              0.4670787
      2.1270270              0.3634314
SP   3   1.00
      4.7279710             -0.1303938              0.0745976
      1.1903377             -0.1307889              0.3078467
      0.3594117              1.1309444              0.7434568
SP   1   1.00
      0.1267512              1.0000000              1.0000000
D    1   1.00
      0.8020000              1.0000000
D    1   1.00
      0.2005000              1.0000000
F    1   1.00
      0.5000000              1.0000000
****
C     0
S    6   1.00
   3047.5249000              0.0018347
    457.3695100              0.0140373
    103.9486900              0.0688426
     29.2101550              0.2321844
      9.2866630              0.4679413
      3.1639270              0.3623120
SP   3   1.00
      7.8682724             -0.1193324              0.0689991
      1.8812885             -0.1608542              0.3164240
      0.5442493              1.1434564              0.7443083
SP   1   1.00
      0.1687144              1.0000000              1.0000000
D    1   1.00
      1.2520000              1.0000000
D    1   1.00
      0.3130000              1.0000000
F    1   1.00
      0.8000000              1.0000000
****
N     0
S    6   1.00
   4173.5110000              0.0018348
    627.4579000              0.0139950
    142.9021000              0.0685870
     40.2343300              0.2322410
     12.8202100              0.4690700
      4.3904370              0.3604550
SP   3   1.00
     11.6263580             -0.1149610              0.0675800
      2.7162800             -0.1691180              0.3239070
      0.7722180              1.1458520              0.7408950
SP   1   1.00
      0.2120313              1.0000000              1.0000000
D    1   1.00
      1.8260000              1.0000000
D    1   1.00
      0.4565000              1.0000000
F    1   1.00
      1.0000000              1.0000000
****
O     0
S    6   1.00
   5484.6717000              0.0018311
    825.2349500              0.0139501
    188.0469600              0.0684451
     52.9645000              0.2327143
     16.8975700              0.4701930
      5.7996353              0.3585209
SP   3   1.00
     15.5396160             -0.1107775              0.0708743
      3.5999336             -0.1480263              0.3397528
      1.0137618              1.1307670              0.7271586
SP   1   1.00
      0.2700058              1.0000000              1.0000000
D    1   1.00
      2.5840000              1.0000000
D    1   1.00
      0.6460000              1.0000000
F    1   1.00
      1.4000000              1.0000000
****
F     0
S    6   1.00
   7001.7130900              0.0018196169
   1051.3660900              0.0139160796
    239.2856900              0.0684053245
     67.3974453              0.233185760
     21.5199573              0.471267439
      7.40310130             0.356618546
SP   3   1.00
     20.8479528             -0.108506975            0.0716287243
      4.80830834            -0.146451658            0.3459121030
      1.34406986             1.128688580            0.7224699570
SP   1   1.00
      0.358151393            1.0000000              1.0000000
D    1   1.00
      3.5000000              1.0000000
D    1   1.00
      0.8750000              1.0000000
F    1   1.00
      1.8500000              1.0000000
****
Al     0
S    6   1.00
  13983.1000000              0.00194267
   2098.7500000              0.0148599
    477.7050000              0.0728494
    134.3600000              0.2468300
     42.8709000              0.4872580
     14.5189000              0.3234960
SP   6   1.00
    239.6680000             -0.00292619             0.00460285
     57.4419000             -0.0374080              0.0331990
     18.2859000             -0.1144870              0.1362820
      6.5991400              0.1156350              0.3304760
      2.4904900              0.6125950              0.4491460
      0.9445400              0.3937990              0.2657040
SP   3   1.00
      1.2779000             -0.2276060             -0.0175130
      0.3975900              0.00144583             0.2445330
      0.1600950              1.0927900              0.8049340
SP   1   1.00
      0.0556577              1.0000000              1.0000000
D    1   1.00
      0.6500000              1.0000000
D    1   1.00
      0.1625000              1.0000000
F    1   1.00
      0.2500000              1.0000000
****
Si     0
S    6   1.00
  16115.9000000              0.00195948
   2425.5800000              0.01492880
    553.8670000              0.07284780
    156.3400000              0.24613000
     50.0683000              0.48591400
     17.0178000              0.32500200
SP   6   1.00
    292.7180000             -0.00278094             0.00443826
     69.8731000             -0.03571460             0.03266790
     22.3363000             -0.11498500             0.13472100
      8.1503900              0.09356340             0.32867800
      3.1345800              0.60301700             0.44964000
      1.2254300              0.41895900             0.26137200
SP   3   1.00
      1.7273800             -0.24463000            -0.01779510
      0.5729220              0.00431572             0.25353900
      0.2221920              1.09818000             0.80066900
SP   1   1.00
      0.0778369              1.00000000             1.00000000
D    1   1.00
      0.9000000              1.0000000
D    1   1.00
      0.2250000              1.0000000
F    1   1.00
      0.3200000              1.0000000
****
P     0
S    6   1.00
  19413.3000000              0.0018516
   2909.4200000              0.0142062
    661.3640000              0.0699995
    185.7590000              0.2400790
     59.1943000              0.4847620
     20.0310000              0.3352000
SP   6   1.00
    339.4780000             -0.00278217             0.00456462
     81.0101000             -0.0360499              0.03369360
     25.8780000             -0.1166310              0.13975500
      9.4522100              0.0968328              0.33936200
      3.6656600              0.6144180              0.45092100
      1.4674600              0.4037980              0.23858600
SP   3   1.00
      2.1562300             -0.2529230             -0.01776530
      0.7489970              0.0328517              0.27405800
      0.2831450              1.0812500              0.78542100
SP   1   1.00
      0.0998317              1.0000000              1.00000000
D    1   1.00
      1.1000000              1.0000000
D    1   1.00
      0.2750000              1.0000000
F    1   1.00
      0.4500000              1.0000000
****
S     0
S    6   1.00
  21917.1000000              0.0018690
   3301.4900000              0.0142300
    754.1460000              0.0696960
    212.7110000              0.2384870
     67.9896000              0.4833070
     23.0515000              0.3380740
SP   6   1.00
    423.7350000             -0.0023767              0.0040610
    100.7100000             -0.0316930              0.0306810
     32.1599000             -0.1133170              0.1304520
     11.8079000              0.0560900              0.3272050
      4.6311000              0.5922550              0.4528510
      1.8702500              0.4550060              0.2560420
SP   3   1.00
      2.6158400             -0.2503740             -0.0145110
      0.9221670              0.0669570              0.3102630
      0.3412870              1.0545100              0.7544830
SP   1   1.00
      0.1171670              1.0000000              1.0000000
D    1   1.00
      1.3000000              1.0000000
D    1   1.00
      0.3250000              1.0000000
F    1   1.00
      0.5500000              1.0000000
****
Cl     0
S    6   1.00
  25180.1000000              0.0018330
   3780.3500000              0.0140340
    860.4740000              0.0690970
    242.1450000              0.2374520
     77.3349000              0.4830340
     26.2470000              0.3398560
SP   6   1.00
    491.7650000             -0.0022974              0.0039894
    116.9840000             -0.0307140              0.0303180
     37.4153000             -0.1125280              0.1298800
     13.7834000              0.0450160              0.3279510
      5.4521500              0.5893530              0.4535270
      2.2258800              0.4652060              0.2521540
SP   3   1.00
      3.1864900             -0.2518300             -0.0142990
      1.1442700              0.0615890              0.3235720
      0.4203770              1.0601800              0.7435070
SP   1   1.00
      0.1426570              1.0000000              1.0000000
D    1   1.00
      1.5000000              1.0000000
D    1   1.00
      0.3750000              1.0000000
F    1   1.00
      0.7000000              1.0000000
****
}

set {
reference uhf
freeze_core true
e_convergence 10
d_convergence 10
dft_spherical_points 1202
dft_radial_points 99
}

e = energy('b3lyp')

print_out('Grab this energy {0}'.format(e))
--------------------------------------------------------------------------

    Molecular point group: cs

    Geometry (in Bohr), charge = 0, multiplicity = 2:

       Center              X                  Y                   Z               Mass
    ------------   -----------------  -----------------  -----------------  -----------------
         C           -0.257671226724     0.804901341798     0.000000000000    12.000000000000
         O           -2.191140858424    -0.331432586402     0.000000000000    15.994914619570
         C            2.408527298976    -0.248626301802     0.000000000000    12.000000000000
         H            2.383278820176    -2.302341631902     0.000000000000     1.007825032230
         H            3.390920948876     0.469472845398    -1.668628548900     1.007825032230
         H            3.390920948876     0.469472845398     1.668628548900     1.007825032230

  Charge       = 0
  Multiplicity = 2
  Basis Set: ANONYMOUS76D2E041
    Blend: 6-31G_2DFP_
  Basis Set: (ANONYMOUS76D2E041 AUX)
    Blend: DEF2-UNIVERSAL-JKFIT

    Orbital Energies [Eh]
    ---------------------

    Alpha Occupied:

       1Ap   -19.186814     2Ap   -10.271494     3Ap   -10.210435
       4Ap    -1.081181     5Ap    -0.762020     6Ap    -0.543901
       7Ap    -0.466559     8Ap    -0.457839     1App   -0.455947
       2App   -0.387218     9Ap    -0.386087    10Ap    -0.192159

    Alpha Virtual:

       3App   -0.018853    11Ap     0.091389    12Ap     0.137928
       4App    0.140454    13Ap     0.217904    14Ap     0.268245
      15Ap     0.427728     5App    0.432254    16Ap     0.443496
       6App    0.493357    17Ap     0.506416    18Ap     0.530572
       7App    0.562476    19Ap     0.577783    20Ap     0.608566
       8App    0.615150    21Ap     0.644568    22Ap     0.717692
       9App    0.766221    23Ap     0.785371    10App    0.831967
      11App    0.917317    24Ap     0.926766    25Ap     0.936208
      12App    1.023195    26Ap     1.086668    27Ap     1.106871
      13App    1.152758    28Ap     1.221407    29Ap     1.306658
      14App    1.316110    30Ap     1.328148    31Ap     1.403745
      15App    1.407375    32Ap     1.468346    33Ap     1.560659
      34Ap     1.630672    16App    1.653761    35Ap     1.720074
      17App    1.811120    36Ap     1.835398    37Ap     1.902581
      18App    2.064897    38Ap     2.166449    39Ap     2.495409
      19App    2.679677    40Ap     2.744181    41Ap     2.784848
      20App    2.840304    21App    2.894321    42Ap     2.974200
      43Ap     3.032559    22App    3.059076    23App    3.105290
      44Ap     3.114541    45Ap     3.181597    24App    3.314645
      46Ap     3.368576    25App    3.393836    26App    3.441425
      27App    3.465145    47Ap     3.484967    48Ap     3.571435
      49Ap     3.739369    50Ap     3.764034    51Ap     3.942120
      28App    3.983205    52Ap     4.055089    53Ap     4.110427
      29App    4.119817    54Ap     4.188998    30App    4.384544
      55Ap     4.435517    31App    4.449858    56Ap     4.535055
      57Ap     4.918600    58Ap     5.037074    32App    5.042226
      33App    5.192276    59Ap     5.213166    60Ap     5.473698
      34App    5.481792    61Ap     5.826794    35App    5.930351
      62Ap     6.104469    63Ap     6.770727    36App    6.772843
      37App    7.071191    64Ap     7.135315    65Ap     7.529922

    Beta Occupied:

       1Ap   -19.178738     2Ap   -10.261430     3Ap   -10.207058
       4Ap    -1.065236     5Ap    -0.750207     6Ap    -0.524127
       1App   -0.451382     7Ap    -0.447703     8Ap    -0.438648
       2App   -0.382062     9Ap    -0.347789

    Beta Virtual:

      10Ap    -0.052595     3App   -0.002583    11Ap     0.094012
       4App    0.143592    12Ap     0.143641    13Ap     0.228287
      14Ap     0.273943     5App    0.434214    15Ap     0.434787
      16Ap     0.465663     6App    0.500029    17Ap     0.527783
      18Ap     0.539414     7App    0.568746    19Ap     0.582020
       8App    0.622450    20Ap     0.627243    21Ap     0.650295
      22Ap     0.739616     9App    0.777350    23Ap     0.795376
      10App    0.832730    11App    0.922169    24Ap     0.943558
      25Ap     0.951091    12App    1.027393    26Ap     1.092724
      27Ap     1.108966    13App    1.158976    28Ap     1.230679
      29Ap     1.312251    14App    1.318868    30Ap     1.334925
      15App    1.412936    31Ap     1.414136    32Ap     1.480749
      33Ap     1.571629    34Ap     1.644059    16App    1.668163
      35Ap     1.726327    17App    1.814250    36Ap     1.849499
      37Ap     1.909289    18App    2.071625    38Ap     2.187879
      39Ap     2.508088    19App    2.693964    40Ap     2.758714
      41Ap     2.805973    20App    2.855548    21App    2.895940
      42Ap     2.983698    43Ap     3.049141    22App    3.067801
      44Ap     3.122944    23App    3.123991    45Ap     3.216308
      24App    3.358332    46Ap     3.380038    25App    3.400041
      26App    3.449191    27App    3.481366    47Ap     3.507918
      48Ap     3.584940    49Ap     3.765046    50Ap     3.773444
      51Ap     3.950802    28App    3.992468    52Ap     4.071439
      29App    4.122549    53Ap     4.124318    54Ap     4.201434
      30App    4.386861    55Ap     4.441712    31App    4.454007
      56Ap     4.545985    57Ap     4.922405    58Ap     5.054655
      32App    5.060259    33App    5.194396    59Ap     5.218908
      60Ap     5.486352    34App    5.495734    61Ap     5.840054
      35App    5.935946    62Ap     6.127686    63Ap     6.800050
      36App    6.802506    37App    7.075498    64Ap     7.164726
      65Ap     7.541599

    Final Occupation by Irrep:
             Ap   App
    DOCC [     9,    2 ]
    SOCC [     1,    0 ]

  @DF-UKS Final Energy:  -153.18841393925274

   => Energetics <=

    Nuclear Repulsion Energy =             62.7949202376297180
    One-Electron Energy =                -331.5905059206522765
    Two-Electron Energy =                 132.1876297193711025
    DFT Exchange-Correlation Energy =     -16.5804579756012700
    Empirical Dispersion Energy =           0.0000000000000000
    VV10 Nonlocal Energy =                  0.0000000000000000
    Total Energy =                       -153.1884139392527402

  UHF NO Occupations:
  HONO-2 :    8 Ap 1.9997857
  HONO-1 :    9 Ap 1.9992009
  HONO-0 :   10 Ap 1.0000000
  LUNO+0 :   11 Ap 0.0007991
  LUNO+1 :   12 Ap 0.0002143
  LUNO+2 :    3App 0.0001799
  LUNO+3 :   13 Ap 0.0000617

Computation Completed

Properties will be evaluated at   0.000000,   0.000000,   0.000000 [a0]

Properties computed using the SCF density matrix

  Nuclear Dipole Moment: [e a0]
     X:     4.5411      Y:    -0.6772      Z:     0.0000

  Electronic Dipole Moment: [e a0]
     X:    -3.6094      Y:     0.6251      Z:     0.0000

  Dipole Moment: [e a0]
     X:     0.9317      Y:    -0.0521      Z:     0.0000     Total:     0.9331

  Dipole Moment: [D]
     X:     2.3681      Y:    -0.1325      Z:     0.0000     Total:     2.3718

*** tstop() called on n051 at Tue Mar 15 10:29:39 2022
Module time:
	user time   =      50.68 seconds =       0.84 minutes
	system time =       0.52 seconds =       0.01 minutes
	total time  =         52 seconds =       0.87 minutes
Total time:
	user time   =      50.68 seconds =       0.84 minutes
	system time =       0.52 seconds =       0.01 minutes
	total time  =         52 seconds =       0.87 minutes
Grab this energy -153.18841393925274
    Psi4 stopped on: Tuesday, 15 March 2022 10:29AM
    Psi4 wall time for execution: 0:00:51.24

*** Psi4 exiting successfully. Buy a developer a beer!
