                               Psi4 1.4a2.dev629

  ==> Input File <==

--------------------------------------------------------------------------
import os
memory 14 GB

molecule {
 C   -0.2579032331    0.8031767567   -0.0009988568
 O   -2.1921673691   -0.3328063305    0.0002768236
 C    2.4105273014   -0.2459975452    0.0025945197
 H    2.3835388274   -2.3026621165   -0.0010167020
 H    3.3901471854    0.4662032356   -1.6602569358
 H    3.3904952701    0.4664516478    1.6594011513
units bohr
0 2
}

basis {

assign 6-31g_2dfp_

[ 6-31g_2dfp_ ]

spherical

!----------------------------------------------------------------------
! Basis Set Exchange
! Version v0.8.13
! https://www.basissetexchange.org
!----------------------------------------------------------------------
!   Basis set: 6-31G(2df,p)
! Description: 6-31G(2df,p)
!        Role: orbital
!     Version: 0  (Data from the original Basis Set Exchange)
!----------------------------------------------------------------------

****
H     0
S    3   1.00
     18.7311370              0.03349460
      2.8253937              0.23472695
      0.6401217              0.81375733
S    1   1.00
      0.1612778              1.00000000
P    1   1.00
      1.5000000              1.0000000
P    1   1.00
      0.3750000              1.0000000
****
B     0
S    6   1.00
   2068.8823000              0.0018663
    310.6495700              0.0142515
     70.6830330              0.0695516
     19.8610800              0.2325729
      6.2993048              0.4670787
      2.1270270              0.3634314
SP   3   1.00
      4.7279710             -0.1303938              0.0745976
      1.1903377             -0.1307889              0.3078467
      0.3594117              1.1309444              0.7434568
SP   1   1.00
      0.1267512              1.0000000              1.0000000
D    1   1.00
      0.8020000              1.0000000
D    1   1.00
      0.2005000              1.0000000
F    1   1.00
      0.5000000              1.0000000
****
C     0
S    6   1.00
   3047.5249000              0.0018347
    457.3695100              0.0140373
    103.9486900              0.0688426
     29.2101550              0.2321844
      9.2866630              0.4679413
      3.1639270              0.3623120
SP   3   1.00
      7.8682724             -0.1193324              0.0689991
      1.8812885             -0.1608542              0.3164240
      0.5442493              1.1434564              0.7443083
SP   1   1.00
      0.1687144              1.0000000              1.0000000
D    1   1.00
      1.2520000              1.0000000
D    1   1.00
      0.3130000              1.0000000
F    1   1.00
      0.8000000              1.0000000
****
N     0
S    6   1.00
   4173.5110000              0.0018348
    627.4579000              0.0139950
    142.9021000              0.0685870
     40.2343300              0.2322410
     12.8202100              0.4690700
      4.3904370              0.3604550
SP   3   1.00
     11.6263580             -0.1149610              0.0675800
      2.7162800             -0.1691180              0.3239070
      0.7722180              1.1458520              0.7408950
SP   1   1.00
      0.2120313              1.0000000              1.0000000
D    1   1.00
      1.8260000              1.0000000
D    1   1.00
      0.4565000              1.0000000
F    1   1.00
      1.0000000              1.0000000
****
O     0
S    6   1.00
   5484.6717000              0.0018311
    825.2349500              0.0139501
    188.0469600              0.0684451
     52.9645000              0.2327143
     16.8975700              0.4701930
      5.7996353              0.3585209
SP   3   1.00
     15.5396160             -0.1107775              0.0708743
      3.5999336             -0.1480263              0.3397528
      1.0137618              1.1307670              0.7271586
SP   1   1.00
      0.2700058              1.0000000              1.0000000
D    1   1.00
      2.5840000              1.0000000
D    1   1.00
      0.6460000              1.0000000
F    1   1.00
      1.4000000              1.0000000
****
F     0
S    6   1.00
   7001.7130900              0.0018196169
   1051.3660900              0.0139160796
    239.2856900              0.0684053245
     67.3974453              0.233185760
     21.5199573              0.471267439
      7.40310130             0.356618546
SP   3   1.00
     20.8479528             -0.108506975            0.0716287243
      4.80830834            -0.146451658            0.3459121030
      1.34406986             1.128688580            0.7224699570
SP   1   1.00
      0.358151393            1.0000000              1.0000000
D    1   1.00
      3.5000000              1.0000000
D    1   1.00
      0.8750000              1.0000000
F    1   1.00
      1.8500000              1.0000000
****
Al     0
S    6   1.00
  13983.1000000              0.00194267
   2098.7500000              0.0148599
    477.7050000              0.0728494
    134.3600000              0.2468300
     42.8709000              0.4872580
     14.5189000              0.3234960
SP   6   1.00
    239.6680000             -0.00292619             0.00460285
     57.4419000             -0.0374080              0.0331990
     18.2859000             -0.1144870              0.1362820
      6.5991400              0.1156350              0.3304760
      2.4904900              0.6125950              0.4491460
      0.9445400              0.3937990              0.2657040
SP   3   1.00
      1.2779000             -0.2276060             -0.0175130
      0.3975900              0.00144583             0.2445330
      0.1600950              1.0927900              0.8049340
SP   1   1.00
      0.0556577              1.0000000              1.0000000
D    1   1.00
      0.6500000              1.0000000
D    1   1.00
      0.1625000              1.0000000
F    1   1.00
      0.2500000              1.0000000
****
Si     0
S    6   1.00
  16115.9000000              0.00195948
   2425.5800000              0.01492880
    553.8670000              0.07284780
    156.3400000              0.24613000
     50.0683000              0.48591400
     17.0178000              0.32500200
SP   6   1.00
    292.7180000             -0.00278094             0.00443826
     69.8731000             -0.03571460             0.03266790
     22.3363000             -0.11498500             0.13472100
      8.1503900              0.09356340             0.32867800
      3.1345800              0.60301700             0.44964000
      1.2254300              0.41895900             0.26137200
SP   3   1.00
      1.7273800             -0.24463000            -0.01779510
      0.5729220              0.00431572             0.25353900
      0.2221920              1.09818000             0.80066900
SP   1   1.00
      0.0778369              1.00000000             1.00000000
D    1   1.00
      0.9000000              1.0000000
D    1   1.00
      0.2250000              1.0000000
F    1   1.00
      0.3200000              1.0000000
****
P     0
S    6   1.00
  19413.3000000              0.0018516
   2909.4200000              0.0142062
    661.3640000              0.0699995
    185.7590000              0.2400790
     59.1943000              0.4847620
     20.0310000              0.3352000
SP   6   1.00
    339.4780000             -0.00278217             0.00456462
     81.0101000             -0.0360499              0.03369360
     25.8780000             -0.1166310              0.13975500
      9.4522100              0.0968328              0.33936200
      3.6656600              0.6144180              0.45092100
      1.4674600              0.4037980              0.23858600
SP   3   1.00
      2.1562300             -0.2529230             -0.01776530
      0.7489970              0.0328517              0.27405800
      0.2831450              1.0812500              0.78542100
SP   1   1.00
      0.0998317              1.0000000              1.00000000
D    1   1.00
      1.1000000              1.0000000
D    1   1.00
      0.2750000              1.0000000
F    1   1.00
      0.4500000              1.0000000
****
S     0
S    6   1.00
  21917.1000000              0.0018690
   3301.4900000              0.0142300
    754.1460000              0.0696960
    212.7110000              0.2384870
     67.9896000              0.4833070
     23.0515000              0.3380740
SP   6   1.00
    423.7350000             -0.0023767              0.0040610
    100.7100000             -0.0316930              0.0306810
     32.1599000             -0.1133170              0.1304520
     11.8079000              0.0560900              0.3272050
      4.6311000              0.5922550              0.4528510
      1.8702500              0.4550060              0.2560420
SP   3   1.00
      2.6158400             -0.2503740             -0.0145110
      0.9221670              0.0669570              0.3102630
      0.3412870              1.0545100              0.7544830
SP   1   1.00
      0.1171670              1.0000000              1.0000000
D    1   1.00
      1.3000000              1.0000000
D    1   1.00
      0.3250000              1.0000000
F    1   1.00
      0.5500000              1.0000000
****
Cl     0
S    6   1.00
  25180.1000000              0.0018330
   3780.3500000              0.0140340
    860.4740000              0.0690970
    242.1450000              0.2374520
     77.3349000              0.4830340
     26.2470000              0.3398560
SP   6   1.00
    491.7650000             -0.0022974              0.0039894
    116.9840000             -0.0307140              0.0303180
     37.4153000             -0.1125280              0.1298800
     13.7834000              0.0450160              0.3279510
      5.4521500              0.5893530              0.4535270
      2.2258800              0.4652060              0.2521540
SP   3   1.00
      3.1864900             -0.2518300             -0.0142990
      1.1442700              0.0615890              0.3235720
      0.4203770              1.0601800              0.7435070
SP   1   1.00
      0.1426570              1.0000000              1.0000000
D    1   1.00
      1.5000000              1.0000000
D    1   1.00
      0.3750000              1.0000000
F    1   1.00
      0.7000000              1.0000000
****
}

set {
reference uhf
freeze_core true
e_convergence 10
d_convergence 10
dft_spherical_points 1202
dft_radial_points 99
}

e = energy('b3lyp')

print_out('Grab this energy {0}'.format(e))
--------------------------------------------------------------------------

    Molecular point group: c1

    Geometry (in Bohr), charge = 0, multiplicity = 2:

       Center              X                  Y                   Z               Mass
    ------------   -----------------  -----------------  -----------------  -----------------
         C           -0.257992734726     0.803590205162    -0.001503026901    12.000000000000
         O           -2.192256870726    -0.332392882038    -0.000227346501    15.994914619570
         C            2.410437799774    -0.245584096738     0.002090349599    12.000000000000
         H            2.383449325774    -2.302248668038    -0.001520872101     1.007825032230
         H            3.390057683774     0.466616684062    -1.660761105901     1.007825032230
         H            3.390405768474     0.466865096262     1.658896981199     1.007825032230

  Charge       = 0
  Multiplicity = 2
  Basis Set: ANONYMOUSA4F2009D
    Blend: 6-31G_2DFP_
  Basis Set: (ANONYMOUSA4F2009D AUX)
    Blend: DEF2-UNIVERSAL-JKFIT

    Orbital Energies [Eh]
    ---------------------

    Alpha Occupied:

       1A    -19.186833     2A    -10.271566     3A    -10.209617
       4A     -1.080997     5A     -0.762635     6A     -0.544192
       7A     -0.466817     8A     -0.457604     9A     -0.456576
      10A     -0.387554    11A     -0.386285    12A     -0.191964

    Alpha Virtual:

      13A     -0.018902    14A      0.092217    15A      0.137730
      16A      0.141875    17A      0.217802    18A      0.268103
      19A      0.428097    20A      0.431790    21A      0.443884
      22A      0.493930    23A      0.506424    24A      0.530884
      25A      0.563485    26A      0.579097    27A      0.608587
      28A      0.616373    29A      0.644767    30A      0.718016
      31A      0.766351    32A      0.785303    33A      0.833731
      34A      0.917519    35A      0.927302    36A      0.936234
      37A      1.023675    38A      1.085729    39A      1.108725
      40A      1.153935    41A      1.222706    42A      1.306413
      43A      1.318115    44A      1.328081    45A      1.404308
      46A      1.409156    47A      1.469272    48A      1.560268
      49A      1.631719    50A      1.653955    51A      1.723837
      52A      1.815238    53A      1.835731    54A      1.903662
      55A      2.066408    56A      2.167180    57A      2.495016
      58A      2.680858    59A      2.744427    60A      2.786227
      61A      2.843844    62A      2.895723    63A      2.974566
      64A      3.030658    65A      3.057489    66A      3.105017
      67A      3.115700    68A      3.181661    69A      3.314569
      70A      3.367483    71A      3.390743    72A      3.440423
      73A      3.465704    74A      3.485295    75A      3.572272
      76A      3.739280    77A      3.763372    78A      3.946920
      79A      3.984188    80A      4.056380    81A      4.113911
      82A      4.125204    83A      4.193446    84A      4.393224
      85A      4.436173    86A      4.453979    87A      4.537421
      88A      4.921908    89A      5.037359    90A      5.042341
      91A      5.205900    92A      5.216471    93A      5.473254
      94A      5.482842    95A      5.827072    96A      5.930069
      97A      6.104293    98A      6.770711    99A      6.772874
     100A      7.071411   101A      7.135062   102A      7.529766

    Beta Occupied:

       1A    -19.178770     2A    -10.261495     3A    -10.206249
       4A     -1.065067     5A     -0.750894     6A     -0.524434
       7A     -0.452076     8A     -0.447433     9A     -0.438978
      10A     -0.382339    11A     -0.347919

    Beta Virtual:

      12A     -0.052417    13A     -0.002612    14A      0.094911
      15A      0.143370    16A      0.144985    17A      0.228213
      18A      0.273789    19A      0.433780    20A      0.435312
      21A      0.465860    22A      0.500641    23A      0.527837
      24A      0.539891    25A      0.569901    26A      0.583312
      27A      0.623519    28A      0.627245    29A      0.650414
      30A      0.739967    31A      0.777507    32A      0.795307
      33A      0.834511    34A      0.922353    35A      0.943861
      36A      0.951321    37A      1.027861    38A      1.091823
      39A      1.110808    40A      1.160125    41A      1.231994
      42A      1.312085    43A      1.320927    44A      1.334822
      45A      1.413489    46A      1.415868    47A      1.481557
      48A      1.571409    49A      1.645108    50A      1.668304
      51A      1.730166    52A      1.818422    53A      1.849687
      54A      1.910269    55A      2.073134    56A      2.188605
      57A      2.507703    58A      2.695131    59A      2.758937
      60A      2.807364    61A      2.859311    62A      2.897365
      63A      2.983962    64A      3.047377    65A      3.065993
      66A      3.123248    67A      3.124576    68A      3.216347
      69A      3.358259    70A      3.378927    71A      3.396969
      72A      3.448598    73A      3.481504    74A      3.508620
      75A      3.585377    76A      3.765159    77A      3.772843
      78A      3.955497    79A      3.993492    80A      4.072763
      81A      4.127799    82A      4.129156    83A      4.204724
      84A      4.395490    85A      4.442335    86A      4.458169
      87A      4.548245    88A      4.925799    89A      5.054893
      90A      5.060332    91A      5.208127    92A      5.222117
      93A      5.485897    94A      5.496673    95A      5.840316
      96A      5.935658    97A      6.127488    98A      6.799976
      99A      6.802481   100A      7.075712   101A      7.164432
     102A      7.541431

    Final Occupation by Irrep:
              A
    DOCC [    11 ]
    SOCC [     1 ]

  @DF-UKS Final Energy:  -153.18838707979154

   => Energetics <=

    Nuclear Repulsion Energy =             62.8127373106585978
    One-Electron Energy =                -331.6221724199876348
    Two-Electron Energy =                 132.2038687159614199
    DFT Exchange-Correlation Energy =     -16.5828206864238865
    Empirical Dispersion Energy =           0.0000000000000000
    VV10 Nonlocal Energy =                  0.0000000000000000
    Total Energy =                       -153.1883870797915392

  UHF NO Occupations:
  HONO-2 :   10  A 1.9997859
  HONO-1 :   11  A 1.9992019
  HONO-0 :   12  A 1.0000000
  LUNO+0 :   13  A 0.0007981
  LUNO+1 :   14  A 0.0002141
  LUNO+2 :   15  A 0.0001807
  LUNO+3 :   16  A 0.0000616

Computation Completed

Properties will be evaluated at   0.000000,   0.000000,   0.000000 [a0]

Properties computed using the SCF density matrix

  Nuclear Dipole Moment: [e a0]
     X:     4.5405      Y:    -0.6799      Z:    -0.0017

  Electronic Dipole Moment: [e a0]
     X:    -3.6070      Y:     0.6289      Z:     0.0020

  Dipole Moment: [e a0]
     X:     0.9335      Y:    -0.0510      Z:     0.0004     Total:     0.9349

  Dipole Moment: [D]
     X:     2.3727      Y:    -0.1296      Z:     0.0009     Total:     2.3763

*** tstop() called on n062 at Tue Mar 15 10:28:24 2022
Module time:
	user time   =      50.63 seconds =       0.84 minutes
	system time =       0.55 seconds =       0.01 minutes
	total time  =         51 seconds =       0.85 minutes
Total time:
	user time   =      50.63 seconds =       0.84 minutes
	system time =       0.55 seconds =       0.01 minutes
	total time  =         51 seconds =       0.85 minutes
Grab this energy -153.18838707979154
    Psi4 stopped on: Tuesday, 15 March 2022 10:28AM
    Psi4 wall time for execution: 0:00:51.22

*** Psi4 exiting successfully. Buy a developer a beer!
