                               Psi4 1.4a2.dev629

  ==> Input File <==

--------------------------------------------------------------------------
import os
memory 14 GB

molecule {
 C   -0.2563967533    0.8042882898   -0.0000000000
 O   -2.1852415804   -0.3288561035   -0.0000000000
 C    2.4074581972   -0.2458356803   -0.0000000000
 H    2.3866966484   -2.3171862856   -0.0000000000
 H    3.3860607351    0.4709777137   -1.6683669953
 H    3.3860607351    0.4709777137    1.6683669953
units bohr
0 2
}

basis {

assign 6-31g_2dfp_

[ 6-31g_2dfp_ ]

spherical

!----------------------------------------------------------------------
! Basis Set Exchange
! Version v0.8.13
! https://www.basissetexchange.org
!----------------------------------------------------------------------
!   Basis set: 6-31G(2df,p)
! Description: 6-31G(2df,p)
!        Role: orbital
!     Version: 0  (Data from the original Basis Set Exchange)
!----------------------------------------------------------------------

****
H     0
S    3   1.00
     18.7311370              0.03349460
      2.8253937              0.23472695
      0.6401217              0.81375733
S    1   1.00
      0.1612778              1.00000000
P    1   1.00
      1.5000000              1.0000000
P    1   1.00
      0.3750000              1.0000000
****
B     0
S    6   1.00
   2068.8823000              0.0018663
    310.6495700              0.0142515
     70.6830330              0.0695516
     19.8610800              0.2325729
      6.2993048              0.4670787
      2.1270270              0.3634314
SP   3   1.00
      4.7279710             -0.1303938              0.0745976
      1.1903377             -0.1307889              0.3078467
      0.3594117              1.1309444              0.7434568
SP   1   1.00
      0.1267512              1.0000000              1.0000000
D    1   1.00
      0.8020000              1.0000000
D    1   1.00
      0.2005000              1.0000000
F    1   1.00
      0.5000000              1.0000000
****
C     0
S    6   1.00
   3047.5249000              0.0018347
    457.3695100              0.0140373
    103.9486900              0.0688426
     29.2101550              0.2321844
      9.2866630              0.4679413
      3.1639270              0.3623120
SP   3   1.00
      7.8682724             -0.1193324              0.0689991
      1.8812885             -0.1608542              0.3164240
      0.5442493              1.1434564              0.7443083
SP   1   1.00
      0.1687144              1.0000000              1.0000000
D    1   1.00
      1.2520000              1.0000000
D    1   1.00
      0.3130000              1.0000000
F    1   1.00
      0.8000000              1.0000000
****
N     0
S    6   1.00
   4173.5110000              0.0018348
    627.4579000              0.0139950
    142.9021000              0.0685870
     40.2343300              0.2322410
     12.8202100              0.4690700
      4.3904370              0.3604550
SP   3   1.00
     11.6263580             -0.1149610              0.0675800
      2.7162800             -0.1691180              0.3239070
      0.7722180              1.1458520              0.7408950
SP   1   1.00
      0.2120313              1.0000000              1.0000000
D    1   1.00
      1.8260000              1.0000000
D    1   1.00
      0.4565000              1.0000000
F    1   1.00
      1.0000000              1.0000000
****
O     0
S    6   1.00
   5484.6717000              0.0018311
    825.2349500              0.0139501
    188.0469600              0.0684451
     52.9645000              0.2327143
     16.8975700              0.4701930
      5.7996353              0.3585209
SP   3   1.00
     15.5396160             -0.1107775              0.0708743
      3.5999336             -0.1480263              0.3397528
      1.0137618              1.1307670              0.7271586
SP   1   1.00
      0.2700058              1.0000000              1.0000000
D    1   1.00
      2.5840000              1.0000000
D    1   1.00
      0.6460000              1.0000000
F    1   1.00
      1.4000000              1.0000000
****
F     0
S    6   1.00
   7001.7130900              0.0018196169
   1051.3660900              0.0139160796
    239.2856900              0.0684053245
     67.3974453              0.233185760
     21.5199573              0.471267439
      7.40310130             0.356618546
SP   3   1.00
     20.8479528             -0.108506975            0.0716287243
      4.80830834            -0.146451658            0.3459121030
      1.34406986             1.128688580            0.7224699570
SP   1   1.00
      0.358151393            1.0000000              1.0000000
D    1   1.00
      3.5000000              1.0000000
D    1   1.00
      0.8750000              1.0000000
F    1   1.00
      1.8500000              1.0000000
****
Al     0
S    6   1.00
  13983.1000000              0.00194267
   2098.7500000              0.0148599
    477.7050000              0.0728494
    134.3600000              0.2468300
     42.8709000              0.4872580
     14.5189000              0.3234960
SP   6   1.00
    239.6680000             -0.00292619             0.00460285
     57.4419000             -0.0374080              0.0331990
     18.2859000             -0.1144870              0.1362820
      6.5991400              0.1156350              0.3304760
      2.4904900              0.6125950              0.4491460
      0.9445400              0.3937990              0.2657040
SP   3   1.00
      1.2779000             -0.2276060             -0.0175130
      0.3975900              0.00144583             0.2445330
      0.1600950              1.0927900              0.8049340
SP   1   1.00
      0.0556577              1.0000000              1.0000000
D    1   1.00
      0.6500000              1.0000000
D    1   1.00
      0.1625000              1.0000000
F    1   1.00
      0.2500000              1.0000000
****
Si     0
S    6   1.00
  16115.9000000              0.00195948
   2425.5800000              0.01492880
    553.8670000              0.07284780
    156.3400000              0.24613000
     50.0683000              0.48591400
     17.0178000              0.32500200
SP   6   1.00
    292.7180000             -0.00278094             0.00443826
     69.8731000             -0.03571460             0.03266790
     22.3363000             -0.11498500             0.13472100
      8.1503900              0.09356340             0.32867800
      3.1345800              0.60301700             0.44964000
      1.2254300              0.41895900             0.26137200
SP   3   1.00
      1.7273800             -0.24463000            -0.01779510
      0.5729220              0.00431572             0.25353900
      0.2221920              1.09818000             0.80066900
SP   1   1.00
      0.0778369              1.00000000             1.00000000
D    1   1.00
      0.9000000              1.0000000
D    1   1.00
      0.2250000              1.0000000
F    1   1.00
      0.3200000              1.0000000
****
P     0
S    6   1.00
  19413.3000000              0.0018516
   2909.4200000              0.0142062
    661.3640000              0.0699995
    185.7590000              0.2400790
     59.1943000              0.4847620
     20.0310000              0.3352000
SP   6   1.00
    339.4780000             -0.00278217             0.00456462
     81.0101000             -0.0360499              0.03369360
     25.8780000             -0.1166310              0.13975500
      9.4522100              0.0968328              0.33936200
      3.6656600              0.6144180              0.45092100
      1.4674600              0.4037980              0.23858600
SP   3   1.00
      2.1562300             -0.2529230             -0.01776530
      0.7489970              0.0328517              0.27405800
      0.2831450              1.0812500              0.78542100
SP   1   1.00
      0.0998317              1.0000000              1.00000000
D    1   1.00
      1.1000000              1.0000000
D    1   1.00
      0.2750000              1.0000000
F    1   1.00
      0.4500000              1.0000000
****
S     0
S    6   1.00
  21917.1000000              0.0018690
   3301.4900000              0.0142300
    754.1460000              0.0696960
    212.7110000              0.2384870
     67.9896000              0.4833070
     23.0515000              0.3380740
SP   6   1.00
    423.7350000             -0.0023767              0.0040610
    100.7100000             -0.0316930              0.0306810
     32.1599000             -0.1133170              0.1304520
     11.8079000              0.0560900              0.3272050
      4.6311000              0.5922550              0.4528510
      1.8702500              0.4550060              0.2560420
SP   3   1.00
      2.6158400             -0.2503740             -0.0145110
      0.9221670              0.0669570              0.3102630
      0.3412870              1.0545100              0.7544830
SP   1   1.00
      0.1171670              1.0000000              1.0000000
D    1   1.00
      1.3000000              1.0000000
D    1   1.00
      0.3250000              1.0000000
F    1   1.00
      0.5500000              1.0000000
****
Cl     0
S    6   1.00
  25180.1000000              0.0018330
   3780.3500000              0.0140340
    860.4740000              0.0690970
    242.1450000              0.2374520
     77.3349000              0.4830340
     26.2470000              0.3398560
SP   6   1.00
    491.7650000             -0.0022974              0.0039894
    116.9840000             -0.0307140              0.0303180
     37.4153000             -0.1125280              0.1298800
     13.7834000              0.0450160              0.3279510
      5.4521500              0.5893530              0.4535270
      2.2258800              0.4652060              0.2521540
SP   3   1.00
      3.1864900             -0.2518300             -0.0142990
      1.1442700              0.0615890              0.3235720
      0.4203770              1.0601800              0.7435070
SP   1   1.00
      0.1426570              1.0000000              1.0000000
D    1   1.00
      1.5000000              1.0000000
D    1   1.00
      0.3750000              1.0000000
F    1   1.00
      0.7000000              1.0000000
****
}

set {
reference uhf
freeze_core true
e_convergence 10
d_convergence 10
dft_spherical_points 1202
dft_radial_points 99
}

e = energy('b3lyp')

print_out('Grab this energy {0}'.format(e))
--------------------------------------------------------------------------

    Molecular point group: cs

    Geometry (in Bohr), charge = 0, multiplicity = 2:

       Center              X                  Y                   Z               Mass
    ------------   -----------------  -----------------  -----------------  -----------------
         C           -0.258499830410     0.803000144596     0.000000000000    12.000000000000
         O           -2.187344657510    -0.330144248704     0.000000000000    15.994914619570
         C            2.405355120090    -0.247123825504     0.000000000000    12.000000000000
         H            2.384593571290    -2.318474430804     0.000000000000     1.007825032230
         H            3.383957657990     0.469689568496    -1.668366995300     1.007825032230
         H            3.383957657990     0.469689568496     1.668366995300     1.007825032230

  Charge       = 0
  Multiplicity = 2
  Basis Set: ANONYMOUS6279C772
    Blend: 6-31G_2DFP_
  Basis Set: (ANONYMOUS6279C772 AUX)
    Blend: DEF2-UNIVERSAL-JKFIT

    Orbital Energies [Eh]
    ---------------------

    Alpha Occupied:

       1Ap   -19.186755     2Ap   -10.270871     3Ap   -10.210707
       4Ap    -1.082824     5Ap    -0.761775     6Ap    -0.543512
       7Ap    -0.466652     8Ap    -0.457589     1App   -0.456710
       2App   -0.387966     9Ap    -0.385882    10Ap    -0.191537

    Alpha Virtual:

       3App   -0.017935    11Ap     0.091439    12Ap     0.136039
       4App    0.140943    13Ap     0.218967    14Ap     0.268685
      15Ap     0.428388     5App    0.431377    16Ap     0.444156
       6App    0.493519    17Ap     0.505996    18Ap     0.529703
       7App    0.562782    19Ap     0.576154    20Ap     0.610344
       8App    0.615762    21Ap     0.644048    22Ap     0.717719
       9App    0.765974    23Ap     0.785880    10App    0.831022
      11App    0.916946    24Ap     0.926404    25Ap     0.935040
      12App    1.024655    26Ap     1.087502    27Ap     1.106337
      13App    1.152330    28Ap     1.222702    29Ap     1.307122
      14App    1.316065    30Ap     1.327349    31Ap     1.402180
      15App    1.407364    32Ap     1.468085    33Ap     1.559636
      34Ap     1.631155    16App    1.654866    35Ap     1.717829
      17App    1.812948    36Ap     1.834843    37Ap     1.900237
      18App    2.066025    38Ap     2.167785    39Ap     2.499740
      19App    2.680634    40Ap     2.744911    41Ap     2.782285
      20App    2.841240    21App    2.893429    42Ap     2.973912
      43Ap     3.031880    22App    3.059975    23App    3.103451
      44Ap     3.115985    45Ap     3.182207    24App    3.313863
      46Ap     3.372204    25App    3.396070    26App    3.441682
      27App    3.465931    47Ap     3.487006    48Ap     3.569112
      49Ap     3.743984    50Ap     3.764782    51Ap     3.940235
      28App    3.985176    52Ap     4.059417    53Ap     4.107611
      29App    4.115524    54Ap     4.185069    30App    4.387531
      55Ap     4.435487    31App    4.444745    56Ap     4.531577
      57Ap     4.917792    58Ap     5.037140    32App    5.042536
      33App    5.192807    59Ap     5.199598    60Ap     5.478425
      34App    5.486846    61Ap     5.826005    35App    5.935508
      62Ap     6.108854    63Ap     6.771143    36App    6.773344
      37App    7.070886    64Ap     7.135416    65Ap     7.532161

    Beta Occupied:

       1Ap   -19.178683     2Ap   -10.260831     3Ap   -10.207329
       4Ap    -1.066924     5Ap    -0.749925     6Ap    -0.523908
       1App   -0.452118     7Ap    -0.446390     8Ap    -0.439216
       2App   -0.382828     9Ap    -0.348107

    Beta Virtual:

      10Ap    -0.052150     3App   -0.001677    11Ap     0.094167
      12Ap     0.141843     4App    0.144080    13Ap     0.229298
      14Ap     0.274313     5App    0.433344    15Ap     0.435503
      16Ap     0.466382     6App    0.500220    17Ap     0.527290
      18Ap     0.538554     7App    0.569112    19Ap     0.580324
       8App    0.622991    20Ap     0.628549    21Ap     0.650090
      22Ap     0.739894     9App    0.777047    23Ap     0.795767
      10App    0.831811    11App    0.921809    24Ap     0.942781
      25Ap     0.950397    12App    1.028894    26Ap     1.093720
      27Ap     1.108354    13App    1.158559    28Ap     1.231881
      29Ap     1.312646    14App    1.318926    30Ap     1.334155
      31Ap     1.412547    15App    1.412850    32Ap     1.480494
      33Ap     1.570745    34Ap     1.644379    16App    1.669310
      35Ap     1.724066    17App    1.816060    36Ap     1.849131
      37Ap     1.907055    18App    2.072738    38Ap     2.189203
      39Ap     2.512419    19App    2.694944    40Ap     2.759305
      41Ap     2.803308    20App    2.856372    21App    2.895103
      42Ap     2.983602    43Ap     3.048741    22App    3.068700
      23App    3.122147    44Ap     3.124284    45Ap     3.216796
      24App    3.357353    46Ap     3.383441    25App    3.402392
      26App    3.449867    27App    3.481587    47Ap     3.510286
      48Ap     3.582308    49Ap     3.769392    50Ap     3.774300
      51Ap     3.949046    28App    3.994472    52Ap     4.075772
      29App    4.118387    53Ap     4.121762    54Ap     4.197163
      30App    4.389757    55Ap     4.441750    31App    4.448960
      56Ap     4.542576    57Ap     4.921704    58Ap     5.054599
      32App    5.060574    33App    5.194929    59Ap     5.205432
      60Ap     5.491024    34App    5.500805    61Ap     5.839266
      35App    5.941103    62Ap     6.132062    63Ap     6.800462
      36App    6.803008    37App    7.075189    64Ap     7.164806
      65Ap     7.543819

    Final Occupation by Irrep:
             Ap   App
    DOCC [     9,    2 ]
    SOCC [     1,    0 ]

  @DF-UKS Final Energy:  -153.18846850527677

   => Energetics <=

    Nuclear Repulsion Energy =             62.8629535790012213
    One-Electron Energy =                -331.7232133255348572
    Two-Electron Energy =                 132.2529783882834238
    DFT Exchange-Correlation Energy =     -16.5811871470265650
    Empirical Dispersion Energy =           0.0000000000000000
    VV10 Nonlocal Energy =                  0.0000000000000000
    Total Energy =                       -153.1884685052767736

  UHF NO Occupations:
  HONO-2 :    8 Ap 1.9997849
  HONO-1 :    9 Ap 1.9992039
  HONO-0 :   10 Ap 1.0000000
  LUNO+0 :   11 Ap 0.0007961
  LUNO+1 :   12 Ap 0.0002151
  LUNO+2 :    3App 0.0001775
  LUNO+3 :   13 Ap 0.0000614

Computation Completed

Properties will be evaluated at   0.000000,   0.000000,   0.000000 [a0]

Properties computed using the SCF density matrix

  Nuclear Dipole Moment: [e a0]
     X:     4.5349      Y:    -0.6850      Z:     0.0000

  Electronic Dipole Moment: [e a0]
     X:    -3.6090      Y:     0.6343      Z:     0.0000

  Dipole Moment: [e a0]
     X:     0.9259      Y:    -0.0506      Z:     0.0000     Total:     0.9273

  Dipole Moment: [D]
     X:     2.3533      Y:    -0.1287      Z:     0.0000     Total:     2.3568

*** tstop() called on n021 at Tue Mar 15 10:36:21 2022
Module time:
	user time   =      62.28 seconds =       1.04 minutes
	system time =       0.41 seconds =       0.01 minutes
	total time  =         62 seconds =       1.03 minutes
Total time:
	user time   =      62.28 seconds =       1.04 minutes
	system time =       0.41 seconds =       0.01 minutes
	total time  =         62 seconds =       1.03 minutes
Grab this energy -153.18846850527677
    Psi4 stopped on: Tuesday, 15 March 2022 10:36AM
    Psi4 wall time for execution: 0:01:02.74

*** Psi4 exiting successfully. Buy a developer a beer!
