                               Psi4 1.4a2.dev629

  ==> Input File <==

--------------------------------------------------------------------------
import os
memory 14 GB

molecule {
 C   -0.2610957284    0.8087797093    0.0000000000
 O   -2.1907345242   -0.3341750044    0.0000000000
 C    2.4095476746   -0.2471002666    0.0000000000
 H    2.3868518723   -2.3036577574    0.0000000000
 H    3.3900343440    0.4652594834   -1.6693923404
 H    3.3900343440    0.4652594834    1.6693923404
units bohr
0 2
}

basis {

assign 6-31g_2dfp_

[ 6-31g_2dfp_ ]

spherical

!----------------------------------------------------------------------
! Basis Set Exchange
! Version v0.8.13
! https://www.basissetexchange.org
!----------------------------------------------------------------------
!   Basis set: 6-31G(2df,p)
! Description: 6-31G(2df,p)
!        Role: orbital
!     Version: 0  (Data from the original Basis Set Exchange)
!----------------------------------------------------------------------

****
H     0
S    3   1.00
     18.7311370              0.03349460
      2.8253937              0.23472695
      0.6401217              0.81375733
S    1   1.00
      0.1612778              1.00000000
P    1   1.00
      1.5000000              1.0000000
P    1   1.00
      0.3750000              1.0000000
****
B     0
S    6   1.00
   2068.8823000              0.0018663
    310.6495700              0.0142515
     70.6830330              0.0695516
     19.8610800              0.2325729
      6.2993048              0.4670787
      2.1270270              0.3634314
SP   3   1.00
      4.7279710             -0.1303938              0.0745976
      1.1903377             -0.1307889              0.3078467
      0.3594117              1.1309444              0.7434568
SP   1   1.00
      0.1267512              1.0000000              1.0000000
D    1   1.00
      0.8020000              1.0000000
D    1   1.00
      0.2005000              1.0000000
F    1   1.00
      0.5000000              1.0000000
****
C     0
S    6   1.00
   3047.5249000              0.0018347
    457.3695100              0.0140373
    103.9486900              0.0688426
     29.2101550              0.2321844
      9.2866630              0.4679413
      3.1639270              0.3623120
SP   3   1.00
      7.8682724             -0.1193324              0.0689991
      1.8812885             -0.1608542              0.3164240
      0.5442493              1.1434564              0.7443083
SP   1   1.00
      0.1687144              1.0000000              1.0000000
D    1   1.00
      1.2520000              1.0000000
D    1   1.00
      0.3130000              1.0000000
F    1   1.00
      0.8000000              1.0000000
****
N     0
S    6   1.00
   4173.5110000              0.0018348
    627.4579000              0.0139950
    142.9021000              0.0685870
     40.2343300              0.2322410
     12.8202100              0.4690700
      4.3904370              0.3604550
SP   3   1.00
     11.6263580             -0.1149610              0.0675800
      2.7162800             -0.1691180              0.3239070
      0.7722180              1.1458520              0.7408950
SP   1   1.00
      0.2120313              1.0000000              1.0000000
D    1   1.00
      1.8260000              1.0000000
D    1   1.00
      0.4565000              1.0000000
F    1   1.00
      1.0000000              1.0000000
****
O     0
S    6   1.00
   5484.6717000              0.0018311
    825.2349500              0.0139501
    188.0469600              0.0684451
     52.9645000              0.2327143
     16.8975700              0.4701930
      5.7996353              0.3585209
SP   3   1.00
     15.5396160             -0.1107775              0.0708743
      3.5999336             -0.1480263              0.3397528
      1.0137618              1.1307670              0.7271586
SP   1   1.00
      0.2700058              1.0000000              1.0000000
D    1   1.00
      2.5840000              1.0000000
D    1   1.00
      0.6460000              1.0000000
F    1   1.00
      1.4000000              1.0000000
****
F     0
S    6   1.00
   7001.7130900              0.0018196169
   1051.3660900              0.0139160796
    239.2856900              0.0684053245
     67.3974453              0.233185760
     21.5199573              0.471267439
      7.40310130             0.356618546
SP   3   1.00
     20.8479528             -0.108506975            0.0716287243
      4.80830834            -0.146451658            0.3459121030
      1.34406986             1.128688580            0.7224699570
SP   1   1.00
      0.358151393            1.0000000              1.0000000
D    1   1.00
      3.5000000              1.0000000
D    1   1.00
      0.8750000              1.0000000
F    1   1.00
      1.8500000              1.0000000
****
Al     0
S    6   1.00
  13983.1000000              0.00194267
   2098.7500000              0.0148599
    477.7050000              0.0728494
    134.3600000              0.2468300
     42.8709000              0.4872580
     14.5189000              0.3234960
SP   6   1.00
    239.6680000             -0.00292619             0.00460285
     57.4419000             -0.0374080              0.0331990
     18.2859000             -0.1144870              0.1362820
      6.5991400              0.1156350              0.3304760
      2.4904900              0.6125950              0.4491460
      0.9445400              0.3937990              0.2657040
SP   3   1.00
      1.2779000             -0.2276060             -0.0175130
      0.3975900              0.00144583             0.2445330
      0.1600950              1.0927900              0.8049340
SP   1   1.00
      0.0556577              1.0000000              1.0000000
D    1   1.00
      0.6500000              1.0000000
D    1   1.00
      0.1625000              1.0000000
F    1   1.00
      0.2500000              1.0000000
****
Si     0
S    6   1.00
  16115.9000000              0.00195948
   2425.5800000              0.01492880
    553.8670000              0.07284780
    156.3400000              0.24613000
     50.0683000              0.48591400
     17.0178000              0.32500200
SP   6   1.00
    292.7180000             -0.00278094             0.00443826
     69.8731000             -0.03571460             0.03266790
     22.3363000             -0.11498500             0.13472100
      8.1503900              0.09356340             0.32867800
      3.1345800              0.60301700             0.44964000
      1.2254300              0.41895900             0.26137200
SP   3   1.00
      1.7273800             -0.24463000            -0.01779510
      0.5729220              0.00431572             0.25353900
      0.2221920              1.09818000             0.80066900
SP   1   1.00
      0.0778369              1.00000000             1.00000000
D    1   1.00
      0.9000000              1.0000000
D    1   1.00
      0.2250000              1.0000000
F    1   1.00
      0.3200000              1.0000000
****
P     0
S    6   1.00
  19413.3000000              0.0018516
   2909.4200000              0.0142062
    661.3640000              0.0699995
    185.7590000              0.2400790
     59.1943000              0.4847620
     20.0310000              0.3352000
SP   6   1.00
    339.4780000             -0.00278217             0.00456462
     81.0101000             -0.0360499              0.03369360
     25.8780000             -0.1166310              0.13975500
      9.4522100              0.0968328              0.33936200
      3.6656600              0.6144180              0.45092100
      1.4674600              0.4037980              0.23858600
SP   3   1.00
      2.1562300             -0.2529230             -0.01776530
      0.7489970              0.0328517              0.27405800
      0.2831450              1.0812500              0.78542100
SP   1   1.00
      0.0998317              1.0000000              1.00000000
D    1   1.00
      1.1000000              1.0000000
D    1   1.00
      0.2750000              1.0000000
F    1   1.00
      0.4500000              1.0000000
****
S     0
S    6   1.00
  21917.1000000              0.0018690
   3301.4900000              0.0142300
    754.1460000              0.0696960
    212.7110000              0.2384870
     67.9896000              0.4833070
     23.0515000              0.3380740
SP   6   1.00
    423.7350000             -0.0023767              0.0040610
    100.7100000             -0.0316930              0.0306810
     32.1599000             -0.1133170              0.1304520
     11.8079000              0.0560900              0.3272050
      4.6311000              0.5922550              0.4528510
      1.8702500              0.4550060              0.2560420
SP   3   1.00
      2.6158400             -0.2503740             -0.0145110
      0.9221670              0.0669570              0.3102630
      0.3412870              1.0545100              0.7544830
SP   1   1.00
      0.1171670              1.0000000              1.0000000
D    1   1.00
      1.3000000              1.0000000
D    1   1.00
      0.3250000              1.0000000
F    1   1.00
      0.5500000              1.0000000
****
Cl     0
S    6   1.00
  25180.1000000              0.0018330
   3780.3500000              0.0140340
    860.4740000              0.0690970
    242.1450000              0.2374520
     77.3349000              0.4830340
     26.2470000              0.3398560
SP   6   1.00
    491.7650000             -0.0022974              0.0039894
    116.9840000             -0.0307140              0.0303180
     37.4153000             -0.1125280              0.1298800
     13.7834000              0.0450160              0.3279510
      5.4521500              0.5893530              0.4535270
      2.2258800              0.4652060              0.2521540
SP   3   1.00
      3.1864900             -0.2518300             -0.0142990
      1.1442700              0.0615890              0.3235720
      0.4203770              1.0601800              0.7435070
SP   1   1.00
      0.1426570              1.0000000              1.0000000
D    1   1.00
      1.5000000              1.0000000
D    1   1.00
      0.3750000              1.0000000
F    1   1.00
      0.7000000              1.0000000
****
}

set {
reference uhf
freeze_core true
e_convergence 10
d_convergence 10
dft_spherical_points 1202
dft_radial_points 99
}

e = energy('b3lyp')

print_out('Grab this energy {0}'.format(e))
--------------------------------------------------------------------------

    Molecular point group: cs

    Geometry (in Bohr), charge = 0, multiplicity = 2:

       Center              X                  Y                   Z               Mass
    ------------   -----------------  -----------------  -----------------  -----------------
         C           -0.260618344069     0.808520076078     0.000000000000    12.000000000000
         O           -2.190257139869    -0.334434637622     0.000000000000    15.994914619570
         C            2.410025058931    -0.247359899822     0.000000000000    12.000000000000
         H            2.387329256631    -2.303917390622     0.000000000000     1.007825032230
         H            3.390511728331     0.464999850178    -1.669392340400     1.007825032230
         H            3.390511728331     0.464999850178     1.669392340400     1.007825032230

  Charge       = 0
  Multiplicity = 2
  Basis Set: ANONYMOUS14D93EBD
    Blend: 6-31G_2DFP_
  Basis Set: (ANONYMOUS14D93EBD AUX)
    Blend: DEF2-UNIVERSAL-JKFIT

    Orbital Energies [Eh]
    ---------------------

    Alpha Occupied:

       1Ap   -19.187063     2Ap   -10.271806     3Ap   -10.210380
       4Ap    -1.081373     5Ap    -0.761479     6Ap    -0.544033
       7Ap    -0.466104     8Ap    -0.457644     1App   -0.456123
       2App   -0.387607     9Ap    -0.385890    10Ap    -0.192667

    Alpha Virtual:

       3App   -0.018982    11Ap     0.091639    12Ap     0.137658
       4App    0.140925    13Ap     0.217194    14Ap     0.268274
      15Ap     0.428074     5App    0.432257    16Ap     0.443331
       6App    0.493135    17Ap     0.506451    18Ap     0.530345
       7App    0.562845    19Ap     0.577760    20Ap     0.607846
       8App    0.614923    21Ap     0.644303    22Ap     0.717818
       9App    0.766592    23Ap     0.785342    10App    0.832381
      11App    0.917044    24Ap     0.926721    25Ap     0.936178
      12App    1.022344    26Ap     1.086875    27Ap     1.106703
      13App    1.152640    28Ap     1.221563    29Ap     1.305625
      14App    1.317593    30Ap     1.327318    31Ap     1.402994
      15App    1.406381    32Ap     1.467381    33Ap     1.559462
      34Ap     1.629157    16App    1.653477    35Ap     1.720050
      17App    1.812164    36Ap     1.834690    37Ap     1.902219
      18App    2.063716    38Ap     2.164126    39Ap     2.495552
      19App    2.679648    40Ap     2.743346    41Ap     2.784387
      20App    2.840633    21App    2.895351    42Ap     2.973048
      43Ap     3.033289    22App    3.058880    23App    3.105490
      44Ap     3.113452    45Ap     3.182452    24App    3.314566
      46Ap     3.368777    25App    3.395077    26App    3.439691
      27App    3.464466    47Ap     3.485602    48Ap     3.572047
      49Ap     3.738110    50Ap     3.760588    51Ap     3.942288
      28App    3.980027    52Ap     4.052625    53Ap     4.107267
      29App    4.121881    54Ap     4.188900    30App    4.388393
      55Ap     4.431868    31App    4.446541    56Ap     4.533427
      57Ap     4.918252    58Ap     5.037024    32App    5.041992
      33App    5.193363    59Ap     5.213499    60Ap     5.473143
      34App    5.480736    61Ap     5.825771    35App    5.929488
      62Ap     6.102436    63Ap     6.770391    36App    6.772518
      37App    7.070426    64Ap     7.135118    65Ap     7.529490

    Beta Occupied:

       1Ap   -19.178981     2Ap   -10.261761     3Ap   -10.206975
       4Ap    -1.065425     5Ap    -0.749663     6Ap    -0.524230
       1App   -0.451573     7Ap    -0.446982     8Ap    -0.438481
       2App   -0.382425     9Ap    -0.347761

    Beta Virtual:

      10Ap    -0.053225     3App   -0.002692    11Ap     0.094281
      12Ap     0.143352     4App    0.144042    13Ap     0.227720
      14Ap     0.273969     5App    0.434220    15Ap     0.435525
      16Ap     0.465141     6App    0.499807    17Ap     0.527860
      18Ap     0.539119     7App    0.569247    19Ap     0.581968
       8App    0.622105    20Ap     0.626564    21Ap     0.649945
      22Ap     0.739660     9App    0.777703    23Ap     0.795340
      10App    0.833135    11App    0.921883    24Ap     0.943824
      25Ap     0.950818    12App    1.026534    26Ap     1.092853
      27Ap     1.108914    13App    1.158898    28Ap     1.230798
      29Ap     1.311175    14App    1.320424    30Ap     1.334118
      15App    1.411941    31Ap     1.413347    32Ap     1.479784
      33Ap     1.570699    34Ap     1.642399    16App    1.667882
      35Ap     1.726243    17App    1.815263    36Ap     1.848769
      37Ap     1.908924    18App    2.070432    38Ap     2.185532
      39Ap     2.508249    19App    2.693930    40Ap     2.757848
      41Ap     2.805488    20App    2.855760    21App    2.896997
      42Ap     2.982601    43Ap     3.049817    22App    3.067545
      44Ap     3.121897    23App    3.124213    45Ap     3.217093
      24App    3.358283    46Ap     3.380154    25App    3.401213
      26App    3.447944    27App    3.480338    47Ap     3.508770
      48Ap     3.585388    49Ap     3.763537    50Ap     3.770255
      51Ap     3.951021    28App    3.989332    52Ap     4.069086
      53Ap     4.121765    29App    4.124622    54Ap     4.200779
      30App    4.390687    55Ap     4.438066    31App    4.450712
      56Ap     4.544309    57Ap     4.922103    58Ap     5.054609
      32App    5.060052    33App    5.195490    59Ap     5.219176
      60Ap     5.485798    34App    5.494681    61Ap     5.839019
      35App    5.935079    62Ap     6.125664    63Ap     6.799755
      36App    6.802219    37App    7.074732    64Ap     7.164549
      65Ap     7.541172

    Final Occupation by Irrep:
             Ap   App
    DOCC [     9,    2 ]
    SOCC [     1,    0 ]

  @DF-UKS Final Energy:  -153.18841096705097

   => Energetics <=

    Nuclear Repulsion Energy =             62.7680427831947370
    One-Electron Energy =                -331.5367460105034638
    Two-Electron Energy =                 132.1601591880003355
    DFT Exchange-Correlation Energy =     -16.5798669277425930
    Empirical Dispersion Energy =           0.0000000000000000
    VV10 Nonlocal Energy =                  0.0000000000000000
    Total Energy =                       -153.1884109670509702

  UHF NO Occupations:
  HONO-2 :    8 Ap 1.9997819
  HONO-1 :    9 Ap 1.9992004
  HONO-0 :   10 Ap 1.0000000
  LUNO+0 :   11 Ap 0.0007996
  LUNO+1 :   12 Ap 0.0002181
  LUNO+2 :    3App 0.0001789
  LUNO+3 :   13 Ap 0.0000618

Computation Completed

Properties will be evaluated at   0.000000,   0.000000,   0.000000 [a0]

Properties computed using the SCF density matrix

  Nuclear Dipole Moment: [e a0]
     X:     4.5427      Y:    -0.6824      Z:     0.0000

  Electronic Dipole Moment: [e a0]
     X:    -3.6142      Y:     0.6308      Z:     0.0000

  Dipole Moment: [e a0]
     X:     0.9286      Y:    -0.0516      Z:     0.0000     Total:     0.9300

  Dipole Moment: [D]
     X:     2.3602      Y:    -0.1312      Z:     0.0000     Total:     2.3638

*** tstop() called on n086 at Tue Mar 15 10:33:02 2022
Module time:
	user time   =      44.18 seconds =       0.74 minutes
	system time =       0.54 seconds =       0.01 minutes
	total time  =         45 seconds =       0.75 minutes
Total time:
	user time   =      44.18 seconds =       0.74 minutes
	system time =       0.54 seconds =       0.01 minutes
	total time  =         45 seconds =       0.75 minutes
Grab this energy -153.18841096705097
    Psi4 stopped on: Tuesday, 15 March 2022 10:33AM
    Psi4 wall time for execution: 0:00:44.75

*** Psi4 exiting successfully. Buy a developer a beer!
