                               Psi4 1.4a2.dev629

  ==> Input File <==

--------------------------------------------------------------------------
import os
memory 14 GB

molecule {
 C   -0.2610779001    0.8045135584    0.0000000000
 O   -2.1961872099   -0.3365605323    0.0000000000
 C    2.4103327109   -0.2464422297    0.0000000000
 H    2.3786954484   -2.3019019361    0.0000000000
 H    3.3964374664    0.4673783937   -1.6691571517
 H    3.3964374664    0.4673783937    1.6691571517
units bohr
0 2
}

basis {

assign 6-31g_2dfp_

[ 6-31g_2dfp_ ]

spherical

!----------------------------------------------------------------------
! Basis Set Exchange
! Version v0.8.13
! https://www.basissetexchange.org
!----------------------------------------------------------------------
!   Basis set: 6-31G(2df,p)
! Description: 6-31G(2df,p)
!        Role: orbital
!     Version: 0  (Data from the original Basis Set Exchange)
!----------------------------------------------------------------------

****
H     0
S    3   1.00
     18.7311370              0.03349460
      2.8253937              0.23472695
      0.6401217              0.81375733
S    1   1.00
      0.1612778              1.00000000
P    1   1.00
      1.5000000              1.0000000
P    1   1.00
      0.3750000              1.0000000
****
B     0
S    6   1.00
   2068.8823000              0.0018663
    310.6495700              0.0142515
     70.6830330              0.0695516
     19.8610800              0.2325729
      6.2993048              0.4670787
      2.1270270              0.3634314
SP   3   1.00
      4.7279710             -0.1303938              0.0745976
      1.1903377             -0.1307889              0.3078467
      0.3594117              1.1309444              0.7434568
SP   1   1.00
      0.1267512              1.0000000              1.0000000
D    1   1.00
      0.8020000              1.0000000
D    1   1.00
      0.2005000              1.0000000
F    1   1.00
      0.5000000              1.0000000
****
C     0
S    6   1.00
   3047.5249000              0.0018347
    457.3695100              0.0140373
    103.9486900              0.0688426
     29.2101550              0.2321844
      9.2866630              0.4679413
      3.1639270              0.3623120
SP   3   1.00
      7.8682724             -0.1193324              0.0689991
      1.8812885             -0.1608542              0.3164240
      0.5442493              1.1434564              0.7443083
SP   1   1.00
      0.1687144              1.0000000              1.0000000
D    1   1.00
      1.2520000              1.0000000
D    1   1.00
      0.3130000              1.0000000
F    1   1.00
      0.8000000              1.0000000
****
N     0
S    6   1.00
   4173.5110000              0.0018348
    627.4579000              0.0139950
    142.9021000              0.0685870
     40.2343300              0.2322410
     12.8202100              0.4690700
      4.3904370              0.3604550
SP   3   1.00
     11.6263580             -0.1149610              0.0675800
      2.7162800             -0.1691180              0.3239070
      0.7722180              1.1458520              0.7408950
SP   1   1.00
      0.2120313              1.0000000              1.0000000
D    1   1.00
      1.8260000              1.0000000
D    1   1.00
      0.4565000              1.0000000
F    1   1.00
      1.0000000              1.0000000
****
O     0
S    6   1.00
   5484.6717000              0.0018311
    825.2349500              0.0139501
    188.0469600              0.0684451
     52.9645000              0.2327143
     16.8975700              0.4701930
      5.7996353              0.3585209
SP   3   1.00
     15.5396160             -0.1107775              0.0708743
      3.5999336             -0.1480263              0.3397528
      1.0137618              1.1307670              0.7271586
SP   1   1.00
      0.2700058              1.0000000              1.0000000
D    1   1.00
      2.5840000              1.0000000
D    1   1.00
      0.6460000              1.0000000
F    1   1.00
      1.4000000              1.0000000
****
F     0
S    6   1.00
   7001.7130900              0.0018196169
   1051.3660900              0.0139160796
    239.2856900              0.0684053245
     67.3974453              0.233185760
     21.5199573              0.471267439
      7.40310130             0.356618546
SP   3   1.00
     20.8479528             -0.108506975            0.0716287243
      4.80830834            -0.146451658            0.3459121030
      1.34406986             1.128688580            0.7224699570
SP   1   1.00
      0.358151393            1.0000000              1.0000000
D    1   1.00
      3.5000000              1.0000000
D    1   1.00
      0.8750000              1.0000000
F    1   1.00
      1.8500000              1.0000000
****
Al     0
S    6   1.00
  13983.1000000              0.00194267
   2098.7500000              0.0148599
    477.7050000              0.0728494
    134.3600000              0.2468300
     42.8709000              0.4872580
     14.5189000              0.3234960
SP   6   1.00
    239.6680000             -0.00292619             0.00460285
     57.4419000             -0.0374080              0.0331990
     18.2859000             -0.1144870              0.1362820
      6.5991400              0.1156350              0.3304760
      2.4904900              0.6125950              0.4491460
      0.9445400              0.3937990              0.2657040
SP   3   1.00
      1.2779000             -0.2276060             -0.0175130
      0.3975900              0.00144583             0.2445330
      0.1600950              1.0927900              0.8049340
SP   1   1.00
      0.0556577              1.0000000              1.0000000
D    1   1.00
      0.6500000              1.0000000
D    1   1.00
      0.1625000              1.0000000
F    1   1.00
      0.2500000              1.0000000
****
Si     0
S    6   1.00
  16115.9000000              0.00195948
   2425.5800000              0.01492880
    553.8670000              0.07284780
    156.3400000              0.24613000
     50.0683000              0.48591400
     17.0178000              0.32500200
SP   6   1.00
    292.7180000             -0.00278094             0.00443826
     69.8731000             -0.03571460             0.03266790
     22.3363000             -0.11498500             0.13472100
      8.1503900              0.09356340             0.32867800
      3.1345800              0.60301700             0.44964000
      1.2254300              0.41895900             0.26137200
SP   3   1.00
      1.7273800             -0.24463000            -0.01779510
      0.5729220              0.00431572             0.25353900
      0.2221920              1.09818000             0.80066900
SP   1   1.00
      0.0778369              1.00000000             1.00000000
D    1   1.00
      0.9000000              1.0000000
D    1   1.00
      0.2250000              1.0000000
F    1   1.00
      0.3200000              1.0000000
****
P     0
S    6   1.00
  19413.3000000              0.0018516
   2909.4200000              0.0142062
    661.3640000              0.0699995
    185.7590000              0.2400790
     59.1943000              0.4847620
     20.0310000              0.3352000
SP   6   1.00
    339.4780000             -0.00278217             0.00456462
     81.0101000             -0.0360499              0.03369360
     25.8780000             -0.1166310              0.13975500
      9.4522100              0.0968328              0.33936200
      3.6656600              0.6144180              0.45092100
      1.4674600              0.4037980              0.23858600
SP   3   1.00
      2.1562300             -0.2529230             -0.01776530
      0.7489970              0.0328517              0.27405800
      0.2831450              1.0812500              0.78542100
SP   1   1.00
      0.0998317              1.0000000              1.00000000
D    1   1.00
      1.1000000              1.0000000
D    1   1.00
      0.2750000              1.0000000
F    1   1.00
      0.4500000              1.0000000
****
S     0
S    6   1.00
  21917.1000000              0.0018690
   3301.4900000              0.0142300
    754.1460000              0.0696960
    212.7110000              0.2384870
     67.9896000              0.4833070
     23.0515000              0.3380740
SP   6   1.00
    423.7350000             -0.0023767              0.0040610
    100.7100000             -0.0316930              0.0306810
     32.1599000             -0.1133170              0.1304520
     11.8079000              0.0560900              0.3272050
      4.6311000              0.5922550              0.4528510
      1.8702500              0.4550060              0.2560420
SP   3   1.00
      2.6158400             -0.2503740             -0.0145110
      0.9221670              0.0669570              0.3102630
      0.3412870              1.0545100              0.7544830
SP   1   1.00
      0.1171670              1.0000000              1.0000000
D    1   1.00
      1.3000000              1.0000000
D    1   1.00
      0.3250000              1.0000000
F    1   1.00
      0.5500000              1.0000000
****
Cl     0
S    6   1.00
  25180.1000000              0.0018330
   3780.3500000              0.0140340
    860.4740000              0.0690970
    242.1450000              0.2374520
     77.3349000              0.4830340
     26.2470000              0.3398560
SP   6   1.00
    491.7650000             -0.0022974              0.0039894
    116.9840000             -0.0307140              0.0303180
     37.4153000             -0.1125280              0.1298800
     13.7834000              0.0450160              0.3279510
      5.4521500              0.5893530              0.4535270
      2.2258800              0.4652060              0.2521540
SP   3   1.00
      3.1864900             -0.2518300             -0.0142990
      1.1442700              0.0615890              0.3235720
      0.4203770              1.0601800              0.7435070
SP   1   1.00
      0.1426570              1.0000000              1.0000000
D    1   1.00
      1.5000000              1.0000000
D    1   1.00
      0.3750000              1.0000000
F    1   1.00
      0.7000000              1.0000000
****
}

set {
reference uhf
freeze_core true
e_convergence 10
d_convergence 10
dft_spherical_points 1202
dft_radial_points 99
}

e = energy('b3lyp')

print_out('Grab this energy {0}'.format(e))
--------------------------------------------------------------------------

    Molecular point group: cs

    Geometry (in Bohr), charge = 0, multiplicity = 2:

       Center              X                  Y                   Z               Mass
    ------------   -----------------  -----------------  -----------------  -----------------
         C           -0.258906015775     0.806006969428     0.000000000000    12.000000000000
         O           -2.194015325575    -0.335067121272     0.000000000000    15.994914619570
         C            2.412504595225    -0.244948818672     0.000000000000    12.000000000000
         H            2.380867332725    -2.300408525072     0.000000000000     1.007825032230
         H            3.398609350725     0.468871804728    -1.669157151700     1.007825032230
         H            3.398609350725     0.468871804728     1.669157151700     1.007825032230

  Charge       = 0
  Multiplicity = 2
  Basis Set: ANONYMOUS02AE227E
    Blend: 6-31G_2DFP_
  Basis Set: (ANONYMOUS02AE227E AUX)
    Blend: DEF2-UNIVERSAL-JKFIT

    Orbital Energies [Eh]
    ---------------------

    Alpha Occupied:

       1Ap   -19.186981     2Ap   -10.272100     3Ap   -10.210885
       4Ap    -1.080135     5Ap    -0.761651     6Ap    -0.544056
       7Ap    -0.466230     8Ap    -0.457353     1App   -0.455539
       2App   -0.386935     9Ap    -0.385987    10Ap    -0.192549

    Alpha Virtual:

       3App   -0.019657    11Ap     0.091255    12Ap     0.137545
       4App    0.140441    13Ap     0.217111    14Ap     0.267943
      15Ap     0.427591     5App    0.432329    16Ap     0.443063
       6App    0.493047    17Ap     0.506462    18Ap     0.530275
       7App    0.562210    19Ap     0.577442    20Ap     0.606899
       8App    0.615074    21Ap     0.643878    22Ap     0.717395
       9App    0.766040    23Ap     0.784874    10App    0.831774
      11App    0.917319    24Ap     0.927350    25Ap     0.936253
      12App    1.021324    26Ap     1.083843    27Ap     1.106910
      13App    1.153787    28Ap     1.220811    29Ap     1.305704
      14App    1.316039    30Ap     1.327653    31Ap     1.403262
      15App    1.405744    32Ap     1.467412    33Ap     1.560085
      34Ap     1.629160    16App    1.652784    35Ap     1.719029
      17App    1.810311    36Ap     1.833875    37Ap     1.900876
      18App    2.063591    38Ap     2.165276    39Ap     2.492272
      19App    2.679167    40Ap     2.743312    41Ap     2.784321
      20App    2.839148    21App    2.894654    42Ap     2.973037
      43Ap     3.031432    22App    3.057766    23App    3.106291
      44Ap     3.113754    45Ap     3.182016    24App    3.315042
      46Ap     3.367495    25App    3.393166    26App    3.440063
      27App    3.465431    47Ap     3.484636    48Ap     3.570696
      49Ap     3.735904    50Ap     3.760285    51Ap     3.941967
      28App    3.977958    52Ap     4.051252    53Ap     4.108731
      29App    4.118883    54Ap     4.189471    30App    4.384941
      55Ap     4.432031    31App    4.446598    56Ap     4.530909
      57Ap     4.916924    58Ap     5.036702    32App    5.041954
      33App    5.190495    59Ap     5.211081    60Ap     5.470105
      34App    5.477974    61Ap     5.827006    35App    5.926383
      62Ap     6.100697    63Ap     6.770314    36App    6.772449
      37App    7.071120    64Ap     7.134912    65Ap     7.528221

    Beta Occupied:

       1Ap   -19.178918     2Ap   -10.262020     3Ap   -10.207507
       4Ap    -1.064185     5Ap    -0.749850     6Ap    -0.524251
       1App   -0.451007     7Ap    -0.447219     8Ap    -0.438446
       2App   -0.381767     9Ap    -0.347580

    Beta Virtual:

      10Ap    -0.052982     3App   -0.003389    11Ap     0.093886
      12Ap     0.143222     4App    0.143585    13Ap     0.227598
      14Ap     0.273679     5App    0.434304    15Ap     0.434661
      16Ap     0.465131     6App    0.499703    17Ap     0.527797
      18Ap     0.539172     7App    0.568501    19Ap     0.581675
       8App    0.622370    20Ap     0.625833    21Ap     0.649429
      22Ap     0.739216     9App    0.777230    23Ap     0.794931
      10App    0.832543    11App    0.922158    24Ap     0.943872
      25Ap     0.951381    12App    1.025475    26Ap     1.089860
      27Ap     1.109093    13App    1.159984    28Ap     1.230121
      29Ap     1.311181    14App    1.318805    30Ap     1.334465
      15App    1.411272    31Ap     1.413635    32Ap     1.479708
      33Ap     1.571270    34Ap     1.642448    16App    1.667132
      35Ap     1.725209    17App    1.813499    36Ap     1.847981
      37Ap     1.907502    18App    2.070290    38Ap     2.186684
      39Ap     2.504937    19App    2.693385    40Ap     2.757886
      41Ap     2.805449    20App    2.854576    21App    2.896266
      42Ap     2.982390    43Ap     3.048036    22App    3.066423
      44Ap     3.122298    23App    3.125048    45Ap     3.216864
      24App    3.358831    46Ap     3.379175    25App    3.399318
      26App    3.447920    27App    3.481597    47Ap     3.507207
      48Ap     3.584277    49Ap     3.761379    50Ap     3.769912
      51Ap     3.950679    28App    3.987203    52Ap     4.067596
      29App    4.121621    53Ap     4.122751    54Ap     4.201890
      30App    4.387232    55Ap     4.438244    31App    4.450772
      56Ap     4.541776    57Ap     4.920711    58Ap     5.054254
      32App    5.059943    33App    5.192609    59Ap     5.216786
      60Ap     5.482786    34App    5.491887    61Ap     5.840241
      35App    5.931968    62Ap     6.123895    63Ap     6.799577
      36App    6.802050    37App    7.075420    64Ap     7.164283
      65Ap     7.539892

    Final Occupation by Irrep:
             Ap   App
    DOCC [     9,    2 ]
    SOCC [     1,    0 ]

  @DF-UKS Final Energy:  -153.18838044461060

   => Energetics <=

    Nuclear Repulsion Energy =             62.7106679964799341
    One-Electron Energy =                -331.4266112436006324
    Two-Electron Energy =                 132.1053985318921491
    DFT Exchange-Correlation Energy =     -16.5778357293820413
    Empirical Dispersion Energy =           0.0000000000000000
    VV10 Nonlocal Energy =                  0.0000000000000000
    Total Energy =                       -153.1883804446106012

  UHF NO Occupations:
  HONO-2 :    8 Ap 1.9997847
  HONO-1 :    9 Ap 1.9991999
  HONO-0 :   10 Ap 1.0000000
  LUNO+0 :   11 Ap 0.0008001
  LUNO+1 :   12 Ap 0.0002153
  LUNO+2 :    3App 0.0001820
  LUNO+3 :   13 Ap 0.0000617

Computation Completed

Properties will be evaluated at   0.000000,   0.000000,   0.000000 [a0]

Properties computed using the SCF density matrix

  Nuclear Dipole Moment: [e a0]
     X:     4.5476      Y:    -0.6769      Z:     0.0000

  Electronic Dipole Moment: [e a0]
     X:    -3.6125      Y:     0.6260      Z:     0.0000

  Dipole Moment: [e a0]
     X:     0.9351      Y:    -0.0508      Z:     0.0000     Total:     0.9365

  Dipole Moment: [D]
     X:     2.3767      Y:    -0.1292      Z:     0.0000     Total:     2.3802

*** tstop() called on n023 at Tue Mar 15 10:35:06 2022
Module time:
	user time   =      62.52 seconds =       1.04 minutes
	system time =       0.35 seconds =       0.01 minutes
	total time  =         63 seconds =       1.05 minutes
Total time:
	user time   =      62.52 seconds =       1.04 minutes
	system time =       0.35 seconds =       0.01 minutes
	total time  =         63 seconds =       1.05 minutes
Grab this energy -153.1883804446106
    Psi4 stopped on: Tuesday, 15 March 2022 10:35AM
    Psi4 wall time for execution: 0:01:02.91

*** Psi4 exiting successfully. Buy a developer a beer!
