                               Psi4 1.4a2.dev629

  ==> Input File <==

--------------------------------------------------------------------------
import os
memory 14 GB

molecule {
 C   -0.2610771967    0.8047237503    0.0000000000
 O   -2.1971974227   -0.3368469547    0.0000000000
 C    2.4119740422   -0.2454426214    0.0000000000
 H    2.3790488682   -2.3007166515    0.0000000000
 H    3.3959448456    0.4663240626   -1.6600873481
 H    3.3959448456    0.4663240626    1.6600873481
units bohr
0 2
}

basis {

assign 6-31g_2dfp_

[ 6-31g_2dfp_ ]

spherical

!----------------------------------------------------------------------
! Basis Set Exchange
! Version v0.8.13
! https://www.basissetexchange.org
!----------------------------------------------------------------------
!   Basis set: 6-31G(2df,p)
! Description: 6-31G(2df,p)
!        Role: orbital
!     Version: 0  (Data from the original Basis Set Exchange)
!----------------------------------------------------------------------

****
H     0
S    3   1.00
     18.7311370              0.03349460
      2.8253937              0.23472695
      0.6401217              0.81375733
S    1   1.00
      0.1612778              1.00000000
P    1   1.00
      1.5000000              1.0000000
P    1   1.00
      0.3750000              1.0000000
****
B     0
S    6   1.00
   2068.8823000              0.0018663
    310.6495700              0.0142515
     70.6830330              0.0695516
     19.8610800              0.2325729
      6.2993048              0.4670787
      2.1270270              0.3634314
SP   3   1.00
      4.7279710             -0.1303938              0.0745976
      1.1903377             -0.1307889              0.3078467
      0.3594117              1.1309444              0.7434568
SP   1   1.00
      0.1267512              1.0000000              1.0000000
D    1   1.00
      0.8020000              1.0000000
D    1   1.00
      0.2005000              1.0000000
F    1   1.00
      0.5000000              1.0000000
****
C     0
S    6   1.00
   3047.5249000              0.0018347
    457.3695100              0.0140373
    103.9486900              0.0688426
     29.2101550              0.2321844
      9.2866630              0.4679413
      3.1639270              0.3623120
SP   3   1.00
      7.8682724             -0.1193324              0.0689991
      1.8812885             -0.1608542              0.3164240
      0.5442493              1.1434564              0.7443083
SP   1   1.00
      0.1687144              1.0000000              1.0000000
D    1   1.00
      1.2520000              1.0000000
D    1   1.00
      0.3130000              1.0000000
F    1   1.00
      0.8000000              1.0000000
****
N     0
S    6   1.00
   4173.5110000              0.0018348
    627.4579000              0.0139950
    142.9021000              0.0685870
     40.2343300              0.2322410
     12.8202100              0.4690700
      4.3904370              0.3604550
SP   3   1.00
     11.6263580             -0.1149610              0.0675800
      2.7162800             -0.1691180              0.3239070
      0.7722180              1.1458520              0.7408950
SP   1   1.00
      0.2120313              1.0000000              1.0000000
D    1   1.00
      1.8260000              1.0000000
D    1   1.00
      0.4565000              1.0000000
F    1   1.00
      1.0000000              1.0000000
****
O     0
S    6   1.00
   5484.6717000              0.0018311
    825.2349500              0.0139501
    188.0469600              0.0684451
     52.9645000              0.2327143
     16.8975700              0.4701930
      5.7996353              0.3585209
SP   3   1.00
     15.5396160             -0.1107775              0.0708743
      3.5999336             -0.1480263              0.3397528
      1.0137618              1.1307670              0.7271586
SP   1   1.00
      0.2700058              1.0000000              1.0000000
D    1   1.00
      2.5840000              1.0000000
D    1   1.00
      0.6460000              1.0000000
F    1   1.00
      1.4000000              1.0000000
****
F     0
S    6   1.00
   7001.7130900              0.0018196169
   1051.3660900              0.0139160796
    239.2856900              0.0684053245
     67.3974453              0.233185760
     21.5199573              0.471267439
      7.40310130             0.356618546
SP   3   1.00
     20.8479528             -0.108506975            0.0716287243
      4.80830834            -0.146451658            0.3459121030
      1.34406986             1.128688580            0.7224699570
SP   1   1.00
      0.358151393            1.0000000              1.0000000
D    1   1.00
      3.5000000              1.0000000
D    1   1.00
      0.8750000              1.0000000
F    1   1.00
      1.8500000              1.0000000
****
Al     0
S    6   1.00
  13983.1000000              0.00194267
   2098.7500000              0.0148599
    477.7050000              0.0728494
    134.3600000              0.2468300
     42.8709000              0.4872580
     14.5189000              0.3234960
SP   6   1.00
    239.6680000             -0.00292619             0.00460285
     57.4419000             -0.0374080              0.0331990
     18.2859000             -0.1144870              0.1362820
      6.5991400              0.1156350              0.3304760
      2.4904900              0.6125950              0.4491460
      0.9445400              0.3937990              0.2657040
SP   3   1.00
      1.2779000             -0.2276060             -0.0175130
      0.3975900              0.00144583             0.2445330
      0.1600950              1.0927900              0.8049340
SP   1   1.00
      0.0556577              1.0000000              1.0000000
D    1   1.00
      0.6500000              1.0000000
D    1   1.00
      0.1625000              1.0000000
F    1   1.00
      0.2500000              1.0000000
****
Si     0
S    6   1.00
  16115.9000000              0.00195948
   2425.5800000              0.01492880
    553.8670000              0.07284780
    156.3400000              0.24613000
     50.0683000              0.48591400
     17.0178000              0.32500200
SP   6   1.00
    292.7180000             -0.00278094             0.00443826
     69.8731000             -0.03571460             0.03266790
     22.3363000             -0.11498500             0.13472100
      8.1503900              0.09356340             0.32867800
      3.1345800              0.60301700             0.44964000
      1.2254300              0.41895900             0.26137200
SP   3   1.00
      1.7273800             -0.24463000            -0.01779510
      0.5729220              0.00431572             0.25353900
      0.2221920              1.09818000             0.80066900
SP   1   1.00
      0.0778369              1.00000000             1.00000000
D    1   1.00
      0.9000000              1.0000000
D    1   1.00
      0.2250000              1.0000000
F    1   1.00
      0.3200000              1.0000000
****
P     0
S    6   1.00
  19413.3000000              0.0018516
   2909.4200000              0.0142062
    661.3640000              0.0699995
    185.7590000              0.2400790
     59.1943000              0.4847620
     20.0310000              0.3352000
SP   6   1.00
    339.4780000             -0.00278217             0.00456462
     81.0101000             -0.0360499              0.03369360
     25.8780000             -0.1166310              0.13975500
      9.4522100              0.0968328              0.33936200
      3.6656600              0.6144180              0.45092100
      1.4674600              0.4037980              0.23858600
SP   3   1.00
      2.1562300             -0.2529230             -0.01776530
      0.7489970              0.0328517              0.27405800
      0.2831450              1.0812500              0.78542100
SP   1   1.00
      0.0998317              1.0000000              1.00000000
D    1   1.00
      1.1000000              1.0000000
D    1   1.00
      0.2750000              1.0000000
F    1   1.00
      0.4500000              1.0000000
****
S     0
S    6   1.00
  21917.1000000              0.0018690
   3301.4900000              0.0142300
    754.1460000              0.0696960
    212.7110000              0.2384870
     67.9896000              0.4833070
     23.0515000              0.3380740
SP   6   1.00
    423.7350000             -0.0023767              0.0040610
    100.7100000             -0.0316930              0.0306810
     32.1599000             -0.1133170              0.1304520
     11.8079000              0.0560900              0.3272050
      4.6311000              0.5922550              0.4528510
      1.8702500              0.4550060              0.2560420
SP   3   1.00
      2.6158400             -0.2503740             -0.0145110
      0.9221670              0.0669570              0.3102630
      0.3412870              1.0545100              0.7544830
SP   1   1.00
      0.1171670              1.0000000              1.0000000
D    1   1.00
      1.3000000              1.0000000
D    1   1.00
      0.3250000              1.0000000
F    1   1.00
      0.5500000              1.0000000
****
Cl     0
S    6   1.00
  25180.1000000              0.0018330
   3780.3500000              0.0140340
    860.4740000              0.0690970
    242.1450000              0.2374520
     77.3349000              0.4830340
     26.2470000              0.3398560
SP   6   1.00
    491.7650000             -0.0022974              0.0039894
    116.9840000             -0.0307140              0.0303180
     37.4153000             -0.1125280              0.1298800
     13.7834000              0.0450160              0.3279510
      5.4521500              0.5893530              0.4535270
      2.2258800              0.4652060              0.2521540
SP   3   1.00
      3.1864900             -0.2518300             -0.0142990
      1.1442700              0.0615890              0.3235720
      0.4203770              1.0601800              0.7435070
SP   1   1.00
      0.1426570              1.0000000              1.0000000
D    1   1.00
      1.5000000              1.0000000
D    1   1.00
      0.3750000              1.0000000
F    1   1.00
      0.7000000              1.0000000
****
}

set {
reference uhf
freeze_core true
e_convergence 10
d_convergence 10
dft_spherical_points 1202
dft_radial_points 99
}

e = energy('b3lyp')

print_out('Grab this energy {0}'.format(e))
--------------------------------------------------------------------------

    Molecular point group: cs

    Geometry (in Bohr), charge = 0, multiplicity = 2:

       Center              X                  Y                   Z               Mass
    ------------   -----------------  -----------------  -----------------  -----------------
         C           -0.258972943523     0.806007816032     0.000000000000    12.000000000000
         O           -2.195093169523    -0.335562888968     0.000000000000    15.994914619570
         C            2.414078295377    -0.244158555668     0.000000000000    12.000000000000
         H            2.381153121377    -2.299432585768     0.000000000000     1.007825032230
         H            3.398049098777     0.467608128332    -1.660087348100     1.007825032230
         H            3.398049098777     0.467608128332     1.660087348100     1.007825032230

  Charge       = 0
  Multiplicity = 2
  Basis Set: ANONYMOUS4F0FA9CD
    Blend: 6-31G_2DFP_
  Basis Set: (ANONYMOUS4F0FA9CD AUX)
    Blend: DEF2-UNIVERSAL-JKFIT

    Orbital Energies [Eh]
    ---------------------

    Alpha Occupied:

       1Ap   -19.187010     2Ap   -10.272240     3Ap   -10.210069
       4Ap    -1.079797     5Ap    -0.762215     6Ap    -0.544347
       7Ap    -0.466537     8Ap    -0.457213     1App   -0.455902
       2App   -0.387059     9Ap    -0.386256    10Ap    -0.192593

    Alpha Virtual:

       3App   -0.019754    11Ap     0.092037    12Ap     0.137756
       4App    0.141558    13Ap     0.216807    14Ap     0.267734
      15Ap     0.427781     5App    0.432085    16Ap     0.443288
       6App    0.493680    17Ap     0.506507    18Ap     0.530839
       7App    0.563112    19Ap     0.578838    20Ap     0.606681
       8App    0.616006    21Ap     0.644210    22Ap     0.717659
       9App    0.766249    23Ap     0.784790    10App    0.833521
      11App    0.917603    24Ap     0.927745    25Ap     0.936354
      12App    1.021841    26Ap     1.083254    27Ap     1.108990
      13App    1.154391    28Ap     1.220832    29Ap     1.305559
      14App    1.317291    30Ap     1.327856    31Ap     1.404891
      15App    1.407530    32Ap     1.468194    33Ap     1.560226
      34Ap     1.629925    16App    1.652868    35Ap     1.722956
      17App    1.813738    36Ap     1.834180    37Ap     1.902633
      18App    2.064783    38Ap     2.165267    39Ap     2.491499
      19App    2.679857    40Ap     2.743297    41Ap     2.785726
      20App    2.842946    21App    2.895624    42Ap     2.973048
      43Ap     3.030600    22App    3.056702    23App    3.106549
      44Ap     3.114043    45Ap     3.182505    24App    3.314786
      46Ap     3.366531    25App    3.390061    26App    3.439252
      27App    3.465472    47Ap     3.484753    48Ap     3.571889
      49Ap     3.735159    50Ap     3.759575    51Ap     3.945719
      28App    3.979678    52Ap     4.051855    53Ap     4.112786
      29App    4.123914    54Ap     4.193361    30App    4.390660
      55Ap     4.433020    31App    4.452710    56Ap     4.533719
      57Ap     4.920507    58Ap     5.036942    32App    5.041987
      33App    5.203578    59Ap     5.215156    60Ap     5.469182
      34App    5.478347    61Ap     5.827213    35App    5.925563
      62Ap     6.099844    63Ap     6.770232    36App    6.772362
      37App    7.071203    64Ap     7.134763    65Ap     7.527759

    Beta Occupied:

       1Ap   -19.178951     2Ap   -10.262158     3Ap   -10.206693
       4Ap    -1.063845     5Ap    -0.750480     6Ap    -0.524530
       1App   -0.451405     7Ap    -0.447383     8Ap    -0.438596
       2App   -0.381856     9Ap    -0.347649

    Beta Virtual:

      10Ap    -0.053040     3App   -0.003463    11Ap     0.094722
      12Ap     0.143363     4App    0.144659    13Ap     0.227333
      14Ap     0.273474     5App    0.434079    15Ap     0.435028
      16Ap     0.465154     6App    0.500364    17Ap     0.527926
      18Ap     0.539869     7App    0.569521    19Ap     0.583051
       8App    0.623176    20Ap     0.625605    21Ap     0.649653
      22Ap     0.739443     9App    0.777461    23Ap     0.794862
      10App    0.834292    11App    0.922427    24Ap     0.944112
      25Ap     0.951624    12App    1.025985    26Ap     1.089324
      27Ap     1.111109    13App    1.160572    28Ap     1.230163
      29Ap     1.311186    14App    1.320069    30Ap     1.334631
      15App    1.413058    31Ap     1.415274    32Ap     1.480421
      33Ap     1.571456    34Ap     1.643235    16App    1.667187
      35Ap     1.729243    17App    1.816944    36Ap     1.848120
      37Ap     1.909168    18App    2.071496    38Ap     2.186673
      39Ap     2.504171    19App    2.694083    40Ap     2.757823
      41Ap     2.806909    20App    2.858565    21App    2.897236
      42Ap     2.982335    43Ap     3.047258    22App    3.065160
      44Ap     3.122625    23App    3.125173    45Ap     3.217311
      24App    3.358557    46Ap     3.378230    25App    3.396318
      26App    3.447374    27App    3.481374    47Ap     3.507578
      48Ap     3.585183    49Ap     3.760835    50Ap     3.769275
      51Ap     3.954307    28App    3.988963    52Ap     4.068289
      29App    4.126695    53Ap     4.127869    54Ap     4.204688
      30App    4.392932    55Ap     4.439180    31App    4.456870
      56Ap     4.544493    57Ap     4.924353    58Ap     5.054481
      32App    5.059962    33App    5.205795    59Ap     5.220778
      60Ap     5.481862    34App    5.492163    61Ap     5.840441
      35App    5.931144    62Ap     6.123035    63Ap     6.799478
      36App    6.801946    37App    7.075500    64Ap     7.164124
      65Ap     7.539430

    Final Occupation by Irrep:
             Ap   App
    DOCC [     9,    2 ]
    SOCC [     1,    0 ]

  @DF-UKS Final Energy:  -153.18834443777786

   => Energetics <=

    Nuclear Repulsion Energy =             62.7211061194189128
    One-Electron Energy =                -331.4442949166439689
    Two-Electron Energy =                 132.1147975301972792
    DFT Exchange-Correlation Energy =     -16.5799531707500556
    Empirical Dispersion Energy =           0.0000000000000000
    VV10 Nonlocal Energy =                  0.0000000000000000
    Total Energy =                       -153.1883444377778574

  UHF NO Occupations:
  HONO-2 :    8 Ap 1.9997845
  HONO-1 :    9 Ap 1.9991998
  HONO-0 :   10 Ap 1.0000000
  LUNO+0 :   11 Ap 0.0008002
  LUNO+1 :   12 Ap 0.0002155
  LUNO+2 :    3App 0.0001824
  LUNO+3 :   13 Ap 0.0000617

Computation Completed

Properties will be evaluated at   0.000000,   0.000000,   0.000000 [a0]

Properties computed using the SCF density matrix

  Nuclear Dipole Moment: [e a0]
     X:     4.5471      Y:    -0.6776      Z:     0.0000

  Electronic Dipole Moment: [e a0]
     X:    -3.6102      Y:     0.6275      Z:     0.0000

  Dipole Moment: [e a0]
     X:     0.9369      Y:    -0.0501      Z:     0.0000     Total:     0.9383

  Dipole Moment: [D]
     X:     2.3814      Y:    -0.1274      Z:     0.0000     Total:     2.3848

*** tstop() called on n054 at Tue Mar 15 10:36:08 2022
Module time:
	user time   =      50.53 seconds =       0.84 minutes
	system time =       0.52 seconds =       0.01 minutes
	total time  =         51 seconds =       0.85 minutes
Total time:
	user time   =      50.53 seconds =       0.84 minutes
	system time =       0.52 seconds =       0.01 minutes
	total time  =         51 seconds =       0.85 minutes
Grab this energy -153.18834443777786
    Psi4 stopped on: Tuesday, 15 March 2022 10:36AM
    Psi4 wall time for execution: 0:00:51.10

*** Psi4 exiting successfully. Buy a developer a beer!
