                               Psi4 1.4a2.dev629

  ==> Input File <==

--------------------------------------------------------------------------
import os
memory 14 GB

molecule {
 C   -0.2584231967    0.8045376382    0.0041439686
 O   -2.1912405282   -0.3328708303   -0.0028176820
 C    2.4070708183   -0.2452506557    0.0012617432
 H    2.3837183593   -2.3090029372   -0.0004403188
 H    3.3918132634    0.4672828943   -1.6650773970
 H    3.3916992662    0.4696695386    1.6629296861
units bohr
0 2
}

basis {

assign 6-31g_2dfp_

[ 6-31g_2dfp_ ]

spherical

!----------------------------------------------------------------------
! Basis Set Exchange
! Version v0.8.13
! https://www.basissetexchange.org
!----------------------------------------------------------------------
!   Basis set: 6-31G(2df,p)
! Description: 6-31G(2df,p)
!        Role: orbital
!     Version: 0  (Data from the original Basis Set Exchange)
!----------------------------------------------------------------------

****
H     0
S    3   1.00
     18.7311370              0.03349460
      2.8253937              0.23472695
      0.6401217              0.81375733
S    1   1.00
      0.1612778              1.00000000
P    1   1.00
      1.5000000              1.0000000
P    1   1.00
      0.3750000              1.0000000
****
B     0
S    6   1.00
   2068.8823000              0.0018663
    310.6495700              0.0142515
     70.6830330              0.0695516
     19.8610800              0.2325729
      6.2993048              0.4670787
      2.1270270              0.3634314
SP   3   1.00
      4.7279710             -0.1303938              0.0745976
      1.1903377             -0.1307889              0.3078467
      0.3594117              1.1309444              0.7434568
SP   1   1.00
      0.1267512              1.0000000              1.0000000
D    1   1.00
      0.8020000              1.0000000
D    1   1.00
      0.2005000              1.0000000
F    1   1.00
      0.5000000              1.0000000
****
C     0
S    6   1.00
   3047.5249000              0.0018347
    457.3695100              0.0140373
    103.9486900              0.0688426
     29.2101550              0.2321844
      9.2866630              0.4679413
      3.1639270              0.3623120
SP   3   1.00
      7.8682724             -0.1193324              0.0689991
      1.8812885             -0.1608542              0.3164240
      0.5442493              1.1434564              0.7443083
SP   1   1.00
      0.1687144              1.0000000              1.0000000
D    1   1.00
      1.2520000              1.0000000
D    1   1.00
      0.3130000              1.0000000
F    1   1.00
      0.8000000              1.0000000
****
N     0
S    6   1.00
   4173.5110000              0.0018348
    627.4579000              0.0139950
    142.9021000              0.0685870
     40.2343300              0.2322410
     12.8202100              0.4690700
      4.3904370              0.3604550
SP   3   1.00
     11.6263580             -0.1149610              0.0675800
      2.7162800             -0.1691180              0.3239070
      0.7722180              1.1458520              0.7408950
SP   1   1.00
      0.2120313              1.0000000              1.0000000
D    1   1.00
      1.8260000              1.0000000
D    1   1.00
      0.4565000              1.0000000
F    1   1.00
      1.0000000              1.0000000
****
O     0
S    6   1.00
   5484.6717000              0.0018311
    825.2349500              0.0139501
    188.0469600              0.0684451
     52.9645000              0.2327143
     16.8975700              0.4701930
      5.7996353              0.3585209
SP   3   1.00
     15.5396160             -0.1107775              0.0708743
      3.5999336             -0.1480263              0.3397528
      1.0137618              1.1307670              0.7271586
SP   1   1.00
      0.2700058              1.0000000              1.0000000
D    1   1.00
      2.5840000              1.0000000
D    1   1.00
      0.6460000              1.0000000
F    1   1.00
      1.4000000              1.0000000
****
F     0
S    6   1.00
   7001.7130900              0.0018196169
   1051.3660900              0.0139160796
    239.2856900              0.0684053245
     67.3974453              0.233185760
     21.5199573              0.471267439
      7.40310130             0.356618546
SP   3   1.00
     20.8479528             -0.108506975            0.0716287243
      4.80830834            -0.146451658            0.3459121030
      1.34406986             1.128688580            0.7224699570
SP   1   1.00
      0.358151393            1.0000000              1.0000000
D    1   1.00
      3.5000000              1.0000000
D    1   1.00
      0.8750000              1.0000000
F    1   1.00
      1.8500000              1.0000000
****
Al     0
S    6   1.00
  13983.1000000              0.00194267
   2098.7500000              0.0148599
    477.7050000              0.0728494
    134.3600000              0.2468300
     42.8709000              0.4872580
     14.5189000              0.3234960
SP   6   1.00
    239.6680000             -0.00292619             0.00460285
     57.4419000             -0.0374080              0.0331990
     18.2859000             -0.1144870              0.1362820
      6.5991400              0.1156350              0.3304760
      2.4904900              0.6125950              0.4491460
      0.9445400              0.3937990              0.2657040
SP   3   1.00
      1.2779000             -0.2276060             -0.0175130
      0.3975900              0.00144583             0.2445330
      0.1600950              1.0927900              0.8049340
SP   1   1.00
      0.0556577              1.0000000              1.0000000
D    1   1.00
      0.6500000              1.0000000
D    1   1.00
      0.1625000              1.0000000
F    1   1.00
      0.2500000              1.0000000
****
Si     0
S    6   1.00
  16115.9000000              0.00195948
   2425.5800000              0.01492880
    553.8670000              0.07284780
    156.3400000              0.24613000
     50.0683000              0.48591400
     17.0178000              0.32500200
SP   6   1.00
    292.7180000             -0.00278094             0.00443826
     69.8731000             -0.03571460             0.03266790
     22.3363000             -0.11498500             0.13472100
      8.1503900              0.09356340             0.32867800
      3.1345800              0.60301700             0.44964000
      1.2254300              0.41895900             0.26137200
SP   3   1.00
      1.7273800             -0.24463000            -0.01779510
      0.5729220              0.00431572             0.25353900
      0.2221920              1.09818000             0.80066900
SP   1   1.00
      0.0778369              1.00000000             1.00000000
D    1   1.00
      0.9000000              1.0000000
D    1   1.00
      0.2250000              1.0000000
F    1   1.00
      0.3200000              1.0000000
****
P     0
S    6   1.00
  19413.3000000              0.0018516
   2909.4200000              0.0142062
    661.3640000              0.0699995
    185.7590000              0.2400790
     59.1943000              0.4847620
     20.0310000              0.3352000
SP   6   1.00
    339.4780000             -0.00278217             0.00456462
     81.0101000             -0.0360499              0.03369360
     25.8780000             -0.1166310              0.13975500
      9.4522100              0.0968328              0.33936200
      3.6656600              0.6144180              0.45092100
      1.4674600              0.4037980              0.23858600
SP   3   1.00
      2.1562300             -0.2529230             -0.01776530
      0.7489970              0.0328517              0.27405800
      0.2831450              1.0812500              0.78542100
SP   1   1.00
      0.0998317              1.0000000              1.00000000
D    1   1.00
      1.1000000              1.0000000
D    1   1.00
      0.2750000              1.0000000
F    1   1.00
      0.4500000              1.0000000
****
S     0
S    6   1.00
  21917.1000000              0.0018690
   3301.4900000              0.0142300
    754.1460000              0.0696960
    212.7110000              0.2384870
     67.9896000              0.4833070
     23.0515000              0.3380740
SP   6   1.00
    423.7350000             -0.0023767              0.0040610
    100.7100000             -0.0316930              0.0306810
     32.1599000             -0.1133170              0.1304520
     11.8079000              0.0560900              0.3272050
      4.6311000              0.5922550              0.4528510
      1.8702500              0.4550060              0.2560420
SP   3   1.00
      2.6158400             -0.2503740             -0.0145110
      0.9221670              0.0669570              0.3102630
      0.3412870              1.0545100              0.7544830
SP   1   1.00
      0.1171670              1.0000000              1.0000000
D    1   1.00
      1.3000000              1.0000000
D    1   1.00
      0.3250000              1.0000000
F    1   1.00
      0.5500000              1.0000000
****
Cl     0
S    6   1.00
  25180.1000000              0.0018330
   3780.3500000              0.0140340
    860.4740000              0.0690970
    242.1450000              0.2374520
     77.3349000              0.4830340
     26.2470000              0.3398560
SP   6   1.00
    491.7650000             -0.0022974              0.0039894
    116.9840000             -0.0307140              0.0303180
     37.4153000             -0.1125280              0.1298800
     13.7834000              0.0450160              0.3279510
      5.4521500              0.5893530              0.4535270
      2.2258800              0.4652060              0.2521540
SP   3   1.00
      3.1864900             -0.2518300             -0.0142990
      1.1442700              0.0615890              0.3235720
      0.4203770              1.0601800              0.7435070
SP   1   1.00
      0.1426570              1.0000000              1.0000000
D    1   1.00
      1.5000000              1.0000000
D    1   1.00
      0.3750000              1.0000000
F    1   1.00
      0.7000000              1.0000000
****
}

set {
reference uhf
freeze_core true
e_convergence 10
d_convergence 10
dft_spherical_points 1202
dft_radial_points 99
}

e = energy('b3lyp')

print_out('Grab this energy {0}'.format(e))
--------------------------------------------------------------------------

    Molecular point group: c1

    Geometry (in Bohr), charge = 0, multiplicity = 2:

       Center              X                  Y                   Z               Mass
    ------------   -----------------  -----------------  -----------------  -----------------
         C           -0.257819526167     0.804434974285     0.003744333058    12.000000000000
         O           -2.190636857667    -0.332973494215    -0.003217317542    15.994914619570
         C            2.407674488833    -0.245353319615     0.000862107658    12.000000000000
         H            2.384322029833    -2.309105601115    -0.000839954342     1.007825032230
         H            3.392416933933     0.467180230385    -1.665477032542     1.007825032230
         H            3.392302936733     0.469566874685     1.662530050558     1.007825032230

  Charge       = 0
  Multiplicity = 2
  Basis Set: ANONYMOUS29001C86
    Blend: 6-31G_2DFP_
  Basis Set: (ANONYMOUS29001C86 AUX)
    Blend: DEF2-UNIVERSAL-JKFIT

    Orbital Energies [Eh]
    ---------------------

    Alpha Occupied:

       1A    -19.186854     2A    -10.271536     3A    -10.210449
       4A     -1.081217     5A     -0.762133     6A     -0.544075
       7A     -0.466586     8A     -0.457579     9A     -0.456175
      10A     -0.387324    11A     -0.385936    12A     -0.192156

    Alpha Virtual:

      13A     -0.018951    14A      0.091655    15A      0.136810
      16A      0.141126    17A      0.218456    18A      0.268278
      19A      0.428151    20A      0.431782    21A      0.443823
      22A      0.493543    23A      0.506148    24A      0.530110
      25A      0.562557    26A      0.577321    27A      0.608560
      28A      0.615900    29A      0.644194    30A      0.717629
      31A      0.766051    32A      0.785292    33A      0.832354
      34A      0.917300    35A      0.927068    36A      0.935703
      37A      1.023145    38A      1.085442    39A      1.108418
      40A      1.153309    41A      1.221716    42A      1.306938
      43A      1.317060    44A      1.328031    45A      1.403006
      46A      1.406438    47A      1.467896    48A      1.560142
      49A      1.630552    50A      1.653781    51A      1.719244
      52A      1.813206    53A      1.834769    54A      1.902308
      55A      2.065142    56A      2.166453    57A      2.495426
      58A      2.680193    59A      2.744542    60A      2.783679
      61A      2.841906    62A      2.894400    63A      2.973658
      64A      3.031081    65A      3.058353    66A      3.104964
      67A      3.115826    68A      3.182353    69A      3.314720
      70A      3.368908    71A      3.393331    72A      3.440213
      73A      3.465968    74A      3.486090    75A      3.569074
      76A      3.739617    77A      3.763761    78A      3.944095
      79A      3.982372    80A      4.056306    81A      4.110448
      82A      4.120423    83A      4.190136    84A      4.386824
      85A      4.433986    86A      4.448001    87A      4.534691
      88A      4.916646    89A      5.036990    90A      5.042306
      91A      5.197469    92A      5.207338    93A      5.473684
      94A      5.482729    95A      5.826846    96A      5.930387
      97A      6.104694    98A      6.770743    99A      6.772894
     100A      7.071283   101A      7.135147   102A      7.529970

    Beta Occupied:

       1A    -19.178780     2A    -10.261469     3A    -10.207083
       4A     -1.065272     5A     -0.750343     6A     -0.524383
       7A     -0.451640     8A     -0.446866     9A     -0.439051
      10A     -0.382156    11A     -0.347753

    Beta Virtual:

      12A     -0.052628    13A     -0.002682    14A      0.094349
      15A      0.142553    16A      0.144265    17A      0.228803
      18A      0.273960    19A      0.433728    20A      0.435216
      21A      0.466059    22A      0.500241    23A      0.527456
      24A      0.538998    25A      0.568887    26A      0.581520
      27A      0.623122    28A      0.627205    29A      0.649910
      30A      0.739603    31A      0.777188    32A      0.795279
      33A      0.833139    34A      0.922146    35A      0.943430
      36A      0.951036    37A      1.027333    38A      1.091520
      39A      1.110501    40A      1.159512    41A      1.230955
      42A      1.312540    43A      1.319910    44A      1.334816
      45A      1.411921    46A      1.413426    47A      1.480248
      48A      1.571286    49A      1.643801    50A      1.668173
      51A      1.725484    52A      1.816374    53A      1.848937
      54A      1.908991    55A      2.071857    56A      2.187888
      57A      2.508101    58A      2.694443    59A      2.759011
      60A      2.804774    61A      2.857279    62A      2.896051
      63A      2.983187    64A      3.047750    65A      3.066898
      66A      3.123586    67A      3.124363    68A      3.217068
      69A      3.358405    70A      3.380339    71A      3.399483
      72A      3.448250    73A      3.481886    74A      3.509013
      75A      3.582471    76A      3.765376    77A      3.773133
      78A      3.952776    79A      3.991645    80A      4.072680
      81A      4.123243    82A      4.125204    83A      4.201743
      84A      4.389011    85A      4.440193    86A      4.452283
      87A      4.545625    88A      4.920487    89A      5.054521
      90A      5.060333    91A      5.199644    92A      5.213092
      93A      5.486336    94A      5.496625    95A      5.840101
      96A      5.935979    97A      6.127917    98A      6.800057
      99A      6.802551   100A      7.075589   101A      7.164555
     102A      7.541645

    Final Occupation by Irrep:
              A
    DOCC [    11 ]
    SOCC [     1 ]

  @DF-UKS Final Energy:  -153.18844943743551

   => Energetics <=

    Nuclear Repulsion Energy =             62.8023359594296409
    One-Electron Energy =                -331.6046411213831107
    Two-Electron Energy =                 132.1943028240898172
    DFT Exchange-Correlation Energy =     -16.5804470995718276
    Empirical Dispersion Energy =           0.0000000000000000
    VV10 Nonlocal Energy =                  0.0000000000000000
    Total Energy =                       -153.1884494374355086

  UHF NO Occupations:
  HONO-2 :   10  A 1.9997863
  HONO-1 :   11  A 1.9992003
  HONO-0 :   12  A 1.0000000
  LUNO+0 :   13  A 0.0007997
  LUNO+1 :   14  A 0.0002137
  LUNO+2 :   15  A 0.0001800
  LUNO+3 :   16  A 0.0000616

Computation Completed

Properties will be evaluated at   0.000000,   0.000000,   0.000000 [a0]

Properties computed using the SCF density matrix

  Nuclear Dipole Moment: [e a0]
     X:     4.5431      Y:    -0.6817      Z:    -0.0019

  Electronic Dipole Moment: [e a0]
     X:    -3.6106      Y:     0.6314      Z:     0.0019

  Dipole Moment: [e a0]
     X:     0.9325      Y:    -0.0503      Z:    -0.0000     Total:     0.9338

  Dipole Moment: [D]
     X:     2.3701      Y:    -0.1278      Z:    -0.0000     Total:     2.3735

*** tstop() called on n044 at Tue Mar 15 10:26:21 2022
Module time:
	user time   =      62.35 seconds =       1.04 minutes
	system time =       0.42 seconds =       0.01 minutes
	total time  =         63 seconds =       1.05 minutes
Total time:
	user time   =      62.35 seconds =       1.04 minutes
	system time =       0.42 seconds =       0.01 minutes
	total time  =         63 seconds =       1.05 minutes
Grab this energy -153.1884494374355
    Psi4 stopped on: Tuesday, 15 March 2022 10:26AM
    Psi4 wall time for execution: 0:01:02.82

*** Psi4 exiting successfully. Buy a developer a beer!
