                               Psi4 1.4a2.dev629

  ==> Input File <==

--------------------------------------------------------------------------
import os
memory 14 GB

molecule {
 C   -0.2617332593    0.8110714665    0.0000000000
 O   -2.1908051758   -0.3346023689    0.0000000000
 C    2.4099764758   -0.2485482710   -0.0000000000
 H    2.3865884322   -2.3084444665    0.0000000000
 H    3.3903057547    0.4674446438   -1.6644567888
 H    3.3903057547    0.4674446438    1.6644567888
units bohr
0 2
}

basis {

assign 6-31g_2dfp_

[ 6-31g_2dfp_ ]

spherical

!----------------------------------------------------------------------
! Basis Set Exchange
! Version v0.8.13
! https://www.basissetexchange.org
!----------------------------------------------------------------------
!   Basis set: 6-31G(2df,p)
! Description: 6-31G(2df,p)
!        Role: orbital
!     Version: 0  (Data from the original Basis Set Exchange)
!----------------------------------------------------------------------

****
H     0
S    3   1.00
     18.7311370              0.03349460
      2.8253937              0.23472695
      0.6401217              0.81375733
S    1   1.00
      0.1612778              1.00000000
P    1   1.00
      1.5000000              1.0000000
P    1   1.00
      0.3750000              1.0000000
****
B     0
S    6   1.00
   2068.8823000              0.0018663
    310.6495700              0.0142515
     70.6830330              0.0695516
     19.8610800              0.2325729
      6.2993048              0.4670787
      2.1270270              0.3634314
SP   3   1.00
      4.7279710             -0.1303938              0.0745976
      1.1903377             -0.1307889              0.3078467
      0.3594117              1.1309444              0.7434568
SP   1   1.00
      0.1267512              1.0000000              1.0000000
D    1   1.00
      0.8020000              1.0000000
D    1   1.00
      0.2005000              1.0000000
F    1   1.00
      0.5000000              1.0000000
****
C     0
S    6   1.00
   3047.5249000              0.0018347
    457.3695100              0.0140373
    103.9486900              0.0688426
     29.2101550              0.2321844
      9.2866630              0.4679413
      3.1639270              0.3623120
SP   3   1.00
      7.8682724             -0.1193324              0.0689991
      1.8812885             -0.1608542              0.3164240
      0.5442493              1.1434564              0.7443083
SP   1   1.00
      0.1687144              1.0000000              1.0000000
D    1   1.00
      1.2520000              1.0000000
D    1   1.00
      0.3130000              1.0000000
F    1   1.00
      0.8000000              1.0000000
****
N     0
S    6   1.00
   4173.5110000              0.0018348
    627.4579000              0.0139950
    142.9021000              0.0685870
     40.2343300              0.2322410
     12.8202100              0.4690700
      4.3904370              0.3604550
SP   3   1.00
     11.6263580             -0.1149610              0.0675800
      2.7162800             -0.1691180              0.3239070
      0.7722180              1.1458520              0.7408950
SP   1   1.00
      0.2120313              1.0000000              1.0000000
D    1   1.00
      1.8260000              1.0000000
D    1   1.00
      0.4565000              1.0000000
F    1   1.00
      1.0000000              1.0000000
****
O     0
S    6   1.00
   5484.6717000              0.0018311
    825.2349500              0.0139501
    188.0469600              0.0684451
     52.9645000              0.2327143
     16.8975700              0.4701930
      5.7996353              0.3585209
SP   3   1.00
     15.5396160             -0.1107775              0.0708743
      3.5999336             -0.1480263              0.3397528
      1.0137618              1.1307670              0.7271586
SP   1   1.00
      0.2700058              1.0000000              1.0000000
D    1   1.00
      2.5840000              1.0000000
D    1   1.00
      0.6460000              1.0000000
F    1   1.00
      1.4000000              1.0000000
****
F     0
S    6   1.00
   7001.7130900              0.0018196169
   1051.3660900              0.0139160796
    239.2856900              0.0684053245
     67.3974453              0.233185760
     21.5199573              0.471267439
      7.40310130             0.356618546
SP   3   1.00
     20.8479528             -0.108506975            0.0716287243
      4.80830834            -0.146451658            0.3459121030
      1.34406986             1.128688580            0.7224699570
SP   1   1.00
      0.358151393            1.0000000              1.0000000
D    1   1.00
      3.5000000              1.0000000
D    1   1.00
      0.8750000              1.0000000
F    1   1.00
      1.8500000              1.0000000
****
Al     0
S    6   1.00
  13983.1000000              0.00194267
   2098.7500000              0.0148599
    477.7050000              0.0728494
    134.3600000              0.2468300
     42.8709000              0.4872580
     14.5189000              0.3234960
SP   6   1.00
    239.6680000             -0.00292619             0.00460285
     57.4419000             -0.0374080              0.0331990
     18.2859000             -0.1144870              0.1362820
      6.5991400              0.1156350              0.3304760
      2.4904900              0.6125950              0.4491460
      0.9445400              0.3937990              0.2657040
SP   3   1.00
      1.2779000             -0.2276060             -0.0175130
      0.3975900              0.00144583             0.2445330
      0.1600950              1.0927900              0.8049340
SP   1   1.00
      0.0556577              1.0000000              1.0000000
D    1   1.00
      0.6500000              1.0000000
D    1   1.00
      0.1625000              1.0000000
F    1   1.00
      0.2500000              1.0000000
****
Si     0
S    6   1.00
  16115.9000000              0.00195948
   2425.5800000              0.01492880
    553.8670000              0.07284780
    156.3400000              0.24613000
     50.0683000              0.48591400
     17.0178000              0.32500200
SP   6   1.00
    292.7180000             -0.00278094             0.00443826
     69.8731000             -0.03571460             0.03266790
     22.3363000             -0.11498500             0.13472100
      8.1503900              0.09356340             0.32867800
      3.1345800              0.60301700             0.44964000
      1.2254300              0.41895900             0.26137200
SP   3   1.00
      1.7273800             -0.24463000            -0.01779510
      0.5729220              0.00431572             0.25353900
      0.2221920              1.09818000             0.80066900
SP   1   1.00
      0.0778369              1.00000000             1.00000000
D    1   1.00
      0.9000000              1.0000000
D    1   1.00
      0.2250000              1.0000000
F    1   1.00
      0.3200000              1.0000000
****
P     0
S    6   1.00
  19413.3000000              0.0018516
   2909.4200000              0.0142062
    661.3640000              0.0699995
    185.7590000              0.2400790
     59.1943000              0.4847620
     20.0310000              0.3352000
SP   6   1.00
    339.4780000             -0.00278217             0.00456462
     81.0101000             -0.0360499              0.03369360
     25.8780000             -0.1166310              0.13975500
      9.4522100              0.0968328              0.33936200
      3.6656600              0.6144180              0.45092100
      1.4674600              0.4037980              0.23858600
SP   3   1.00
      2.1562300             -0.2529230             -0.01776530
      0.7489970              0.0328517              0.27405800
      0.2831450              1.0812500              0.78542100
SP   1   1.00
      0.0998317              1.0000000              1.00000000
D    1   1.00
      1.1000000              1.0000000
D    1   1.00
      0.2750000              1.0000000
F    1   1.00
      0.4500000              1.0000000
****
S     0
S    6   1.00
  21917.1000000              0.0018690
   3301.4900000              0.0142300
    754.1460000              0.0696960
    212.7110000              0.2384870
     67.9896000              0.4833070
     23.0515000              0.3380740
SP   6   1.00
    423.7350000             -0.0023767              0.0040610
    100.7100000             -0.0316930              0.0306810
     32.1599000             -0.1133170              0.1304520
     11.8079000              0.0560900              0.3272050
      4.6311000              0.5922550              0.4528510
      1.8702500              0.4550060              0.2560420
SP   3   1.00
      2.6158400             -0.2503740             -0.0145110
      0.9221670              0.0669570              0.3102630
      0.3412870              1.0545100              0.7544830
SP   1   1.00
      0.1171670              1.0000000              1.0000000
D    1   1.00
      1.3000000              1.0000000
D    1   1.00
      0.3250000              1.0000000
F    1   1.00
      0.5500000              1.0000000
****
Cl     0
S    6   1.00
  25180.1000000              0.0018330
   3780.3500000              0.0140340
    860.4740000              0.0690970
    242.1450000              0.2374520
     77.3349000              0.4830340
     26.2470000              0.3398560
SP   6   1.00
    491.7650000             -0.0022974              0.0039894
    116.9840000             -0.0307140              0.0303180
     37.4153000             -0.1125280              0.1298800
     13.7834000              0.0450160              0.3279510
      5.4521500              0.5893530              0.4535270
      2.2258800              0.4652060              0.2521540
SP   3   1.00
      3.1864900             -0.2518300             -0.0142990
      1.1442700              0.0615890              0.3235720
      0.4203770              1.0601800              0.7435070
SP   1   1.00
      0.1426570              1.0000000              1.0000000
D    1   1.00
      1.5000000              1.0000000
D    1   1.00
      0.3750000              1.0000000
F    1   1.00
      0.7000000              1.0000000
****
}

set {
reference uhf
freeze_core true
e_convergence 10
d_convergence 10
dft_spherical_points 1202
dft_radial_points 99
}

e = energy('b3lyp')

print_out('Grab this energy {0}'.format(e))
--------------------------------------------------------------------------

    Molecular point group: cs

    Geometry (in Bohr), charge = 0, multiplicity = 2:

       Center              X                  Y                   Z               Mass
    ------------   -----------------  -----------------  -----------------  -----------------
         C           -0.261177925626     0.810745123938     0.000000000000    12.000000000000
         O           -2.190249842126    -0.334928711462     0.000000000000    15.994914619570
         C            2.410531809474    -0.248874613562     0.000000000000    12.000000000000
         H            2.387143765874    -2.308770809062     0.000000000000     1.007825032230
         H            3.390861088374     0.467118301238    -1.664456788800     1.007825032230
         H            3.390861088374     0.467118301238     1.664456788800     1.007825032230

  Charge       = 0
  Multiplicity = 2
  Basis Set: ANONYMOUS8504869C
    Blend: 6-31G_2DFP_
  Basis Set: (ANONYMOUS8504869C AUX)
    Blend: DEF2-UNIVERSAL-JKFIT

    Orbital Energies [Eh]
    ---------------------

    Alpha Occupied:

       1Ap   -19.187153     2Ap   -10.272001     3Ap   -10.210335
       4Ap    -1.081190     5Ap    -0.761349     6Ap    -0.544055
       7Ap    -0.466204     8Ap    -0.457414     1App   -0.455934
       2App   -0.387527     9Ap    -0.385995    10Ap    -0.193048

    Alpha Virtual:

       3App   -0.019072    11Ap     0.091898    12Ap     0.137432
       4App    0.141141    13Ap     0.216762    14Ap     0.268113
      15Ap     0.428064     5App    0.432164    16Ap     0.443262
       6App    0.493485    17Ap     0.506351    18Ap     0.530520
       7App    0.563112    19Ap     0.577667    20Ap     0.607382
       8App    0.615093    21Ap     0.644056    22Ap     0.717688
       9App    0.766640    23Ap     0.785273    10App    0.832662
      11App    0.917168    24Ap     0.926753    25Ap     0.935826
      12App    1.022453    26Ap     1.086306    27Ap     1.107924
      13App    1.152094    28Ap     1.219350    29Ap     1.305585
      14App    1.316576    30Ap     1.327321    31Ap     1.404338
      15App    1.407061    32Ap     1.466859    33Ap     1.559826
      34Ap     1.628557    16App    1.653363    35Ap     1.720663
      17App    1.812999    36Ap     1.833685    37Ap     1.902353
      18App    2.063595    38Ap     2.162751    39Ap     2.494980
      19App    2.679242    40Ap     2.742761    41Ap     2.783624
      20App    2.843017    21App    2.894718    42Ap     2.971607
      43Ap     3.034031    22App    3.059100    23App    3.106141
      44Ap     3.112288    45Ap     3.183961    24App    3.313948
      46Ap     3.369841    25App    3.394569    26App    3.438855
      27App    3.464045    47Ap     3.486035    48Ap     3.571840
      49Ap     3.737109    50Ap     3.758492    51Ap     3.941072
      28App    3.980741    52Ap     4.051830    53Ap     4.108051
      29App    4.121108    54Ap     4.188118    30App    4.387123
      55Ap     4.431204    31App    4.449172    56Ap     4.532036
      57Ap     4.919302    58Ap     5.036920    32App    5.041865
      33App    5.198280    59Ap     5.209213    60Ap     5.472285
      34App    5.480160    61Ap     5.825554    35App    5.928611
      62Ap     6.100983    63Ap     6.770215    36App    6.772289
      37App    7.069998    64Ap     7.135080    65Ap     7.528954

    Beta Occupied:

       1Ap   -19.179061     2Ap   -10.261969     3Ap   -10.206919
       4Ap    -1.065226     5Ap    -0.749542     6Ap    -0.524259
       1App   -0.451381     7Ap    -0.446958     8Ap    -0.438414
       2App   -0.382338     9Ap    -0.347740

    Beta Virtual:

      10Ap    -0.053693     3App   -0.002772    11Ap     0.094588
      12Ap     0.143080     4App    0.144244    13Ap     0.227356
      14Ap     0.273822     5App    0.434122    15Ap     0.435691
      16Ap     0.464908     6App    0.500157    17Ap     0.527817
      18Ap     0.539329     7App    0.569561    19Ap     0.581839
       8App    0.622223    20Ap     0.626059    21Ap     0.649608
      22Ap     0.739456     9App    0.777751    23Ap     0.795277
      10App    0.833406    11App    0.922005    24Ap     0.943623
      25Ap     0.950743    12App    1.026647    26Ap     1.092404
      27Ap     1.110001    13App    1.158368    28Ap     1.228576
      29Ap     1.311255    14App    1.319410    30Ap     1.334105
      15App    1.412616    31Ap     1.414769    32Ap     1.479269
      33Ap     1.571006    34Ap     1.641747    16App    1.667792
      35Ap     1.726890    17App    1.816068    36Ap     1.847750
      37Ap     1.909032    18App    2.070326    38Ap     2.184143
      39Ap     2.507673    19App    2.693549    40Ap     2.757144
      41Ap     2.804777    20App    2.858202    21App    2.896343
      42Ap     2.981206    43Ap     3.050582    22App    3.067665
      44Ap     3.120710    23App    3.124697    45Ap     3.218567
      24App    3.357618    46Ap     3.381307    25App    3.400887
      26App    3.447255    27App    3.479760    47Ap     3.509042
      48Ap     3.585178    49Ap     3.762509    50Ap     3.768268
      51Ap     3.949780    28App    3.990072    52Ap     4.068412
      53Ap     4.123139    29App    4.123888    54Ap     4.199404
      30App    4.389421    55Ap     4.437360    31App    4.453296
      56Ap     4.542885    57Ap     4.923172    58Ap     5.054497
      32App    5.059954    33App    5.200446    59Ap     5.214894
      60Ap     5.484949    34App    5.494080    61Ap     5.838803
      35App    5.934200    62Ap     6.124224    63Ap     6.799622
      36App    6.802035    37App    7.074308    64Ap     7.164540
      65Ap     7.540646

    Final Occupation by Irrep:
             Ap   App
    DOCC [     9,    2 ]
    SOCC [     1,    0 ]

  @DF-UKS Final Energy:  -153.18840733922170

   => Energetics <=

    Nuclear Repulsion Energy =             62.7502263035599626
    One-Electron Energy =                -331.5017759189120738
    Two-Electron Energy =                 132.1426212059499221
    DFT Exchange-Correlation Energy =     -16.5794789298194942
    Empirical Dispersion Energy =           0.0000000000000000
    VV10 Nonlocal Energy =                  0.0000000000000000
    Total Energy =                       -153.1884073392216976

  UHF NO Occupations:
  HONO-2 :    8 Ap 1.9997798
  HONO-1 :    9 Ap 1.9991993
  HONO-0 :   10 Ap 1.0000000
  LUNO+0 :   11 Ap 0.0008007
  LUNO+1 :   12 Ap 0.0002202
  LUNO+2 :    3App 0.0001782
  LUNO+3 :   13 Ap 0.0000619

Computation Completed

Properties will be evaluated at   0.000000,   0.000000,   0.000000 [a0]

Properties computed using the SCF density matrix

  Nuclear Dipole Moment: [e a0]
     X:     4.5430      Y:    -0.6827      Z:     0.0000

  Electronic Dipole Moment: [e a0]
     X:    -3.6146      Y:     0.6320      Z:     0.0000

  Dipole Moment: [e a0]
     X:     0.9284      Y:    -0.0507      Z:     0.0000     Total:     0.9298

  Dipole Moment: [D]
     X:     2.3597      Y:    -0.1289      Z:     0.0000     Total:     2.3633

*** tstop() called on n041 at Tue Mar 15 10:29:39 2022
Module time:
	user time   =      65.71 seconds =       1.10 minutes
	system time =       0.45 seconds =       0.01 minutes
	total time  =         66 seconds =       1.10 minutes
Total time:
	user time   =      65.71 seconds =       1.10 minutes
	system time =       0.45 seconds =       0.01 minutes
	total time  =         66 seconds =       1.10 minutes
Grab this energy -153.1884073392217
    Psi4 stopped on: Tuesday, 15 March 2022 10:29AM
    Psi4 wall time for execution: 0:01:06.21

*** Psi4 exiting successfully. Buy a developer a beer!
