                               Psi4 1.4a2.dev629

  ==> Input File <==

--------------------------------------------------------------------------
import os
memory 14 GB

molecule {
 C   -0.2557291391    0.7979365678   -0.0000000000
 O   -2.1915809038   -0.3311083842   -0.0000000000
 C    2.4094453327   -0.2427372644    0.0000000000
 H    2.3791154638   -2.3094781551   -0.0000000000
 H    3.3916936143    0.4698764418   -1.6639946891
 H    3.3916936143    0.4698764418    1.6639946891
units bohr
0 2
}

basis {

assign 6-31g_2dfp_

[ 6-31g_2dfp_ ]

spherical

!----------------------------------------------------------------------
! Basis Set Exchange
! Version v0.8.13
! https://www.basissetexchange.org
!----------------------------------------------------------------------
!   Basis set: 6-31G(2df,p)
! Description: 6-31G(2df,p)
!        Role: orbital
!     Version: 0  (Data from the original Basis Set Exchange)
!----------------------------------------------------------------------

****
H     0
S    3   1.00
     18.7311370              0.03349460
      2.8253937              0.23472695
      0.6401217              0.81375733
S    1   1.00
      0.1612778              1.00000000
P    1   1.00
      1.5000000              1.0000000
P    1   1.00
      0.3750000              1.0000000
****
B     0
S    6   1.00
   2068.8823000              0.0018663
    310.6495700              0.0142515
     70.6830330              0.0695516
     19.8610800              0.2325729
      6.2993048              0.4670787
      2.1270270              0.3634314
SP   3   1.00
      4.7279710             -0.1303938              0.0745976
      1.1903377             -0.1307889              0.3078467
      0.3594117              1.1309444              0.7434568
SP   1   1.00
      0.1267512              1.0000000              1.0000000
D    1   1.00
      0.8020000              1.0000000
D    1   1.00
      0.2005000              1.0000000
F    1   1.00
      0.5000000              1.0000000
****
C     0
S    6   1.00
   3047.5249000              0.0018347
    457.3695100              0.0140373
    103.9486900              0.0688426
     29.2101550              0.2321844
      9.2866630              0.4679413
      3.1639270              0.3623120
SP   3   1.00
      7.8682724             -0.1193324              0.0689991
      1.8812885             -0.1608542              0.3164240
      0.5442493              1.1434564              0.7443083
SP   1   1.00
      0.1687144              1.0000000              1.0000000
D    1   1.00
      1.2520000              1.0000000
D    1   1.00
      0.3130000              1.0000000
F    1   1.00
      0.8000000              1.0000000
****
N     0
S    6   1.00
   4173.5110000              0.0018348
    627.4579000              0.0139950
    142.9021000              0.0685870
     40.2343300              0.2322410
     12.8202100              0.4690700
      4.3904370              0.3604550
SP   3   1.00
     11.6263580             -0.1149610              0.0675800
      2.7162800             -0.1691180              0.3239070
      0.7722180              1.1458520              0.7408950
SP   1   1.00
      0.2120313              1.0000000              1.0000000
D    1   1.00
      1.8260000              1.0000000
D    1   1.00
      0.4565000              1.0000000
F    1   1.00
      1.0000000              1.0000000
****
O     0
S    6   1.00
   5484.6717000              0.0018311
    825.2349500              0.0139501
    188.0469600              0.0684451
     52.9645000              0.2327143
     16.8975700              0.4701930
      5.7996353              0.3585209
SP   3   1.00
     15.5396160             -0.1107775              0.0708743
      3.5999336             -0.1480263              0.3397528
      1.0137618              1.1307670              0.7271586
SP   1   1.00
      0.2700058              1.0000000              1.0000000
D    1   1.00
      2.5840000              1.0000000
D    1   1.00
      0.6460000              1.0000000
F    1   1.00
      1.4000000              1.0000000
****
F     0
S    6   1.00
   7001.7130900              0.0018196169
   1051.3660900              0.0139160796
    239.2856900              0.0684053245
     67.3974453              0.233185760
     21.5199573              0.471267439
      7.40310130             0.356618546
SP   3   1.00
     20.8479528             -0.108506975            0.0716287243
      4.80830834            -0.146451658            0.3459121030
      1.34406986             1.128688580            0.7224699570
SP   1   1.00
      0.358151393            1.0000000              1.0000000
D    1   1.00
      3.5000000              1.0000000
D    1   1.00
      0.8750000              1.0000000
F    1   1.00
      1.8500000              1.0000000
****
Al     0
S    6   1.00
  13983.1000000              0.00194267
   2098.7500000              0.0148599
    477.7050000              0.0728494
    134.3600000              0.2468300
     42.8709000              0.4872580
     14.5189000              0.3234960
SP   6   1.00
    239.6680000             -0.00292619             0.00460285
     57.4419000             -0.0374080              0.0331990
     18.2859000             -0.1144870              0.1362820
      6.5991400              0.1156350              0.3304760
      2.4904900              0.6125950              0.4491460
      0.9445400              0.3937990              0.2657040
SP   3   1.00
      1.2779000             -0.2276060             -0.0175130
      0.3975900              0.00144583             0.2445330
      0.1600950              1.0927900              0.8049340
SP   1   1.00
      0.0556577              1.0000000              1.0000000
D    1   1.00
      0.6500000              1.0000000
D    1   1.00
      0.1625000              1.0000000
F    1   1.00
      0.2500000              1.0000000
****
Si     0
S    6   1.00
  16115.9000000              0.00195948
   2425.5800000              0.01492880
    553.8670000              0.07284780
    156.3400000              0.24613000
     50.0683000              0.48591400
     17.0178000              0.32500200
SP   6   1.00
    292.7180000             -0.00278094             0.00443826
     69.8731000             -0.03571460             0.03266790
     22.3363000             -0.11498500             0.13472100
      8.1503900              0.09356340             0.32867800
      3.1345800              0.60301700             0.44964000
      1.2254300              0.41895900             0.26137200
SP   3   1.00
      1.7273800             -0.24463000            -0.01779510
      0.5729220              0.00431572             0.25353900
      0.2221920              1.09818000             0.80066900
SP   1   1.00
      0.0778369              1.00000000             1.00000000
D    1   1.00
      0.9000000              1.0000000
D    1   1.00
      0.2250000              1.0000000
F    1   1.00
      0.3200000              1.0000000
****
P     0
S    6   1.00
  19413.3000000              0.0018516
   2909.4200000              0.0142062
    661.3640000              0.0699995
    185.7590000              0.2400790
     59.1943000              0.4847620
     20.0310000              0.3352000
SP   6   1.00
    339.4780000             -0.00278217             0.00456462
     81.0101000             -0.0360499              0.03369360
     25.8780000             -0.1166310              0.13975500
      9.4522100              0.0968328              0.33936200
      3.6656600              0.6144180              0.45092100
      1.4674600              0.4037980              0.23858600
SP   3   1.00
      2.1562300             -0.2529230             -0.01776530
      0.7489970              0.0328517              0.27405800
      0.2831450              1.0812500              0.78542100
SP   1   1.00
      0.0998317              1.0000000              1.00000000
D    1   1.00
      1.1000000              1.0000000
D    1   1.00
      0.2750000              1.0000000
F    1   1.00
      0.4500000              1.0000000
****
S     0
S    6   1.00
  21917.1000000              0.0018690
   3301.4900000              0.0142300
    754.1460000              0.0696960
    212.7110000              0.2384870
     67.9896000              0.4833070
     23.0515000              0.3380740
SP   6   1.00
    423.7350000             -0.0023767              0.0040610
    100.7100000             -0.0316930              0.0306810
     32.1599000             -0.1133170              0.1304520
     11.8079000              0.0560900              0.3272050
      4.6311000              0.5922550              0.4528510
      1.8702500              0.4550060              0.2560420
SP   3   1.00
      2.6158400             -0.2503740             -0.0145110
      0.9221670              0.0669570              0.3102630
      0.3412870              1.0545100              0.7544830
SP   1   1.00
      0.1171670              1.0000000              1.0000000
D    1   1.00
      1.3000000              1.0000000
D    1   1.00
      0.3250000              1.0000000
F    1   1.00
      0.5500000              1.0000000
****
Cl     0
S    6   1.00
  25180.1000000              0.0018330
   3780.3500000              0.0140340
    860.4740000              0.0690970
    242.1450000              0.2374520
     77.3349000              0.4830340
     26.2470000              0.3398560
SP   6   1.00
    491.7650000             -0.0022974              0.0039894
    116.9840000             -0.0307140              0.0303180
     37.4153000             -0.1125280              0.1298800
     13.7834000              0.0450160              0.3279510
      5.4521500              0.5893530              0.4535270
      2.2258800              0.4652060              0.2521540
SP   3   1.00
      3.1864900             -0.2518300             -0.0142990
      1.1442700              0.0615890              0.3235720
      0.4203770              1.0601800              0.7435070
SP   1   1.00
      0.1426570              1.0000000              1.0000000
D    1   1.00
      1.5000000              1.0000000
D    1   1.00
      0.3750000              1.0000000
F    1   1.00
      0.7000000              1.0000000
****
}

set {
reference uhf
freeze_core true
e_convergence 10
d_convergence 10
dft_spherical_points 1202
dft_radial_points 99
}

e = energy('b3lyp')

print_out('Grab this energy {0}'.format(e))
--------------------------------------------------------------------------

    Molecular point group: cs

    Geometry (in Bohr), charge = 0, multiplicity = 2:

       Center              X                  Y                   Z               Mass
    ------------   -----------------  -----------------  -----------------  -----------------
         C           -0.256302020988     0.798264383655     0.000000000000    12.000000000000
         O           -2.192153785688    -0.330780568345     0.000000000000    15.994914619570
         C            2.408872450812    -0.242409448545     0.000000000000    12.000000000000
         H            2.378542581912    -2.309150339245     0.000000000000     1.007825032230
         H            3.391120732412     0.470204257655    -1.663994689100     1.007825032230
         H            3.391120732412     0.470204257655     1.663994689100     1.007825032230

  Charge       = 0
  Multiplicity = 2
  Basis Set: ANONYMOUS7F8B09DE
    Blend: 6-31G_2DFP_
  Basis Set: (ANONYMOUS7F8B09DE AUX)
    Blend: DEF2-UNIVERSAL-JKFIT

    Orbital Energies [Eh]
    ---------------------

    Alpha Occupied:

       1Ap   -19.186614     2Ap   -10.271105     3Ap   -10.210445
       4Ap    -1.081427     5Ap    -0.762638     6Ap    -0.543807
       7Ap    -0.466942     8Ap    -0.457413     1App   -0.456671
       2App   -0.387504     9Ap    -0.386156    10Ap    -0.191072

    Alpha Virtual:

       3App   -0.018621    11Ap     0.091581    12Ap     0.136369
       4App    0.141362    13Ap     0.218998    14Ap     0.268308
      15Ap     0.428043     5App    0.431297    16Ap     0.444262
       6App    0.493710    17Ap     0.506132    18Ap     0.530049
       7App    0.562780    19Ap     0.577274    20Ap     0.609715
       8App    0.616679    21Ap     0.644158    22Ap     0.717679
       9App    0.765589    23Ap     0.785393    10App    0.831868
      11App    0.917390    24Ap     0.927382    25Ap     0.935576
      12App    1.024018    26Ap     1.084501    27Ap     1.107336
      13App    1.154641    28Ap     1.224236    29Ap     1.307195
      14App    1.316798    30Ap     1.327769    31Ap     1.402754
      15App    1.407824    32Ap     1.469359    33Ap     1.560074
      34Ap     1.632639    16App    1.654358    35Ap     1.720056
      17App    1.813721    36Ap     1.835364    37Ap     1.900308
      18App    2.067198    38Ap     2.170384    39Ap     2.496219
      19App    2.681258    40Ap     2.745493    41Ap     2.784328
      20App    2.841167    21App    2.894362    42Ap     2.975411
      43Ap     3.028376    22App    3.057491    23App    3.103773
      44Ap     3.117755    45Ap     3.180748    24App    3.314703
      46Ap     3.368944    25App    3.391777    26App    3.441900
      27App    3.467386    47Ap     3.485673    48Ap     3.569080
      49Ap     3.742069    50Ap     3.765587    51Ap     3.944943
      28App    3.984144    52Ap     4.059564    53Ap     4.112300
      29App    4.118235    54Ap     4.190382    30App    4.391023
      55Ap     4.437155    31App    4.448358    56Ap     4.533359
      57Ap     4.918904    58Ap     5.037168    32App    5.042650
      33App    5.198139    59Ap     5.205451    60Ap     5.475330
      34App    5.484961    61Ap     5.827804    35App    5.932479
      62Ap     6.107728    63Ap     6.771159    36App    6.773414
      37App    7.072094    64Ap     7.135086    65Ap     7.531023

    Beta Occupied:

       1Ap   -19.178573     2Ap   -10.261016     3Ap   -10.207107
       4Ap    -1.065537     5Ap    -0.750860     6Ap    -0.524185
       1App   -0.452135     7Ap    -0.446786     8Ap    -0.439411
       2App   -0.382351     9Ap    -0.348023

    Beta Virtual:

      10Ap    -0.051492     3App   -0.002374    11Ap     0.094303
      12Ap     0.142132     4App    0.144497    13Ap     0.229264
      14Ap     0.273965     5App    0.433299    15Ap     0.434832
      16Ap     0.466646     6App    0.500423    17Ap     0.527380
      18Ap     0.539125     7App    0.569069    19Ap     0.581487
       8App    0.623946    20Ap     0.628205    21Ap     0.650049
      22Ap     0.739866     9App    0.776763    23Ap     0.795349
      10App    0.832684    11App    0.922239    24Ap     0.943253
      25Ap     0.951289    12App    1.028207    26Ap     1.090686
      27Ap     1.109404    13App    1.160780    28Ap     1.233520
      29Ap     1.312679    14App    1.319605    30Ap     1.334564
      31Ap     1.413074    15App    1.413282    32Ap     1.481581
      33Ap     1.571232    34Ap     1.645995    16App    1.668688
      35Ap     1.726329    17App    1.816976    36Ap     1.849560
      37Ap     1.906963    18App    2.073891    38Ap     2.191814
      39Ap     2.508879    19App    2.695486    40Ap     2.760030
      41Ap     2.805370    20App    2.856720    21App    2.896030
      42Ap     2.984765    43Ap     3.045363    22App    3.066098
      23App    3.122547    44Ap     3.126227    45Ap     3.215531
      24App    3.358323    46Ap     3.380416    25App    3.397962
      26App    3.449874    27App    3.483204    47Ap     3.508767
      48Ap     3.582249    49Ap     3.767952    50Ap     3.774822
      51Ap     3.953632    28App    3.993397    52Ap     4.075739
      29App    4.121099    53Ap     4.126451    54Ap     4.202545
      30App    4.393226    55Ap     4.443408    31App    4.452607
      56Ap     4.544288    57Ap     4.922790    58Ap     5.054599
      32App    5.060577    33App    5.200308    59Ap     5.211216
      60Ap     5.487948    34App    5.498820    61Ap     5.841041
      35App    5.938067    62Ap     6.130886    63Ap     6.800320
      36App    6.802919    37App    7.076385    64Ap     7.164379
      65Ap     7.542660

    Final Occupation by Irrep:
             Ap   App
    DOCC [     9,    2 ]
    SOCC [     1,    0 ]

  @DF-UKS Final Energy:  -153.18844420025908

   => Energetics <=

    Nuclear Repulsion Energy =             62.8337341017223565
    One-Electron Energy =                -331.6656572893800785
    Two-Electron Energy =                 132.2251223740392732
    DFT Exchange-Correlation Energy =     -16.5816433866406427
    Empirical Dispersion Energy =           0.0000000000000000
    VV10 Nonlocal Energy =                  0.0000000000000000
    Total Energy =                       -153.1884442002590845

  UHF NO Occupations:
  HONO-2 :    8 Ap 1.9997892
  HONO-1 :    9 Ap 1.9992044
  HONO-0 :   10 Ap 1.0000000
  LUNO+0 :   11 Ap 0.0007956
  LUNO+1 :   12 Ap 0.0002108
  LUNO+2 :    3App 0.0001817
  LUNO+3 :   13 Ap 0.0000612

Computation Completed

Properties will be evaluated at   0.000000,   0.000000,   0.000000 [a0]

Properties computed using the SCF density matrix

  Nuclear Dipole Moment: [e a0]
     X:     4.5390      Y:    -0.6799      Z:     0.0000

  Electronic Dipole Moment: [e a0]
     X:    -3.6046      Y:     0.6298      Z:     0.0000

  Dipole Moment: [e a0]
     X:     0.9344      Y:    -0.0501      Z:     0.0000     Total:     0.9358

  Dipole Moment: [D]
     X:     2.3751      Y:    -0.1273      Z:     0.0000     Total:     2.3785

*** tstop() called on n035 at Tue Mar 15 10:29:36 2022
Module time:
	user time   =      62.46 seconds =       1.04 minutes
	system time =       0.43 seconds =       0.01 minutes
	total time  =         63 seconds =       1.05 minutes
Total time:
	user time   =      62.46 seconds =       1.04 minutes
	system time =       0.43 seconds =       0.01 minutes
	total time  =         63 seconds =       1.05 minutes
Grab this energy -153.18844420025908
    Psi4 stopped on: Tuesday, 15 March 2022 10:29AM
    Psi4 wall time for execution: 0:01:02.95

*** Psi4 exiting successfully. Buy a developer a beer!
