                               Psi4 1.4a2.dev629

  ==> Input File <==

--------------------------------------------------------------------------
import os
memory 14 GB

molecule {
 C   -0.2651076582    0.8118646807   -0.0000000000
 O   -2.1957987644   -0.3385546872    0.0000000000
 C    2.4118196784   -0.2451840966    0.0000000000
 H    2.3820209740   -2.3068303621    0.0000000000
 H    3.3958518762    0.4665350565   -1.6649865320
 H    3.3958518762    0.4665350565    1.6649865320
units bohr
0 2
}

basis {

assign 6-31g_2dfp_

[ 6-31g_2dfp_ ]

spherical

!----------------------------------------------------------------------
! Basis Set Exchange
! Version v0.8.13
! https://www.basissetexchange.org
!----------------------------------------------------------------------
!   Basis set: 6-31G(2df,p)
! Description: 6-31G(2df,p)
!        Role: orbital
!     Version: 0  (Data from the original Basis Set Exchange)
!----------------------------------------------------------------------

****
H     0
S    3   1.00
     18.7311370              0.03349460
      2.8253937              0.23472695
      0.6401217              0.81375733
S    1   1.00
      0.1612778              1.00000000
P    1   1.00
      1.5000000              1.0000000
P    1   1.00
      0.3750000              1.0000000
****
B     0
S    6   1.00
   2068.8823000              0.0018663
    310.6495700              0.0142515
     70.6830330              0.0695516
     19.8610800              0.2325729
      6.2993048              0.4670787
      2.1270270              0.3634314
SP   3   1.00
      4.7279710             -0.1303938              0.0745976
      1.1903377             -0.1307889              0.3078467
      0.3594117              1.1309444              0.7434568
SP   1   1.00
      0.1267512              1.0000000              1.0000000
D    1   1.00
      0.8020000              1.0000000
D    1   1.00
      0.2005000              1.0000000
F    1   1.00
      0.5000000              1.0000000
****
C     0
S    6   1.00
   3047.5249000              0.0018347
    457.3695100              0.0140373
    103.9486900              0.0688426
     29.2101550              0.2321844
      9.2866630              0.4679413
      3.1639270              0.3623120
SP   3   1.00
      7.8682724             -0.1193324              0.0689991
      1.8812885             -0.1608542              0.3164240
      0.5442493              1.1434564              0.7443083
SP   1   1.00
      0.1687144              1.0000000              1.0000000
D    1   1.00
      1.2520000              1.0000000
D    1   1.00
      0.3130000              1.0000000
F    1   1.00
      0.8000000              1.0000000
****
N     0
S    6   1.00
   4173.5110000              0.0018348
    627.4579000              0.0139950
    142.9021000              0.0685870
     40.2343300              0.2322410
     12.8202100              0.4690700
      4.3904370              0.3604550
SP   3   1.00
     11.6263580             -0.1149610              0.0675800
      2.7162800             -0.1691180              0.3239070
      0.7722180              1.1458520              0.7408950
SP   1   1.00
      0.2120313              1.0000000              1.0000000
D    1   1.00
      1.8260000              1.0000000
D    1   1.00
      0.4565000              1.0000000
F    1   1.00
      1.0000000              1.0000000
****
O     0
S    6   1.00
   5484.6717000              0.0018311
    825.2349500              0.0139501
    188.0469600              0.0684451
     52.9645000              0.2327143
     16.8975700              0.4701930
      5.7996353              0.3585209
SP   3   1.00
     15.5396160             -0.1107775              0.0708743
      3.5999336             -0.1480263              0.3397528
      1.0137618              1.1307670              0.7271586
SP   1   1.00
      0.2700058              1.0000000              1.0000000
D    1   1.00
      2.5840000              1.0000000
D    1   1.00
      0.6460000              1.0000000
F    1   1.00
      1.4000000              1.0000000
****
F     0
S    6   1.00
   7001.7130900              0.0018196169
   1051.3660900              0.0139160796
    239.2856900              0.0684053245
     67.3974453              0.233185760
     21.5199573              0.471267439
      7.40310130             0.356618546
SP   3   1.00
     20.8479528             -0.108506975            0.0716287243
      4.80830834            -0.146451658            0.3459121030
      1.34406986             1.128688580            0.7224699570
SP   1   1.00
      0.358151393            1.0000000              1.0000000
D    1   1.00
      3.5000000              1.0000000
D    1   1.00
      0.8750000              1.0000000
F    1   1.00
      1.8500000              1.0000000
****
Al     0
S    6   1.00
  13983.1000000              0.00194267
   2098.7500000              0.0148599
    477.7050000              0.0728494
    134.3600000              0.2468300
     42.8709000              0.4872580
     14.5189000              0.3234960
SP   6   1.00
    239.6680000             -0.00292619             0.00460285
     57.4419000             -0.0374080              0.0331990
     18.2859000             -0.1144870              0.1362820
      6.5991400              0.1156350              0.3304760
      2.4904900              0.6125950              0.4491460
      0.9445400              0.3937990              0.2657040
SP   3   1.00
      1.2779000             -0.2276060             -0.0175130
      0.3975900              0.00144583             0.2445330
      0.1600950              1.0927900              0.8049340
SP   1   1.00
      0.0556577              1.0000000              1.0000000
D    1   1.00
      0.6500000              1.0000000
D    1   1.00
      0.1625000              1.0000000
F    1   1.00
      0.2500000              1.0000000
****
Si     0
S    6   1.00
  16115.9000000              0.00195948
   2425.5800000              0.01492880
    553.8670000              0.07284780
    156.3400000              0.24613000
     50.0683000              0.48591400
     17.0178000              0.32500200
SP   6   1.00
    292.7180000             -0.00278094             0.00443826
     69.8731000             -0.03571460             0.03266790
     22.3363000             -0.11498500             0.13472100
      8.1503900              0.09356340             0.32867800
      3.1345800              0.60301700             0.44964000
      1.2254300              0.41895900             0.26137200
SP   3   1.00
      1.7273800             -0.24463000            -0.01779510
      0.5729220              0.00431572             0.25353900
      0.2221920              1.09818000             0.80066900
SP   1   1.00
      0.0778369              1.00000000             1.00000000
D    1   1.00
      0.9000000              1.0000000
D    1   1.00
      0.2250000              1.0000000
F    1   1.00
      0.3200000              1.0000000
****
P     0
S    6   1.00
  19413.3000000              0.0018516
   2909.4200000              0.0142062
    661.3640000              0.0699995
    185.7590000              0.2400790
     59.1943000              0.4847620
     20.0310000              0.3352000
SP   6   1.00
    339.4780000             -0.00278217             0.00456462
     81.0101000             -0.0360499              0.03369360
     25.8780000             -0.1166310              0.13975500
      9.4522100              0.0968328              0.33936200
      3.6656600              0.6144180              0.45092100
      1.4674600              0.4037980              0.23858600
SP   3   1.00
      2.1562300             -0.2529230             -0.01776530
      0.7489970              0.0328517              0.27405800
      0.2831450              1.0812500              0.78542100
SP   1   1.00
      0.0998317              1.0000000              1.00000000
D    1   1.00
      1.1000000              1.0000000
D    1   1.00
      0.2750000              1.0000000
F    1   1.00
      0.4500000              1.0000000
****
S     0
S    6   1.00
  21917.1000000              0.0018690
   3301.4900000              0.0142300
    754.1460000              0.0696960
    212.7110000              0.2384870
     67.9896000              0.4833070
     23.0515000              0.3380740
SP   6   1.00
    423.7350000             -0.0023767              0.0040610
    100.7100000             -0.0316930              0.0306810
     32.1599000             -0.1133170              0.1304520
     11.8079000              0.0560900              0.3272050
      4.6311000              0.5922550              0.4528510
      1.8702500              0.4550060              0.2560420
SP   3   1.00
      2.6158400             -0.2503740             -0.0145110
      0.9221670              0.0669570              0.3102630
      0.3412870              1.0545100              0.7544830
SP   1   1.00
      0.1171670              1.0000000              1.0000000
D    1   1.00
      1.3000000              1.0000000
D    1   1.00
      0.3250000              1.0000000
F    1   1.00
      0.5500000              1.0000000
****
Cl     0
S    6   1.00
  25180.1000000              0.0018330
   3780.3500000              0.0140340
    860.4740000              0.0690970
    242.1450000              0.2374520
     77.3349000              0.4830340
     26.2470000              0.3398560
SP   6   1.00
    491.7650000             -0.0022974              0.0039894
    116.9840000             -0.0307140              0.0303180
     37.4153000             -0.1125280              0.1298800
     13.7834000              0.0450160              0.3279510
      5.4521500              0.5893530              0.4535270
      2.2258800              0.4652060              0.2521540
SP   3   1.00
      3.1864900             -0.2518300             -0.0142990
      1.1442700              0.0615890              0.3235720
      0.4203770              1.0601800              0.7435070
SP   1   1.00
      0.1426570              1.0000000              1.0000000
D    1   1.00
      1.5000000              1.0000000
D    1   1.00
      0.3750000              1.0000000
F    1   1.00
      0.7000000              1.0000000
****
}

set {
reference uhf
freeze_core true
e_convergence 10
d_convergence 10
dft_spherical_points 1202
dft_radial_points 99
}

e = energy('b3lyp')

print_out('Grab this energy {0}'.format(e))
--------------------------------------------------------------------------

    Molecular point group: cs

    Geometry (in Bohr), charge = 0, multiplicity = 2:

       Center              X                  Y                   Z               Mass
    ------------   -----------------  -----------------  -----------------  -----------------
         C           -0.262421362905     0.811852971148     0.000000000000    12.000000000000
         O           -2.193112469105    -0.338566396752     0.000000000000    15.994914619570
         C            2.414505973695    -0.245195806152     0.000000000000    12.000000000000
         H            2.384707269295    -2.306842071652     0.000000000000     1.007825032230
         H            3.398538171495     0.466523346948    -1.664986532000     1.007825032230
         H            3.398538171495     0.466523346948     1.664986532000     1.007825032230

  Charge       = 0
  Multiplicity = 2
  Basis Set: ANONYMOUS44D47A79
    Blend: 6-31G_2DFP_
  Basis Set: (ANONYMOUS44D47A79 AUX)
    Blend: DEF2-UNIVERSAL-JKFIT

    Orbital Energies [Eh]
    ---------------------

    Alpha Occupied:

       1Ap   -19.187318     2Ap   -10.272606     3Ap   -10.210785
       4Ap    -1.080144     5Ap    -0.760982     6Ap    -0.544212
       7Ap    -0.465878     8Ap    -0.456924     1App   -0.455529
       2App   -0.387242     9Ap    -0.385897    10Ap    -0.193436

    Alpha Virtual:

       3App   -0.019874    11Ap     0.091760    12Ap     0.137053
       4App    0.141127    13Ap     0.215964    14Ap     0.267806
      15Ap     0.427922     5App    0.432237    16Ap     0.442843
       6App    0.493174    17Ap     0.506402    18Ap     0.530227
       7App    0.562845    19Ap     0.577306    20Ap     0.605692
       8App    0.615021    21Ap     0.643395    22Ap     0.717399
       9App    0.766464    23Ap     0.784782    10App    0.832458
      11App    0.917160    24Ap     0.927337    25Ap     0.935888
      12App    1.020602    26Ap     1.083495    27Ap     1.107926
      13App    1.153120    28Ap     1.218778    29Ap     1.304660
      14App    1.316515    30Ap     1.326802    31Ap     1.403841
      15App    1.405435    32Ap     1.465939    33Ap     1.559170
      34Ap     1.627092    16App    1.652391    35Ap     1.719605
      17App    1.812180    36Ap     1.832220    37Ap     1.900640
      18App    2.062295    38Ap     2.161581    39Ap     2.491842
      19App    2.678729    40Ap     2.741904    41Ap     2.783095
      20App    2.841846    21App    2.895051    42Ap     2.970462
      43Ap     3.032916    22App    3.057800    23App    3.107151
      44Ap     3.111583    45Ap     3.184292    24App    3.314328
      46Ap     3.368716    25App    3.393729    26App    3.437669
      27App    3.464318    47Ap     3.485752    48Ap     3.571089
      49Ap     3.733540    50Ap     3.754933    51Ap     3.940841
      28App    3.975506    52Ap     4.048121    53Ap     4.106267
      29App    4.120179    54Ap     4.188593    30App    4.387486
      55Ap     4.427641    31App    4.445967    56Ap     4.527960
      57Ap     4.917599    58Ap     5.036539    32App    5.041595
      33App    5.196502    59Ap     5.207183    60Ap     5.468679
      34App    5.476352    61Ap     5.825758    35App    5.924648
      62Ap     6.097193    63Ap     6.769805    36App    6.771897
      37App    7.069947    64Ap     7.134697    65Ap     7.527250

    Beta Occupied:

       1Ap   -19.179239     2Ap   -10.262558     3Ap   -10.207367
       4Ap    -1.064174     5Ap    -0.749187     6Ap    -0.524385
       1App   -0.451010     7Ap    -0.446475     8Ap    -0.438210
       2App   -0.382041     9Ap    -0.347533

    Beta Virtual:

      10Ap    -0.054080     3App   -0.003577    11Ap     0.094459
      12Ap     0.142665     4App    0.144237    13Ap     0.226664
      14Ap     0.273553     5App    0.434211    15Ap     0.435569
      16Ap     0.464387     6App    0.499830    17Ap     0.527841
      18Ap     0.539086     7App    0.569312    19Ap     0.581474
       8App    0.622149    20Ap     0.624605    21Ap     0.648789
      22Ap     0.739066     9App    0.777638    23Ap     0.794838
      10App    0.833206    11App    0.921984    24Ap     0.943935
      25Ap     0.951055    12App    1.024748    26Ap     1.089561
      27Ap     1.110079    13App    1.159371    28Ap     1.228044
      29Ap     1.310213    14App    1.319358    30Ap     1.333619
      15App    1.410957    31Ap     1.414255    32Ap     1.478245
      33Ap     1.570571    34Ap     1.640171    16App    1.666770
      35Ap     1.725763    17App    1.815304    36Ap     1.846299
      37Ap     1.907231    18App    2.068998    38Ap     2.182952
      39Ap     2.504521    19App    2.692967    40Ap     2.756327
      41Ap     2.804252    20App    2.857217    21App    2.896669
      42Ap     2.979917    43Ap     3.049486    22App    3.066305
      44Ap     3.120134    23App    3.125751    45Ap     3.219056
      24App    3.358087    46Ap     3.380392    25App    3.399982
      26App    3.446179    27App    3.479985    47Ap     3.508373
      48Ap     3.584509    49Ap     3.758385    50Ap     3.765277
      51Ap     3.949580    28App    3.984819    52Ap     4.064684
      53Ap     4.121474    29App    4.122966    54Ap     4.199890
      30App    4.389755    55Ap     4.433810    31App    4.450120
      56Ap     4.538747    57Ap     4.921451    58Ap     5.054089
      32App    5.059641    33App    5.198662    59Ap     5.212829
      60Ap     5.481369    34App    5.490244    61Ap     5.838982
      35App    5.930227    62Ap     6.120414    63Ap     6.799152
      36App    6.801580    37App    7.074248    64Ap     7.164116
      65Ap     7.538938

    Final Occupation by Irrep:
             Ap   App
    DOCC [     9,    2 ]
    SOCC [     1,    0 ]

  @DF-UKS Final Energy:  -153.18836567325087

   => Energetics <=

    Nuclear Repulsion Energy =             62.6661461161021549
    One-Electron Energy =                -331.3382017345220447
    Two-Electron Energy =                 132.0605542045707068
    DFT Exchange-Correlation Energy =     -16.5768642594016598
    Empirical Dispersion Energy =           0.0000000000000000
    VV10 Nonlocal Energy =                  0.0000000000000000
    Total Energy =                       -153.1883656732508712

  UHF NO Occupations:
  HONO-2 :    8 Ap 1.9997787
  HONO-1 :    9 Ap 1.9991983
  HONO-0 :   10 Ap 1.0000000
  LUNO+0 :   11 Ap 0.0008017
  LUNO+1 :   12 Ap 0.0002213
  LUNO+2 :    3App 0.0001803
  LUNO+3 :   13 Ap 0.0000619

Computation Completed

Properties will be evaluated at   0.000000,   0.000000,   0.000000 [a0]

Properties computed using the SCF density matrix

  Nuclear Dipole Moment: [e a0]
     X:     4.5494      Y:    -0.6824      Z:     0.0000

  Electronic Dipole Moment: [e a0]
     X:    -3.6176      Y:     0.6330      Z:     0.0000

  Dipole Moment: [e a0]
     X:     0.9318      Y:    -0.0494      Z:     0.0000     Total:     0.9331

  Dipole Moment: [D]
     X:     2.3683      Y:    -0.1256      Z:     0.0000     Total:     2.3717

*** tstop() called on n021 at Tue Mar 15 10:34:10 2022
Module time:
	user time   =      65.91 seconds =       1.10 minutes
	system time =       0.45 seconds =       0.01 minutes
	total time  =         66 seconds =       1.10 minutes
Total time:
	user time   =      65.91 seconds =       1.10 minutes
	system time =       0.45 seconds =       0.01 minutes
	total time  =         66 seconds =       1.10 minutes
Grab this energy -153.18836567325087
    Psi4 stopped on: Tuesday, 15 March 2022 10:34AM
    Psi4 wall time for execution: 0:01:06.41

*** Psi4 exiting successfully. Buy a developer a beer!
