                               Psi4 1.4a2.dev629

  ==> Input File <==

--------------------------------------------------------------------------
import os
memory 14 GB

molecule {
 C   -0.2555415504    0.7986821213    0.0041255731
 O   -2.1916091124   -0.3311928794   -0.0028012619
 C    2.4090549308   -0.2455395847    0.0012599123
 H    2.3791868881   -2.3091464597   -0.0004408516
 H    3.3918370779    0.4695928756   -1.6648010506
 H    3.3917097481    0.4719695747    1.6626576787
units bohr
0 2
}

basis {

assign 6-31g_2dfp_

[ 6-31g_2dfp_ ]

spherical

!----------------------------------------------------------------------
! Basis Set Exchange
! Version v0.8.13
! https://www.basissetexchange.org
!----------------------------------------------------------------------
!   Basis set: 6-31G(2df,p)
! Description: 6-31G(2df,p)
!        Role: orbital
!     Version: 0  (Data from the original Basis Set Exchange)
!----------------------------------------------------------------------

****
H     0
S    3   1.00
     18.7311370              0.03349460
      2.8253937              0.23472695
      0.6401217              0.81375733
S    1   1.00
      0.1612778              1.00000000
P    1   1.00
      1.5000000              1.0000000
P    1   1.00
      0.3750000              1.0000000
****
B     0
S    6   1.00
   2068.8823000              0.0018663
    310.6495700              0.0142515
     70.6830330              0.0695516
     19.8610800              0.2325729
      6.2993048              0.4670787
      2.1270270              0.3634314
SP   3   1.00
      4.7279710             -0.1303938              0.0745976
      1.1903377             -0.1307889              0.3078467
      0.3594117              1.1309444              0.7434568
SP   1   1.00
      0.1267512              1.0000000              1.0000000
D    1   1.00
      0.8020000              1.0000000
D    1   1.00
      0.2005000              1.0000000
F    1   1.00
      0.5000000              1.0000000
****
C     0
S    6   1.00
   3047.5249000              0.0018347
    457.3695100              0.0140373
    103.9486900              0.0688426
     29.2101550              0.2321844
      9.2866630              0.4679413
      3.1639270              0.3623120
SP   3   1.00
      7.8682724             -0.1193324              0.0689991
      1.8812885             -0.1608542              0.3164240
      0.5442493              1.1434564              0.7443083
SP   1   1.00
      0.1687144              1.0000000              1.0000000
D    1   1.00
      1.2520000              1.0000000
D    1   1.00
      0.3130000              1.0000000
F    1   1.00
      0.8000000              1.0000000
****
N     0
S    6   1.00
   4173.5110000              0.0018348
    627.4579000              0.0139950
    142.9021000              0.0685870
     40.2343300              0.2322410
     12.8202100              0.4690700
      4.3904370              0.3604550
SP   3   1.00
     11.6263580             -0.1149610              0.0675800
      2.7162800             -0.1691180              0.3239070
      0.7722180              1.1458520              0.7408950
SP   1   1.00
      0.2120313              1.0000000              1.0000000
D    1   1.00
      1.8260000              1.0000000
D    1   1.00
      0.4565000              1.0000000
F    1   1.00
      1.0000000              1.0000000
****
O     0
S    6   1.00
   5484.6717000              0.0018311
    825.2349500              0.0139501
    188.0469600              0.0684451
     52.9645000              0.2327143
     16.8975700              0.4701930
      5.7996353              0.3585209
SP   3   1.00
     15.5396160             -0.1107775              0.0708743
      3.5999336             -0.1480263              0.3397528
      1.0137618              1.1307670              0.7271586
SP   1   1.00
      0.2700058              1.0000000              1.0000000
D    1   1.00
      2.5840000              1.0000000
D    1   1.00
      0.6460000              1.0000000
F    1   1.00
      1.4000000              1.0000000
****
F     0
S    6   1.00
   7001.7130900              0.0018196169
   1051.3660900              0.0139160796
    239.2856900              0.0684053245
     67.3974453              0.233185760
     21.5199573              0.471267439
      7.40310130             0.356618546
SP   3   1.00
     20.8479528             -0.108506975            0.0716287243
      4.80830834            -0.146451658            0.3459121030
      1.34406986             1.128688580            0.7224699570
SP   1   1.00
      0.358151393            1.0000000              1.0000000
D    1   1.00
      3.5000000              1.0000000
D    1   1.00
      0.8750000              1.0000000
F    1   1.00
      1.8500000              1.0000000
****
Al     0
S    6   1.00
  13983.1000000              0.00194267
   2098.7500000              0.0148599
    477.7050000              0.0728494
    134.3600000              0.2468300
     42.8709000              0.4872580
     14.5189000              0.3234960
SP   6   1.00
    239.6680000             -0.00292619             0.00460285
     57.4419000             -0.0374080              0.0331990
     18.2859000             -0.1144870              0.1362820
      6.5991400              0.1156350              0.3304760
      2.4904900              0.6125950              0.4491460
      0.9445400              0.3937990              0.2657040
SP   3   1.00
      1.2779000             -0.2276060             -0.0175130
      0.3975900              0.00144583             0.2445330
      0.1600950              1.0927900              0.8049340
SP   1   1.00
      0.0556577              1.0000000              1.0000000
D    1   1.00
      0.6500000              1.0000000
D    1   1.00
      0.1625000              1.0000000
F    1   1.00
      0.2500000              1.0000000
****
Si     0
S    6   1.00
  16115.9000000              0.00195948
   2425.5800000              0.01492880
    553.8670000              0.07284780
    156.3400000              0.24613000
     50.0683000              0.48591400
     17.0178000              0.32500200
SP   6   1.00
    292.7180000             -0.00278094             0.00443826
     69.8731000             -0.03571460             0.03266790
     22.3363000             -0.11498500             0.13472100
      8.1503900              0.09356340             0.32867800
      3.1345800              0.60301700             0.44964000
      1.2254300              0.41895900             0.26137200
SP   3   1.00
      1.7273800             -0.24463000            -0.01779510
      0.5729220              0.00431572             0.25353900
      0.2221920              1.09818000             0.80066900
SP   1   1.00
      0.0778369              1.00000000             1.00000000
D    1   1.00
      0.9000000              1.0000000
D    1   1.00
      0.2250000              1.0000000
F    1   1.00
      0.3200000              1.0000000
****
P     0
S    6   1.00
  19413.3000000              0.0018516
   2909.4200000              0.0142062
    661.3640000              0.0699995
    185.7590000              0.2400790
     59.1943000              0.4847620
     20.0310000              0.3352000
SP   6   1.00
    339.4780000             -0.00278217             0.00456462
     81.0101000             -0.0360499              0.03369360
     25.8780000             -0.1166310              0.13975500
      9.4522100              0.0968328              0.33936200
      3.6656600              0.6144180              0.45092100
      1.4674600              0.4037980              0.23858600
SP   3   1.00
      2.1562300             -0.2529230             -0.01776530
      0.7489970              0.0328517              0.27405800
      0.2831450              1.0812500              0.78542100
SP   1   1.00
      0.0998317              1.0000000              1.00000000
D    1   1.00
      1.1000000              1.0000000
D    1   1.00
      0.2750000              1.0000000
F    1   1.00
      0.4500000              1.0000000
****
S     0
S    6   1.00
  21917.1000000              0.0018690
   3301.4900000              0.0142300
    754.1460000              0.0696960
    212.7110000              0.2384870
     67.9896000              0.4833070
     23.0515000              0.3380740
SP   6   1.00
    423.7350000             -0.0023767              0.0040610
    100.7100000             -0.0316930              0.0306810
     32.1599000             -0.1133170              0.1304520
     11.8079000              0.0560900              0.3272050
      4.6311000              0.5922550              0.4528510
      1.8702500              0.4550060              0.2560420
SP   3   1.00
      2.6158400             -0.2503740             -0.0145110
      0.9221670              0.0669570              0.3102630
      0.3412870              1.0545100              0.7544830
SP   1   1.00
      0.1171670              1.0000000              1.0000000
D    1   1.00
      1.3000000              1.0000000
D    1   1.00
      0.3250000              1.0000000
F    1   1.00
      0.5500000              1.0000000
****
Cl     0
S    6   1.00
  25180.1000000              0.0018330
   3780.3500000              0.0140340
    860.4740000              0.0690970
    242.1450000              0.2374520
     77.3349000              0.4830340
     26.2470000              0.3398560
SP   6   1.00
    491.7650000             -0.0022974              0.0039894
    116.9840000             -0.0307140              0.0303180
     37.4153000             -0.1125280              0.1298800
     13.7834000              0.0450160              0.3279510
      5.4521500              0.5893530              0.4535270
      2.2258800              0.4652060              0.2521540
SP   3   1.00
      3.1864900             -0.2518300             -0.0142990
      1.1442700              0.0615890              0.3235720
      0.4203770              1.0601800              0.7435070
SP   1   1.00
      0.1426570              1.0000000              1.0000000
D    1   1.00
      1.5000000              1.0000000
D    1   1.00
      0.3750000              1.0000000
F    1   1.00
      0.7000000              1.0000000
****
}

set {
reference uhf
freeze_core true
e_convergence 10
d_convergence 10
dft_spherical_points 1202
dft_radial_points 99
}

e = energy('b3lyp')

print_out('Grab this energy {0}'.format(e))
--------------------------------------------------------------------------

    Molecular point group: c1

    Geometry (in Bohr), charge = 0, multiplicity = 2:

       Center              X                  Y                   Z               Mass
    ------------   -----------------  -----------------  -----------------  -----------------
         C           -0.256052781373     0.799564924864     0.003725385300    12.000000000000
         O           -2.192120343373    -0.330310075836    -0.003201449700    15.994914619570
         C            2.408543699827    -0.244656781136     0.000859724500    12.000000000000
         H            2.378675657127    -2.308263656136    -0.000841039400     1.007825032230
         H            3.391325846927     0.470475679164    -1.665201238400     1.007825032230
         H            3.391198517127     0.472852378264     1.662257490900     1.007825032230

  Charge       = 0
  Multiplicity = 2
  Basis Set: ANONYMOUS6229948B
    Blend: 6-31G_2DFP_
  Basis Set: (ANONYMOUS6229948B AUX)
    Blend: DEF2-UNIVERSAL-JKFIT

    Orbital Energies [Eh]
    ---------------------

    Alpha Occupied:

       1A    -19.186623     2A    -10.271172     3A    -10.210445
       4A     -1.081271     5A     -0.762585     6A     -0.543801
       7A     -0.466982     8A     -0.457528     9A     -0.456381
      10A     -0.387319    11A     -0.386211    12A     -0.191313

    Alpha Virtual:

      13A     -0.018670    14A      0.091537    15A      0.136767
      16A      0.141074    17A      0.218794    18A      0.268248
      19A      0.427869    20A      0.431519    21A      0.444095
      22A      0.493758    23A      0.506176    24A      0.530284
      25A      0.562676    26A      0.577389    27A      0.609496
      28A      0.616397    29A      0.644248    30A      0.717616
      31A      0.765669    32A      0.785377    33A      0.831856
      34A      0.917467    35A      0.927246    36A      0.935658
      37A      1.024040    38A      1.084785    39A      1.107632
      40A      1.154063    41A      1.222938    42A      1.307338
      43A      1.316004    44A      1.328053    45A      1.403544
      46A      1.408122    47A      1.469222    48A      1.560565
      49A      1.632390    50A      1.654255    51A      1.720242
      52A      1.813025    53A      1.835315    54A      1.900949
      55A      2.066890    56A      2.169630    57A      2.495842
      58A      2.680762    59A      2.745220    60A      2.784374
      61A      2.841474    62A      2.893914    63A      2.975046
      64A      3.029416    65A      3.058003    66A      3.104267
      67A      3.116946    68A      3.181089    69A      3.314557
      70A      3.369063    71A      3.391858    72A      3.442016
      73A      3.466884    74A      3.485458    75A      3.569447
      76A      3.741462    77A      3.765605    78A      3.943841
      79A      3.984860    80A      4.058934    81A      4.112820
      82A      4.117943    83A      4.189812    84A      4.388166
      85A      4.437567    86A      4.450114    87A      4.533754
      88A      4.919213    89A      5.037124    90A      5.042571
      91A      5.197612    92A      5.206145    93A      5.474845
      94A      5.484291    95A      5.827757    96A      5.931945
      97A      6.107063    98A      6.771091    99A      6.773295
     100A      7.071951   101A      7.135180   102A      7.530722

    Beta Occupied:

       1A    -19.178574     2A    -10.261088     3A    -10.207101
       4A     -1.065364     5A     -0.750801     6A     -0.524150
       7A     -0.451856     8A     -0.447189     9A     -0.439239
      10A     -0.382165    11A     -0.347967

    Beta Virtual:

      12A     -0.051727    13A     -0.002419    14A      0.094241
      15A      0.142509    16A      0.144214    17A      0.229070
      18A      0.273919    19A      0.433477    20A      0.434704
      21A      0.466473    22A      0.500464    23A      0.527454
      24A      0.539326    25A      0.568941    26A      0.581606
      27A      0.623686    28A      0.628016    29A      0.650093
      30A      0.739740    31A      0.776836    32A      0.795347
      33A      0.832659    34A      0.922319    35A      0.943223
      36A      0.951282    37A      1.028234    38A      1.090965
      39A      1.109668    40A      1.160215    41A      1.232224
      42A      1.312886    43A      1.318788    44A      1.334832
      45A      1.413592    46A      1.413924    47A      1.481493
      48A      1.571596    49A      1.645775    50A      1.668608
      51A      1.726532    52A      1.816247    53A      1.849489
      54A      1.907612    55A      2.073599    56A      2.191062
      57A      2.508501    58A      2.695012    59A      2.759734
      60A      2.805455    61A      2.857001    62A      2.895553
      63A      2.984435    64A      3.046317    65A      3.066631
      66A      3.122949    67A      3.125406    68A      3.215869
      69A      3.358175    70A      3.380576    71A      3.398112
      72A      3.449859    73A      3.482848    74A      3.508416
      75A      3.582746    76A      3.767327    77A      3.774867
      78A      3.952509    79A      3.994113    80A      4.075152
      81A      4.120775    82A      4.126911    83A      4.202033
      84A      4.390410    85A      4.443783    86A      4.454324
      87A      4.544688    88A      4.923070    89A      5.054589
      90A      5.060525    91A      5.199777    92A      5.211923
      93A      5.487474    94A      5.498164    95A      5.841003
      96A      5.937535    97A      6.130237    98A      6.800293
      99A      6.802842   100A      7.076247   101A      7.164505
     102A      7.542370

    Final Occupation by Irrep:
              A
    DOCC [    11 ]
    SOCC [     1 ]

  @DF-UKS Final Energy:  -153.18844456052472

   => Energetics <=

    Nuclear Repulsion Energy =             62.8262296372622089
    One-Electron Energy =                -331.6514672835226065
    Two-Electron Energy =                 132.2181875175166397
    DFT Exchange-Correlation Energy =     -16.5813944317809359
    Empirical Dispersion Energy =           0.0000000000000000
    VV10 Nonlocal Energy =                  0.0000000000000000
    Total Energy =                       -153.1884445605247151

  UHF NO Occupations:
  HONO-2 :   10  A 1.9997888
  HONO-1 :   11  A 1.9992034
  HONO-0 :   12  A 1.0000000
  LUNO+0 :   13  A 0.0007966
  LUNO+1 :   14  A 0.0002112
  LUNO+2 :   15  A 0.0001813
  LUNO+3 :   16  A 0.0000613

Computation Completed

Properties will be evaluated at   0.000000,   0.000000,   0.000000 [a0]

Properties computed using the SCF density matrix

  Nuclear Dipole Moment: [e a0]
     X:     4.5392      Y:    -0.6780      Z:    -0.0019

  Electronic Dipole Moment: [e a0]
     X:    -3.6047      Y:     0.6275      Z:     0.0019

  Dipole Moment: [e a0]
     X:     0.9345      Y:    -0.0505      Z:    -0.0000     Total:     0.9358

  Dipole Moment: [D]
     X:     2.3752      Y:    -0.1284      Z:    -0.0000     Total:     2.3787

*** tstop() called on n035 at Tue Mar 15 10:30:51 2022
Module time:
	user time   =      62.41 seconds =       1.04 minutes
	system time =       0.42 seconds =       0.01 minutes
	total time  =         63 seconds =       1.05 minutes
Total time:
	user time   =      62.41 seconds =       1.04 minutes
	system time =       0.42 seconds =       0.01 minutes
	total time  =         63 seconds =       1.05 minutes
Grab this energy -153.18844456052472
    Psi4 stopped on: Tuesday, 15 March 2022 10:30AM
    Psi4 wall time for execution: 0:01:02.89

*** Psi4 exiting successfully. Buy a developer a beer!
