                               Psi4 1.4a2.dev629

  ==> Input File <==

--------------------------------------------------------------------------
import os
memory 14 GB

molecule {
 C   -0.2570729181    0.8016426524    0.0000000000
 O   -2.1921052084   -0.3324703195    0.0000000000
 C    2.4096945917   -0.2473601637    0.0000000000
 H    2.3838667032   -2.2975563378    0.0000000000
 H    3.3901274069    0.4650549082   -1.6644932046
 H    3.3901274069    0.4650549082    1.6644932046
units bohr
0 2
}

basis {

assign 6-31g_2dfp_

[ 6-31g_2dfp_ ]

spherical

!----------------------------------------------------------------------
! Basis Set Exchange
! Version v0.8.13
! https://www.basissetexchange.org
!----------------------------------------------------------------------
!   Basis set: 6-31G(2df,p)
! Description: 6-31G(2df,p)
!        Role: orbital
!     Version: 0  (Data from the original Basis Set Exchange)
!----------------------------------------------------------------------

****
H     0
S    3   1.00
     18.7311370              0.03349460
      2.8253937              0.23472695
      0.6401217              0.81375733
S    1   1.00
      0.1612778              1.00000000
P    1   1.00
      1.5000000              1.0000000
P    1   1.00
      0.3750000              1.0000000
****
B     0
S    6   1.00
   2068.8823000              0.0018663
    310.6495700              0.0142515
     70.6830330              0.0695516
     19.8610800              0.2325729
      6.2993048              0.4670787
      2.1270270              0.3634314
SP   3   1.00
      4.7279710             -0.1303938              0.0745976
      1.1903377             -0.1307889              0.3078467
      0.3594117              1.1309444              0.7434568
SP   1   1.00
      0.1267512              1.0000000              1.0000000
D    1   1.00
      0.8020000              1.0000000
D    1   1.00
      0.2005000              1.0000000
F    1   1.00
      0.5000000              1.0000000
****
C     0
S    6   1.00
   3047.5249000              0.0018347
    457.3695100              0.0140373
    103.9486900              0.0688426
     29.2101550              0.2321844
      9.2866630              0.4679413
      3.1639270              0.3623120
SP   3   1.00
      7.8682724             -0.1193324              0.0689991
      1.8812885             -0.1608542              0.3164240
      0.5442493              1.1434564              0.7443083
SP   1   1.00
      0.1687144              1.0000000              1.0000000
D    1   1.00
      1.2520000              1.0000000
D    1   1.00
      0.3130000              1.0000000
F    1   1.00
      0.8000000              1.0000000
****
N     0
S    6   1.00
   4173.5110000              0.0018348
    627.4579000              0.0139950
    142.9021000              0.0685870
     40.2343300              0.2322410
     12.8202100              0.4690700
      4.3904370              0.3604550
SP   3   1.00
     11.6263580             -0.1149610              0.0675800
      2.7162800             -0.1691180              0.3239070
      0.7722180              1.1458520              0.7408950
SP   1   1.00
      0.2120313              1.0000000              1.0000000
D    1   1.00
      1.8260000              1.0000000
D    1   1.00
      0.4565000              1.0000000
F    1   1.00
      1.0000000              1.0000000
****
O     0
S    6   1.00
   5484.6717000              0.0018311
    825.2349500              0.0139501
    188.0469600              0.0684451
     52.9645000              0.2327143
     16.8975700              0.4701930
      5.7996353              0.3585209
SP   3   1.00
     15.5396160             -0.1107775              0.0708743
      3.5999336             -0.1480263              0.3397528
      1.0137618              1.1307670              0.7271586
SP   1   1.00
      0.2700058              1.0000000              1.0000000
D    1   1.00
      2.5840000              1.0000000
D    1   1.00
      0.6460000              1.0000000
F    1   1.00
      1.4000000              1.0000000
****
F     0
S    6   1.00
   7001.7130900              0.0018196169
   1051.3660900              0.0139160796
    239.2856900              0.0684053245
     67.3974453              0.233185760
     21.5199573              0.471267439
      7.40310130             0.356618546
SP   3   1.00
     20.8479528             -0.108506975            0.0716287243
      4.80830834            -0.146451658            0.3459121030
      1.34406986             1.128688580            0.7224699570
SP   1   1.00
      0.358151393            1.0000000              1.0000000
D    1   1.00
      3.5000000              1.0000000
D    1   1.00
      0.8750000              1.0000000
F    1   1.00
      1.8500000              1.0000000
****
Al     0
S    6   1.00
  13983.1000000              0.00194267
   2098.7500000              0.0148599
    477.7050000              0.0728494
    134.3600000              0.2468300
     42.8709000              0.4872580
     14.5189000              0.3234960
SP   6   1.00
    239.6680000             -0.00292619             0.00460285
     57.4419000             -0.0374080              0.0331990
     18.2859000             -0.1144870              0.1362820
      6.5991400              0.1156350              0.3304760
      2.4904900              0.6125950              0.4491460
      0.9445400              0.3937990              0.2657040
SP   3   1.00
      1.2779000             -0.2276060             -0.0175130
      0.3975900              0.00144583             0.2445330
      0.1600950              1.0927900              0.8049340
SP   1   1.00
      0.0556577              1.0000000              1.0000000
D    1   1.00
      0.6500000              1.0000000
D    1   1.00
      0.1625000              1.0000000
F    1   1.00
      0.2500000              1.0000000
****
Si     0
S    6   1.00
  16115.9000000              0.00195948
   2425.5800000              0.01492880
    553.8670000              0.07284780
    156.3400000              0.24613000
     50.0683000              0.48591400
     17.0178000              0.32500200
SP   6   1.00
    292.7180000             -0.00278094             0.00443826
     69.8731000             -0.03571460             0.03266790
     22.3363000             -0.11498500             0.13472100
      8.1503900              0.09356340             0.32867800
      3.1345800              0.60301700             0.44964000
      1.2254300              0.41895900             0.26137200
SP   3   1.00
      1.7273800             -0.24463000            -0.01779510
      0.5729220              0.00431572             0.25353900
      0.2221920              1.09818000             0.80066900
SP   1   1.00
      0.0778369              1.00000000             1.00000000
D    1   1.00
      0.9000000              1.0000000
D    1   1.00
      0.2250000              1.0000000
F    1   1.00
      0.3200000              1.0000000
****
P     0
S    6   1.00
  19413.3000000              0.0018516
   2909.4200000              0.0142062
    661.3640000              0.0699995
    185.7590000              0.2400790
     59.1943000              0.4847620
     20.0310000              0.3352000
SP   6   1.00
    339.4780000             -0.00278217             0.00456462
     81.0101000             -0.0360499              0.03369360
     25.8780000             -0.1166310              0.13975500
      9.4522100              0.0968328              0.33936200
      3.6656600              0.6144180              0.45092100
      1.4674600              0.4037980              0.23858600
SP   3   1.00
      2.1562300             -0.2529230             -0.01776530
      0.7489970              0.0328517              0.27405800
      0.2831450              1.0812500              0.78542100
SP   1   1.00
      0.0998317              1.0000000              1.00000000
D    1   1.00
      1.1000000              1.0000000
D    1   1.00
      0.2750000              1.0000000
F    1   1.00
      0.4500000              1.0000000
****
S     0
S    6   1.00
  21917.1000000              0.0018690
   3301.4900000              0.0142300
    754.1460000              0.0696960
    212.7110000              0.2384870
     67.9896000              0.4833070
     23.0515000              0.3380740
SP   6   1.00
    423.7350000             -0.0023767              0.0040610
    100.7100000             -0.0316930              0.0306810
     32.1599000             -0.1133170              0.1304520
     11.8079000              0.0560900              0.3272050
      4.6311000              0.5922550              0.4528510
      1.8702500              0.4550060              0.2560420
SP   3   1.00
      2.6158400             -0.2503740             -0.0145110
      0.9221670              0.0669570              0.3102630
      0.3412870              1.0545100              0.7544830
SP   1   1.00
      0.1171670              1.0000000              1.0000000
D    1   1.00
      1.3000000              1.0000000
D    1   1.00
      0.3250000              1.0000000
F    1   1.00
      0.5500000              1.0000000
****
Cl     0
S    6   1.00
  25180.1000000              0.0018330
   3780.3500000              0.0140340
    860.4740000              0.0690970
    242.1450000              0.2374520
     77.3349000              0.4830340
     26.2470000              0.3398560
SP   6   1.00
    491.7650000             -0.0022974              0.0039894
    116.9840000             -0.0307140              0.0303180
     37.4153000             -0.1125280              0.1298800
     13.7834000              0.0450160              0.3279510
      5.4521500              0.5893530              0.4535270
      2.2258800              0.4652060              0.2521540
SP   3   1.00
      3.1864900             -0.2518300             -0.0142990
      1.1442700              0.0615890              0.3235720
      0.4203770              1.0601800              0.7435070
SP   1   1.00
      0.1426570              1.0000000              1.0000000
D    1   1.00
      1.5000000              1.0000000
D    1   1.00
      0.3750000              1.0000000
F    1   1.00
      0.7000000              1.0000000
****
}

set {
reference uhf
freeze_core true
e_convergence 10
d_convergence 10
dft_spherical_points 1202
dft_radial_points 99
}

e = energy('b3lyp')

print_out('Grab this energy {0}'.format(e))
--------------------------------------------------------------------------

    Molecular point group: cs

    Geometry (in Bohr), charge = 0, multiplicity = 2:

       Center              X                  Y                   Z               Mass
    ------------   -----------------  -----------------  -----------------  -----------------
         C           -0.257183463869     0.802679217096     0.000000000000    12.000000000000
         O           -2.192215754169    -0.331433754804     0.000000000000    15.994914619570
         C            2.409584045931    -0.246323599004     0.000000000000    12.000000000000
         H            2.383756157431    -2.296519773104     0.000000000000     1.007825032230
         H            3.390016861131     0.466091472896    -1.664493204600     1.007825032230
         H            3.390016861131     0.466091472896     1.664493204600     1.007825032230

  Charge       = 0
  Multiplicity = 2
  Basis Set: ANONYMOUS9D18D338
    Blend: 6-31G_2DFP_
  Basis Set: (ANONYMOUS9D18D338 AUX)
    Blend: DEF2-UNIVERSAL-JKFIT

    Orbital Energies [Eh]
    ---------------------

    Alpha Occupied:

       1Ap   -19.186755     2Ap   -10.271437     3Ap   -10.209662
       4Ap    -1.081025     5Ap    -0.762715     6Ap    -0.544166
       7Ap    -0.466762     8Ap    -0.457925     1App   -0.456498
       2App   -0.387426     9Ap    -0.386260    10Ap    -0.191818

    Alpha Virtual:

       3App   -0.018860    11Ap     0.091915    12Ap     0.138371
       4App    0.141355    13Ap     0.218019    14Ap     0.268201
      15Ap     0.427910     5App    0.432104    16Ap     0.443817
       6App    0.493635    17Ap     0.506558    18Ap     0.530943
       7App    0.563116    19Ap     0.579307    20Ap     0.608833
       8App    0.615911    21Ap     0.645120    22Ap     0.718090
       9App    0.766372    23Ap     0.785357    10App    0.833452
      11App    0.917476    24Ap     0.927131    25Ap     0.936658
      12App    1.023595    26Ap     1.086648    27Ap     1.107760
      13App    1.153911    28Ap     1.223636    29Ap     1.306556
      14App    1.318369    30Ap     1.328333    31Ap     1.403992
      15App    1.408505    32Ap     1.469635    33Ap     1.560453
      34Ap     1.632070    16App    1.653952    35Ap     1.723416
      17App    1.813728    36Ap     1.836627    37Ap     1.904218
      18App    2.066206    38Ap     2.167843    39Ap     2.495196
      19App    2.680779    40Ap     2.744754    41Ap     2.787047
      20App    2.841736    21App    2.895942    42Ap     2.975660
      43Ap     3.030975    22App    3.057732    23App    3.104857
      44Ap     3.116003    45Ap     3.180579    24App    3.315012
      46Ap     3.366587    25App    3.391272    26App    3.441378
      27App    3.465676    47Ap     3.484619    48Ap     3.572833
      49Ap     3.739627    50Ap     3.765326    51Ap     3.947161
      28App    3.984198    52Ap     4.056350    53Ap     4.113818
      29App    4.125651    54Ap     4.193690    30App    4.391638
      55Ap     4.437164    31App    4.453284    56Ap     4.539208
      57Ap     4.921158    58Ap     5.037418    32App    5.042388
      33App    5.200506    59Ap     5.221521    60Ap     5.473650
      34App    5.482709    61Ap     5.827245    35App    5.930414
      62Ap     6.105067    63Ap     6.770820    36App    6.772982
      37App    7.071708    64Ap     7.135204    65Ap     7.530009

    Beta Occupied:

       1Ap   -19.178691     2Ap   -10.261358     3Ap   -10.206300
       4Ap    -1.065094     5Ap    -0.750959     6Ap    -0.524371
       1App   -0.451969     7Ap    -0.447866     8Ap    -0.438888
       2App   -0.382242     9Ap    -0.347884

    Beta Virtual:

      10Ap    -0.052183     3App   -0.002578    11Ap     0.094544
      12Ap     0.144058     4App    0.144464    13Ap     0.228373
      14Ap     0.273887     5App    0.434086    15Ap     0.434982
      16Ap     0.465928     6App    0.500336    17Ap     0.527948
      18Ap     0.539886     7App    0.569457    19Ap     0.583561
       8App    0.623136    20Ap     0.627546    21Ap     0.650824
      22Ap     0.740048     9App    0.777520    23Ap     0.795371
      10App    0.834229    11App    0.922315    24Ap     0.944005
      25Ap     0.951403    12App    1.027783    26Ap     1.092641
      27Ap     1.109922    13App    1.160099    28Ap     1.232938
      29Ap     1.312180    14App    1.321135    30Ap     1.335084
      15App    1.414071    31Ap     1.414319    32Ap     1.481957
      33Ap     1.571526    34Ap     1.645533    16App    1.668298
      35Ap     1.729735    17App    1.816910    36Ap     1.850572
      37Ap     1.910866    18App    2.072932    38Ap     2.189284
      39Ap     2.507887    19App    2.695048    40Ap     2.759360
      41Ap     2.808174    20App    2.857104    21App    2.897584
      42Ap     2.985038    43Ap     3.047593    22App    3.066354
      23App    3.123601    44Ap     3.124466    45Ap     3.215282
      24App    3.358753    46Ap     3.377986    25App    3.397374
      26App    3.449283    27App    3.481768    47Ap     3.507977
      48Ap     3.586067    49Ap     3.765473    50Ap     3.774755
      51Ap     3.955743    28App    3.993476    52Ap     4.072674
      53Ap     4.128171    29App    4.128388    54Ap     4.205627
      30App    4.393934    55Ap     4.443352    31App    4.457464
      56Ap     4.550075    57Ap     4.925004    58Ap     5.054992
      32App    5.060377    33App    5.202687    59Ap     5.227176
      60Ap     5.486295    34App    5.496580    61Ap     5.840498
      35App    5.936007    62Ap     6.128264    63Ap     6.800084
      36App    6.802587    37App    7.076011    64Ap     7.164578
      65Ap     7.541675

    Final Occupation by Irrep:
             Ap   App
    DOCC [     9,    2 ]
    SOCC [     1,    0 ]

  @DF-UKS Final Energy:  -153.18837976009098

   => Energetics <=

    Nuclear Repulsion Energy =             62.8232428441961090
    One-Electron Energy =                -331.6432991490538598
    Two-Electron Energy =                 132.2146411963100547
    DFT Exchange-Correlation Energy =     -16.5829646515432785
    Empirical Dispersion Energy =           0.0000000000000000
    VV10 Nonlocal Energy =                  0.0000000000000000
    Total Energy =                       -153.1883797600909816

  UHF NO Occupations:
  HONO-2 :    8 Ap 1.9997874
  HONO-1 :    9 Ap 1.9992020
  HONO-0 :   10 Ap 1.0000000
  LUNO+0 :   11 Ap 0.0007980
  LUNO+1 :   12 Ap 0.0002126
  LUNO+2 :    3App 0.0001810
  LUNO+3 :   13 Ap 0.0000615

Computation Completed

Properties will be evaluated at   0.000000,   0.000000,   0.000000 [a0]

Properties computed using the SCF density matrix

  Nuclear Dipole Moment: [e a0]
     X:     4.5405      Y:    -0.6777      Z:     0.0000

  Electronic Dipole Moment: [e a0]
     X:    -3.6067      Y:     0.6253      Z:     0.0000

  Dipole Moment: [e a0]
     X:     0.9337      Y:    -0.0523      Z:     0.0000     Total:     0.9352

  Dipole Moment: [D]
     X:     2.3733      Y:    -0.1330      Z:     0.0000     Total:     2.3770

*** tstop() called on n036 at Tue Mar 15 10:34:36 2022
Module time:
	user time   =      62.45 seconds =       1.04 minutes
	system time =       0.42 seconds =       0.01 minutes
	total time  =         63 seconds =       1.05 minutes
Total time:
	user time   =      62.45 seconds =       1.04 minutes
	system time =       0.42 seconds =       0.01 minutes
	total time  =         63 seconds =       1.05 minutes
Grab this energy -153.18837976009098
    Psi4 stopped on: Tuesday, 15 March 2022 10:34AM
    Psi4 wall time for execution: 0:01:02.90

*** Psi4 exiting successfully. Buy a developer a beer!
