                               Psi4 1.4a2.dev629

  ==> Input File <==

--------------------------------------------------------------------------
import os
memory 14 GB

molecule {
 C   -0.2637852973    0.8025694819   -0.0000000000
 O   -2.1881522811   -0.3308892184    0.0000000000
 C    2.4121832273   -0.2467093780   -0.0000000000
 H    2.3819590240   -2.3084137276    0.0000000000
 H    3.3912166546    0.4689042450   -1.6641438997
 H    3.3912166546    0.4689042450    1.6641438997
units bohr
0 2
}

basis {

assign 6-31g_2dfp_

[ 6-31g_2dfp_ ]

spherical

!----------------------------------------------------------------------
! Basis Set Exchange
! Version v0.8.13
! https://www.basissetexchange.org
!----------------------------------------------------------------------
!   Basis set: 6-31G(2df,p)
! Description: 6-31G(2df,p)
!        Role: orbital
!     Version: 0  (Data from the original Basis Set Exchange)
!----------------------------------------------------------------------

****
H     0
S    3   1.00
     18.7311370              0.03349460
      2.8253937              0.23472695
      0.6401217              0.81375733
S    1   1.00
      0.1612778              1.00000000
P    1   1.00
      1.5000000              1.0000000
P    1   1.00
      0.3750000              1.0000000
****
B     0
S    6   1.00
   2068.8823000              0.0018663
    310.6495700              0.0142515
     70.6830330              0.0695516
     19.8610800              0.2325729
      6.2993048              0.4670787
      2.1270270              0.3634314
SP   3   1.00
      4.7279710             -0.1303938              0.0745976
      1.1903377             -0.1307889              0.3078467
      0.3594117              1.1309444              0.7434568
SP   1   1.00
      0.1267512              1.0000000              1.0000000
D    1   1.00
      0.8020000              1.0000000
D    1   1.00
      0.2005000              1.0000000
F    1   1.00
      0.5000000              1.0000000
****
C     0
S    6   1.00
   3047.5249000              0.0018347
    457.3695100              0.0140373
    103.9486900              0.0688426
     29.2101550              0.2321844
      9.2866630              0.4679413
      3.1639270              0.3623120
SP   3   1.00
      7.8682724             -0.1193324              0.0689991
      1.8812885             -0.1608542              0.3164240
      0.5442493              1.1434564              0.7443083
SP   1   1.00
      0.1687144              1.0000000              1.0000000
D    1   1.00
      1.2520000              1.0000000
D    1   1.00
      0.3130000              1.0000000
F    1   1.00
      0.8000000              1.0000000
****
N     0
S    6   1.00
   4173.5110000              0.0018348
    627.4579000              0.0139950
    142.9021000              0.0685870
     40.2343300              0.2322410
     12.8202100              0.4690700
      4.3904370              0.3604550
SP   3   1.00
     11.6263580             -0.1149610              0.0675800
      2.7162800             -0.1691180              0.3239070
      0.7722180              1.1458520              0.7408950
SP   1   1.00
      0.2120313              1.0000000              1.0000000
D    1   1.00
      1.8260000              1.0000000
D    1   1.00
      0.4565000              1.0000000
F    1   1.00
      1.0000000              1.0000000
****
O     0
S    6   1.00
   5484.6717000              0.0018311
    825.2349500              0.0139501
    188.0469600              0.0684451
     52.9645000              0.2327143
     16.8975700              0.4701930
      5.7996353              0.3585209
SP   3   1.00
     15.5396160             -0.1107775              0.0708743
      3.5999336             -0.1480263              0.3397528
      1.0137618              1.1307670              0.7271586
SP   1   1.00
      0.2700058              1.0000000              1.0000000
D    1   1.00
      2.5840000              1.0000000
D    1   1.00
      0.6460000              1.0000000
F    1   1.00
      1.4000000              1.0000000
****
F     0
S    6   1.00
   7001.7130900              0.0018196169
   1051.3660900              0.0139160796
    239.2856900              0.0684053245
     67.3974453              0.233185760
     21.5199573              0.471267439
      7.40310130             0.356618546
SP   3   1.00
     20.8479528             -0.108506975            0.0716287243
      4.80830834            -0.146451658            0.3459121030
      1.34406986             1.128688580            0.7224699570
SP   1   1.00
      0.358151393            1.0000000              1.0000000
D    1   1.00
      3.5000000              1.0000000
D    1   1.00
      0.8750000              1.0000000
F    1   1.00
      1.8500000              1.0000000
****
Al     0
S    6   1.00
  13983.1000000              0.00194267
   2098.7500000              0.0148599
    477.7050000              0.0728494
    134.3600000              0.2468300
     42.8709000              0.4872580
     14.5189000              0.3234960
SP   6   1.00
    239.6680000             -0.00292619             0.00460285
     57.4419000             -0.0374080              0.0331990
     18.2859000             -0.1144870              0.1362820
      6.5991400              0.1156350              0.3304760
      2.4904900              0.6125950              0.4491460
      0.9445400              0.3937990              0.2657040
SP   3   1.00
      1.2779000             -0.2276060             -0.0175130
      0.3975900              0.00144583             0.2445330
      0.1600950              1.0927900              0.8049340
SP   1   1.00
      0.0556577              1.0000000              1.0000000
D    1   1.00
      0.6500000              1.0000000
D    1   1.00
      0.1625000              1.0000000
F    1   1.00
      0.2500000              1.0000000
****
Si     0
S    6   1.00
  16115.9000000              0.00195948
   2425.5800000              0.01492880
    553.8670000              0.07284780
    156.3400000              0.24613000
     50.0683000              0.48591400
     17.0178000              0.32500200
SP   6   1.00
    292.7180000             -0.00278094             0.00443826
     69.8731000             -0.03571460             0.03266790
     22.3363000             -0.11498500             0.13472100
      8.1503900              0.09356340             0.32867800
      3.1345800              0.60301700             0.44964000
      1.2254300              0.41895900             0.26137200
SP   3   1.00
      1.7273800             -0.24463000            -0.01779510
      0.5729220              0.00431572             0.25353900
      0.2221920              1.09818000             0.80066900
SP   1   1.00
      0.0778369              1.00000000             1.00000000
D    1   1.00
      0.9000000              1.0000000
D    1   1.00
      0.2250000              1.0000000
F    1   1.00
      0.3200000              1.0000000
****
P     0
S    6   1.00
  19413.3000000              0.0018516
   2909.4200000              0.0142062
    661.3640000              0.0699995
    185.7590000              0.2400790
     59.1943000              0.4847620
     20.0310000              0.3352000
SP   6   1.00
    339.4780000             -0.00278217             0.00456462
     81.0101000             -0.0360499              0.03369360
     25.8780000             -0.1166310              0.13975500
      9.4522100              0.0968328              0.33936200
      3.6656600              0.6144180              0.45092100
      1.4674600              0.4037980              0.23858600
SP   3   1.00
      2.1562300             -0.2529230             -0.01776530
      0.7489970              0.0328517              0.27405800
      0.2831450              1.0812500              0.78542100
SP   1   1.00
      0.0998317              1.0000000              1.00000000
D    1   1.00
      1.1000000              1.0000000
D    1   1.00
      0.2750000              1.0000000
F    1   1.00
      0.4500000              1.0000000
****
S     0
S    6   1.00
  21917.1000000              0.0018690
   3301.4900000              0.0142300
    754.1460000              0.0696960
    212.7110000              0.2384870
     67.9896000              0.4833070
     23.0515000              0.3380740
SP   6   1.00
    423.7350000             -0.0023767              0.0040610
    100.7100000             -0.0316930              0.0306810
     32.1599000             -0.1133170              0.1304520
     11.8079000              0.0560900              0.3272050
      4.6311000              0.5922550              0.4528510
      1.8702500              0.4550060              0.2560420
SP   3   1.00
      2.6158400             -0.2503740             -0.0145110
      0.9221670              0.0669570              0.3102630
      0.3412870              1.0545100              0.7544830
SP   1   1.00
      0.1171670              1.0000000              1.0000000
D    1   1.00
      1.3000000              1.0000000
D    1   1.00
      0.3250000              1.0000000
F    1   1.00
      0.5500000              1.0000000
****
Cl     0
S    6   1.00
  25180.1000000              0.0018330
   3780.3500000              0.0140340
    860.4740000              0.0690970
    242.1450000              0.2374520
     77.3349000              0.4830340
     26.2470000              0.3398560
SP   6   1.00
    491.7650000             -0.0022974              0.0039894
    116.9840000             -0.0307140              0.0303180
     37.4153000             -0.1125280              0.1298800
     13.7834000              0.0450160              0.3279510
      5.4521500              0.5893530              0.4535270
      2.2258800              0.4652060              0.2521540
SP   3   1.00
      3.1864900             -0.2518300             -0.0142990
      1.1442700              0.0615890              0.3235720
      0.4203770              1.0601800              0.7435070
SP   1   1.00
      0.1426570              1.0000000              1.0000000
D    1   1.00
      1.5000000              1.0000000
D    1   1.00
      0.3750000              1.0000000
F    1   1.00
      0.7000000              1.0000000
****
}

set {
reference uhf
freeze_core true
e_convergence 10
d_convergence 10
dft_spherical_points 1202
dft_radial_points 99
}

e = energy('b3lyp')

print_out('Grab this energy {0}'.format(e))
--------------------------------------------------------------------------

    Molecular point group: cs

    Geometry (in Bohr), charge = 0, multiplicity = 2:

       Center              X                  Y                   Z               Mass
    ------------   -----------------  -----------------  -----------------  -----------------
         C           -0.264193733038     0.802652093495     0.000000000000    12.000000000000
         O           -2.188560716838    -0.330806606805     0.000000000000    15.994914619570
         C            2.411774791562    -0.246626766405     0.000000000000    12.000000000000
         H            2.381550588262    -2.308331116005     0.000000000000     1.007825032230
         H            3.390808218862     0.468986856595    -1.664143899700     1.007825032230
         H            3.390808218862     0.468986856595     1.664143899700     1.007825032230

  Charge       = 0
  Multiplicity = 2
  Basis Set: ANONYMOUS26B77279
    Blend: 6-31G_2DFP_
  Basis Set: (ANONYMOUS26B77279 AUX)
    Blend: DEF2-UNIVERSAL-JKFIT

    Orbital Energies [Eh]
    ---------------------

    Alpha Occupied:

       1Ap   -19.186948     2Ap   -10.270861     3Ap   -10.210037
       4Ap    -1.083985     5Ap    -0.761149     6Ap    -0.543503
       7Ap    -0.467154     8Ap    -0.457463     1App   -0.456388
       2App   -0.388771     9Ap    -0.387029    10Ap    -0.190930

    Alpha Virtual:

       3App   -0.017466    11Ap     0.092015    12Ap     0.137435
       4App    0.141538    13Ap     0.217281    14Ap     0.268350
      15Ap     0.428142     5App    0.432059    16Ap     0.443573
       6App    0.493574    17Ap     0.506411    18Ap     0.530832
       7App    0.563319    19Ap     0.577817    20Ap     0.611161
       8App    0.615742    21Ap     0.644447    22Ap     0.718662
       9App    0.766532    23Ap     0.785699    10App    0.832448
      11App    0.916249    24Ap     0.926046    25Ap     0.935292
      12App    1.023616    26Ap     1.085824    27Ap     1.107767
      13App    1.153254    28Ap     1.221498    29Ap     1.305712
      14App    1.316269    30Ap     1.326882    31Ap     1.404472
      15App    1.408780    32Ap     1.468961    33Ap     1.559445
      34Ap     1.632712    16App    1.655400    35Ap     1.722572
      17App    1.814067    36Ap     1.834877    37Ap     1.900708
      18App    2.066955    38Ap     2.167883    39Ap     2.502391
      19App    2.680149    40Ap     2.743591    41Ap     2.784395
      20App    2.843407    21App    2.894987    42Ap     2.973886
      43Ap     3.032076    22App    3.059191    23App    3.104199
      44Ap     3.114106    45Ap     3.182101    24App    3.313558
      46Ap     3.372429    25App    3.393251    26App    3.441032
      27App    3.465810    47Ap     3.486759    48Ap     3.571550
      49Ap     3.745147    50Ap     3.760088    51Ap     3.941737
      28App    3.979872    52Ap     4.056740    53Ap     4.108972
      29App    4.119376    54Ap     4.189490    30App    4.390305
      55Ap     4.432966    31App    4.449745    56Ap     4.530031
      57Ap     4.921309    58Ap     5.037180    32App    5.042507
      33App    5.199216    59Ap     5.208004    60Ap     5.480198
      34App    5.488593    61Ap     5.824868    35App    5.937701
      62Ap     6.109249    63Ap     6.771025    36App    6.773359
      37App    7.069828    64Ap     7.135217    65Ap     7.533113

    Beta Occupied:

       1Ap   -19.178914     2Ap   -10.260835     3Ap   -10.206604
       4Ap    -1.068181     5Ap    -0.749321     6Ap    -0.523839
       1App   -0.451768     7Ap    -0.446675     8Ap    -0.439476
       2App   -0.383664     9Ap    -0.349179

    Beta Virtual:

      10Ap    -0.051649     3App   -0.001213    11Ap     0.094756
      12Ap     0.143073     4App    0.144672    13Ap     0.227915
      14Ap     0.273954     5App    0.434063    15Ap     0.435590
      16Ap     0.465304     6App    0.500268    17Ap     0.528015
      18Ap     0.539720     7App    0.569762    19Ap     0.581981
       8App    0.622928    20Ap     0.629204    21Ap     0.650540
      22Ap     0.740909     9App    0.777601    23Ap     0.795550
      10App    0.833222    11App    0.921098    24Ap     0.942771
      25Ap     0.950146    12App    1.027827    26Ap     1.092026
      27Ap     1.109805    13App    1.159464    28Ap     1.230836
      29Ap     1.311251    14App    1.319065    30Ap     1.333666
      15App    1.414354    31Ap     1.414812    32Ap     1.481244
      33Ap     1.570476    34Ap     1.646196    16App    1.669763
      35Ap     1.728777    17App    1.817234    36Ap     1.849042
      37Ap     1.907376    18App    2.073649    38Ap     2.189203
      39Ap     2.515106    19App    2.694439    40Ap     2.758088
      41Ap     2.805471    20App    2.858774    21App    2.896630
      42Ap     2.983376    43Ap     3.049040    22App    3.067831
      44Ap     3.122611    23App    3.122893    45Ap     3.216800
      24App    3.356900    46Ap     3.383942    25App    3.399738
      26App    3.450382    27App    3.480401    47Ap     3.509816
      48Ap     3.584765    49Ap     3.769535    50Ap     3.770871
      51Ap     3.950450    28App    3.989234    52Ap     4.073140
      29App    4.122179    53Ap     4.123610    54Ap     4.201156
      30App    4.392646    55Ap     4.439105    31App    4.453838
      56Ap     4.540896    57Ap     4.925218    58Ap     5.054616
      32App    5.060444    33App    5.201346    59Ap     5.213697
      60Ap     5.492759    34App    5.502492    61Ap     5.838079
      35App    5.943280    62Ap     6.132364    63Ap     6.800200
      36App    6.802868    37App    7.074103    64Ap     7.164457
      65Ap     7.544719

    Final Occupation by Irrep:
             Ap   App
    DOCC [     9,    2 ]
    SOCC [     1,    0 ]

  @DF-UKS Final Energy:  -153.18843252421240

   => Energetics <=

    Nuclear Repulsion Energy =             62.8529839310589082
    One-Electron Energy =                -331.6980621414960524
    Two-Electron Energy =                 132.2399594626383816
    DFT Exchange-Correlation Energy =     -16.5833137764136680
    Empirical Dispersion Energy =           0.0000000000000000
    VV10 Nonlocal Energy =                  0.0000000000000000
    Total Energy =                       -153.1884325242124021

  UHF NO Occupations:
  HONO-2 :    8 Ap 1.9997792
  HONO-1 :    9 Ap 1.9992113
  HONO-0 :   10 Ap 1.0000000
  LUNO+0 :   11 Ap 0.0007887
  LUNO+1 :   12 Ap 0.0002208
  LUNO+2 :    3App 0.0001776
  LUNO+3 :   13 Ap 0.0000610

Computation Completed

Properties will be evaluated at   0.000000,   0.000000,   0.000000 [a0]

Properties computed using the SCF density matrix

  Nuclear Dipole Moment: [e a0]
     X:     4.5402      Y:    -0.6807      Z:     0.0000

  Electronic Dipole Moment: [e a0]
     X:    -3.6184      Y:     0.6291      Z:     0.0000

  Dipole Moment: [e a0]
     X:     0.9218      Y:    -0.0516      Z:     0.0000     Total:     0.9232

  Dipole Moment: [D]
     X:     2.3430      Y:    -0.1311      Z:     0.0000     Total:     2.3466

*** tstop() called on n035 at Tue Mar 15 10:26:21 2022
Module time:
	user time   =      62.22 seconds =       1.04 minutes
	system time =       0.39 seconds =       0.01 minutes
	total time  =         63 seconds =       1.05 minutes
Total time:
	user time   =      62.22 seconds =       1.04 minutes
	system time =       0.39 seconds =       0.01 minutes
	total time  =         63 seconds =       1.05 minutes
Grab this energy -153.1884325242124
    Psi4 stopped on: Tuesday, 15 March 2022 10:26AM
    Psi4 wall time for execution: 0:01:02.66

*** Psi4 exiting successfully. Buy a developer a beer!
