                               Psi4 1.4a2.dev629

  ==> Input File <==

--------------------------------------------------------------------------
import os
memory 14 GB

molecule {
 C   -0.2559349578    0.8088839886    0.0041633694
 O   -2.1792366868   -0.3400985965   -0.0028432125
 C    2.4067453498   -0.2439700600    0.0012658439
 H    2.3731829359   -2.3065062351   -0.0004307732
 H    3.3899802253    0.4668356937   -1.6647313825
 H    3.3899011159    0.4692208572    1.6625761549
units bohr
0 2
}

basis {

assign 6-31g_2dfp_

[ 6-31g_2dfp_ ]

spherical

!----------------------------------------------------------------------
! Basis Set Exchange
! Version v0.8.13
! https://www.basissetexchange.org
!----------------------------------------------------------------------
!   Basis set: 6-31G(2df,p)
! Description: 6-31G(2df,p)
!        Role: orbital
!     Version: 0  (Data from the original Basis Set Exchange)
!----------------------------------------------------------------------

****
H     0
S    3   1.00
     18.7311370              0.03349460
      2.8253937              0.23472695
      0.6401217              0.81375733
S    1   1.00
      0.1612778              1.00000000
P    1   1.00
      1.5000000              1.0000000
P    1   1.00
      0.3750000              1.0000000
****
B     0
S    6   1.00
   2068.8823000              0.0018663
    310.6495700              0.0142515
     70.6830330              0.0695516
     19.8610800              0.2325729
      6.2993048              0.4670787
      2.1270270              0.3634314
SP   3   1.00
      4.7279710             -0.1303938              0.0745976
      1.1903377             -0.1307889              0.3078467
      0.3594117              1.1309444              0.7434568
SP   1   1.00
      0.1267512              1.0000000              1.0000000
D    1   1.00
      0.8020000              1.0000000
D    1   1.00
      0.2005000              1.0000000
F    1   1.00
      0.5000000              1.0000000
****
C     0
S    6   1.00
   3047.5249000              0.0018347
    457.3695100              0.0140373
    103.9486900              0.0688426
     29.2101550              0.2321844
      9.2866630              0.4679413
      3.1639270              0.3623120
SP   3   1.00
      7.8682724             -0.1193324              0.0689991
      1.8812885             -0.1608542              0.3164240
      0.5442493              1.1434564              0.7443083
SP   1   1.00
      0.1687144              1.0000000              1.0000000
D    1   1.00
      1.2520000              1.0000000
D    1   1.00
      0.3130000              1.0000000
F    1   1.00
      0.8000000              1.0000000
****
N     0
S    6   1.00
   4173.5110000              0.0018348
    627.4579000              0.0139950
    142.9021000              0.0685870
     40.2343300              0.2322410
     12.8202100              0.4690700
      4.3904370              0.3604550
SP   3   1.00
     11.6263580             -0.1149610              0.0675800
      2.7162800             -0.1691180              0.3239070
      0.7722180              1.1458520              0.7408950
SP   1   1.00
      0.2120313              1.0000000              1.0000000
D    1   1.00
      1.8260000              1.0000000
D    1   1.00
      0.4565000              1.0000000
F    1   1.00
      1.0000000              1.0000000
****
O     0
S    6   1.00
   5484.6717000              0.0018311
    825.2349500              0.0139501
    188.0469600              0.0684451
     52.9645000              0.2327143
     16.8975700              0.4701930
      5.7996353              0.3585209
SP   3   1.00
     15.5396160             -0.1107775              0.0708743
      3.5999336             -0.1480263              0.3397528
      1.0137618              1.1307670              0.7271586
SP   1   1.00
      0.2700058              1.0000000              1.0000000
D    1   1.00
      2.5840000              1.0000000
D    1   1.00
      0.6460000              1.0000000
F    1   1.00
      1.4000000              1.0000000
****
F     0
S    6   1.00
   7001.7130900              0.0018196169
   1051.3660900              0.0139160796
    239.2856900              0.0684053245
     67.3974453              0.233185760
     21.5199573              0.471267439
      7.40310130             0.356618546
SP   3   1.00
     20.8479528             -0.108506975            0.0716287243
      4.80830834            -0.146451658            0.3459121030
      1.34406986             1.128688580            0.7224699570
SP   1   1.00
      0.358151393            1.0000000              1.0000000
D    1   1.00
      3.5000000              1.0000000
D    1   1.00
      0.8750000              1.0000000
F    1   1.00
      1.8500000              1.0000000
****
Al     0
S    6   1.00
  13983.1000000              0.00194267
   2098.7500000              0.0148599
    477.7050000              0.0728494
    134.3600000              0.2468300
     42.8709000              0.4872580
     14.5189000              0.3234960
SP   6   1.00
    239.6680000             -0.00292619             0.00460285
     57.4419000             -0.0374080              0.0331990
     18.2859000             -0.1144870              0.1362820
      6.5991400              0.1156350              0.3304760
      2.4904900              0.6125950              0.4491460
      0.9445400              0.3937990              0.2657040
SP   3   1.00
      1.2779000             -0.2276060             -0.0175130
      0.3975900              0.00144583             0.2445330
      0.1600950              1.0927900              0.8049340
SP   1   1.00
      0.0556577              1.0000000              1.0000000
D    1   1.00
      0.6500000              1.0000000
D    1   1.00
      0.1625000              1.0000000
F    1   1.00
      0.2500000              1.0000000
****
Si     0
S    6   1.00
  16115.9000000              0.00195948
   2425.5800000              0.01492880
    553.8670000              0.07284780
    156.3400000              0.24613000
     50.0683000              0.48591400
     17.0178000              0.32500200
SP   6   1.00
    292.7180000             -0.00278094             0.00443826
     69.8731000             -0.03571460             0.03266790
     22.3363000             -0.11498500             0.13472100
      8.1503900              0.09356340             0.32867800
      3.1345800              0.60301700             0.44964000
      1.2254300              0.41895900             0.26137200
SP   3   1.00
      1.7273800             -0.24463000            -0.01779510
      0.5729220              0.00431572             0.25353900
      0.2221920              1.09818000             0.80066900
SP   1   1.00
      0.0778369              1.00000000             1.00000000
D    1   1.00
      0.9000000              1.0000000
D    1   1.00
      0.2250000              1.0000000
F    1   1.00
      0.3200000              1.0000000
****
P     0
S    6   1.00
  19413.3000000              0.0018516
   2909.4200000              0.0142062
    661.3640000              0.0699995
    185.7590000              0.2400790
     59.1943000              0.4847620
     20.0310000              0.3352000
SP   6   1.00
    339.4780000             -0.00278217             0.00456462
     81.0101000             -0.0360499              0.03369360
     25.8780000             -0.1166310              0.13975500
      9.4522100              0.0968328              0.33936200
      3.6656600              0.6144180              0.45092100
      1.4674600              0.4037980              0.23858600
SP   3   1.00
      2.1562300             -0.2529230             -0.01776530
      0.7489970              0.0328517              0.27405800
      0.2831450              1.0812500              0.78542100
SP   1   1.00
      0.0998317              1.0000000              1.00000000
D    1   1.00
      1.1000000              1.0000000
D    1   1.00
      0.2750000              1.0000000
F    1   1.00
      0.4500000              1.0000000
****
S     0
S    6   1.00
  21917.1000000              0.0018690
   3301.4900000              0.0142300
    754.1460000              0.0696960
    212.7110000              0.2384870
     67.9896000              0.4833070
     23.0515000              0.3380740
SP   6   1.00
    423.7350000             -0.0023767              0.0040610
    100.7100000             -0.0316930              0.0306810
     32.1599000             -0.1133170              0.1304520
     11.8079000              0.0560900              0.3272050
      4.6311000              0.5922550              0.4528510
      1.8702500              0.4550060              0.2560420
SP   3   1.00
      2.6158400             -0.2503740             -0.0145110
      0.9221670              0.0669570              0.3102630
      0.3412870              1.0545100              0.7544830
SP   1   1.00
      0.1171670              1.0000000              1.0000000
D    1   1.00
      1.3000000              1.0000000
D    1   1.00
      0.3250000              1.0000000
F    1   1.00
      0.5500000              1.0000000
****
Cl     0
S    6   1.00
  25180.1000000              0.0018330
   3780.3500000              0.0140340
    860.4740000              0.0690970
    242.1450000              0.2374520
     77.3349000              0.4830340
     26.2470000              0.3398560
SP   6   1.00
    491.7650000             -0.0022974              0.0039894
    116.9840000             -0.0307140              0.0303180
     37.4153000             -0.1125280              0.1298800
     13.7834000              0.0450160              0.3279510
      5.4521500              0.5893530              0.4535270
      2.2258800              0.4652060              0.2521540
SP   3   1.00
      3.1864900             -0.2518300             -0.0142990
      1.1442700              0.0615890              0.3235720
      0.4203770              1.0601800              0.7435070
SP   1   1.00
      0.1426570              1.0000000              1.0000000
D    1   1.00
      1.5000000              1.0000000
D    1   1.00
      0.3750000              1.0000000
F    1   1.00
      0.7000000              1.0000000
****
}

set {
reference uhf
freeze_core true
e_convergence 10
d_convergence 10
dft_spherical_points 1202
dft_radial_points 99
}

e = energy('b3lyp')

print_out('Grab this energy {0}'.format(e))
--------------------------------------------------------------------------

    Molecular point group: c1

    Geometry (in Bohr), charge = 0, multiplicity = 2:

       Center              X                  Y                   Z               Mass
    ------------   -----------------  -----------------  -----------------  -----------------
         C           -0.260065918165     0.809861579056     0.003766623213    12.000000000000
         O           -2.183367647165    -0.339121006044    -0.003239958687    15.994914619570
         C            2.402614389435    -0.242992469544     0.000869097713    12.000000000000
         H            2.369051975535    -2.305528644644    -0.000827519387     1.007825032230
         H            3.385849264935     0.467813284156    -1.665128128687     1.007825032230
         H            3.385770155535     0.470198447656     1.662179408713     1.007825032230

  Charge       = 0
  Multiplicity = 2
  Basis Set: ANONYMOUS56F8C662
    Blend: 6-31G_2DFP_
  Basis Set: (ANONYMOUS56F8C662 AUX)
    Blend: DEF2-UNIVERSAL-JKFIT

    Orbital Energies [Eh]
    ---------------------

    Alpha Occupied:

       1A    -19.186795     2A    -10.271177     3A    -10.209945
       4A     -1.082004     5A     -0.762220     6A     -0.543901
       7A     -0.467116     8A     -0.457492     9A     -0.456544
      10A     -0.387580    11A     -0.385828    12A     -0.192510

    Alpha Virtual:

      13A     -0.018504    14A      0.091988    15A      0.137105
      16A      0.141332    17A      0.218924    18A      0.268598
      19A      0.428550    20A      0.431897    21A      0.443873
      22A      0.493769    23A      0.506039    24A      0.530521
      25A      0.562613    26A      0.577907    27A      0.608960
      28A      0.616103    29A      0.644445    30A      0.717427
      31A      0.767623    32A      0.785882    33A      0.832300
      34A      0.917027    35A      0.927266    36A      0.938173
      37A      1.023475    38A      1.085255    39A      1.108388
      40A      1.154624    41A      1.222242    42A      1.306810
      43A      1.316742    44A      1.328688    45A      1.404920
      46A      1.407175    47A      1.468182    48A      1.559639
      49A      1.629299    50A      1.654083    51A      1.719920
      52A      1.813712    53A      1.837438    54A      1.902697
      55A      2.064556    56A      2.163698    57A      2.498069
      58A      2.680110    59A      2.744719    60A      2.784006
      61A      2.843075    62A      2.894480    63A      2.971558
      64A      3.034802    65A      3.060505    66A      3.105278
      67A      3.116474    68A      3.184011    69A      3.315188
      70A      3.372628    71A      3.392973    72A      3.440816
      73A      3.467178    74A      3.487919    75A      3.571461
      76A      3.741292    77A      3.761878    78A      3.944271
      79A      3.984982    80A      4.058671    81A      4.113733
      82A      4.120117    83A      4.191775    84A      4.390113
      85A      4.437809    86A      4.450535    87A      4.532611
      88A      4.919744    89A      5.037229    90A      5.042429
      91A      5.199086    92A      5.208643    93A      5.476290
      94A      5.484436    95A      5.825814    96A      5.932229
      97A      6.105423    98A      6.770994    99A      6.773000
     100A      7.070486   101A      7.135479   102A      7.530867

    Beta Occupied:

       1A    -19.178702     2A    -10.261138     3A    -10.206557
       4A     -1.066053     5A     -0.750398     6A     -0.524238
       7A     -0.452001     8A     -0.447077     9A     -0.439148
      10A     -0.382409    11A     -0.347664

    Beta Virtual:

      12A     -0.053066    13A     -0.002224    14A      0.094704
      15A      0.142793    16A      0.144459    17A      0.229273
      18A      0.274273    19A      0.433827    20A      0.435460
      21A      0.466504    22A      0.500473    23A      0.527418
      24A      0.539167    25A      0.569039    26A      0.582057
      27A      0.623171    28A      0.627562    29A      0.650094
      30A      0.739310    31A      0.778780    32A      0.795830
      33A      0.833075    34A      0.921878    35A      0.946779
      36A      0.950445    37A      1.027680    38A      1.091490
      39A      1.110427    40A      1.160852    41A      1.231390
      42A      1.312447    43A      1.319563    44A      1.335494
      45A      1.412722    46A      1.415463    47A      1.480675
      48A      1.570857    49A      1.642407    50A      1.668577
      51A      1.726171    52A      1.816810    53A      1.851479
      54A      1.909431    55A      2.071293    56A      2.185180
      57A      2.510745    58A      2.694438    59A      2.759203
      60A      2.804934    61A      2.858110    62A      2.896112
      63A      2.981132    64A      3.051375    65A      3.069008
      66A      3.123983    67A      3.125003    68A      3.218602
      69A      3.358687    70A      3.383863    71A      3.399294
      72A      3.448599    73A      3.483461    74A      3.511179
      75A      3.584750    76A      3.766717    77A      3.771591
      78A      3.953090    79A      3.994283    80A      4.075108
      81A      4.122906    82A      4.127797    83A      4.203966
      84A      4.392361    85A      4.444067    86A      4.454740
      87A      4.543476    88A      4.923633    89A      5.054778
      90A      5.060531    91A      5.201267    92A      5.214391
      93A      5.488903    94A      5.498365    95A      5.839093
      96A      5.937818    97A      6.128707    98A      6.800409
      99A      6.802764   100A      7.074787   101A      7.164943
     102A      7.542549

    Final Occupation by Irrep:
              A
    DOCC [    11 ]
    SOCC [     1 ]

  @DF-UKS Final Energy:  -153.18843218589222

   => Energetics <=

    Nuclear Repulsion Energy =             62.8832864163951015
    One-Electron Energy =                -331.7635007323209493
    Two-Electron Energy =                 132.2741633898704663
    DFT Exchange-Correlation Energy =     -16.5823812598368328
    Empirical Dispersion Energy =           0.0000000000000000
    VV10 Nonlocal Energy =                  0.0000000000000000
    Total Energy =                       -153.1884321858922249

  UHF NO Occupations:
  HONO-2 :   10  A 1.9997850
  HONO-1 :   11  A 1.9992007
  HONO-0 :   12  A 1.0000000
  LUNO+0 :   13  A 0.0007993
  LUNO+1 :   14  A 0.0002150
  LUNO+2 :   15  A 0.0001774
  LUNO+3 :   16  A 0.0000618

Computation Completed

Properties will be evaluated at   0.000000,   0.000000,   0.000000 [a0]

Properties computed using the SCF density matrix

  Nuclear Dipole Moment: [e a0]
     X:     4.5290      Y:    -0.6793      Z:    -0.0019

  Electronic Dipole Moment: [e a0]
     X:    -3.6016      Y:     0.6307      Z:     0.0019

  Dipole Moment: [e a0]
     X:     0.9274      Y:    -0.0485      Z:    -0.0000     Total:     0.9287

  Dipole Moment: [D]
     X:     2.3573      Y:    -0.1233      Z:    -0.0000     Total:     2.3605

*** tstop() called on n036 at Tue Mar 15 10:31:51 2022
Module time:
	user time   =      62.39 seconds =       1.04 minutes
	system time =       0.44 seconds =       0.01 minutes
	total time  =         63 seconds =       1.05 minutes
Total time:
	user time   =      62.39 seconds =       1.04 minutes
	system time =       0.44 seconds =       0.01 minutes
	total time  =         63 seconds =       1.05 minutes
Grab this energy -153.18843218589222
    Psi4 stopped on: Tuesday, 15 March 2022 10:31AM
    Psi4 wall time for execution: 0:01:02.87

*** Psi4 exiting successfully. Buy a developer a beer!
