                               Psi4 1.4a2.dev629

  ==> Input File <==

--------------------------------------------------------------------------
import os
memory 14 GB

molecule {
 C   -0.2523734209    0.7971561096    0.0000000000
 O   -2.1865603891   -0.3271607476   -0.0000000000
 C    2.4075993205   -0.2460931494   -0.0000000000
 H    2.3836863570   -2.3110854811   -0.0000000000
 H    3.3861430573    0.4707744581   -1.6634684512
 H    3.3861430573    0.4707744581    1.6634684512
units bohr
0 2
}

basis {

assign 6-31g_2dfp_

[ 6-31g_2dfp_ ]

spherical

!----------------------------------------------------------------------
! Basis Set Exchange
! Version v0.8.13
! https://www.basissetexchange.org
!----------------------------------------------------------------------
!   Basis set: 6-31G(2df,p)
! Description: 6-31G(2df,p)
!        Role: orbital
!     Version: 0  (Data from the original Basis Set Exchange)
!----------------------------------------------------------------------

****
H     0
S    3   1.00
     18.7311370              0.03349460
      2.8253937              0.23472695
      0.6401217              0.81375733
S    1   1.00
      0.1612778              1.00000000
P    1   1.00
      1.5000000              1.0000000
P    1   1.00
      0.3750000              1.0000000
****
B     0
S    6   1.00
   2068.8823000              0.0018663
    310.6495700              0.0142515
     70.6830330              0.0695516
     19.8610800              0.2325729
      6.2993048              0.4670787
      2.1270270              0.3634314
SP   3   1.00
      4.7279710             -0.1303938              0.0745976
      1.1903377             -0.1307889              0.3078467
      0.3594117              1.1309444              0.7434568
SP   1   1.00
      0.1267512              1.0000000              1.0000000
D    1   1.00
      0.8020000              1.0000000
D    1   1.00
      0.2005000              1.0000000
F    1   1.00
      0.5000000              1.0000000
****
C     0
S    6   1.00
   3047.5249000              0.0018347
    457.3695100              0.0140373
    103.9486900              0.0688426
     29.2101550              0.2321844
      9.2866630              0.4679413
      3.1639270              0.3623120
SP   3   1.00
      7.8682724             -0.1193324              0.0689991
      1.8812885             -0.1608542              0.3164240
      0.5442493              1.1434564              0.7443083
SP   1   1.00
      0.1687144              1.0000000              1.0000000
D    1   1.00
      1.2520000              1.0000000
D    1   1.00
      0.3130000              1.0000000
F    1   1.00
      0.8000000              1.0000000
****
N     0
S    6   1.00
   4173.5110000              0.0018348
    627.4579000              0.0139950
    142.9021000              0.0685870
     40.2343300              0.2322410
     12.8202100              0.4690700
      4.3904370              0.3604550
SP   3   1.00
     11.6263580             -0.1149610              0.0675800
      2.7162800             -0.1691180              0.3239070
      0.7722180              1.1458520              0.7408950
SP   1   1.00
      0.2120313              1.0000000              1.0000000
D    1   1.00
      1.8260000              1.0000000
D    1   1.00
      0.4565000              1.0000000
F    1   1.00
      1.0000000              1.0000000
****
O     0
S    6   1.00
   5484.6717000              0.0018311
    825.2349500              0.0139501
    188.0469600              0.0684451
     52.9645000              0.2327143
     16.8975700              0.4701930
      5.7996353              0.3585209
SP   3   1.00
     15.5396160             -0.1107775              0.0708743
      3.5999336             -0.1480263              0.3397528
      1.0137618              1.1307670              0.7271586
SP   1   1.00
      0.2700058              1.0000000              1.0000000
D    1   1.00
      2.5840000              1.0000000
D    1   1.00
      0.6460000              1.0000000
F    1   1.00
      1.4000000              1.0000000
****
F     0
S    6   1.00
   7001.7130900              0.0018196169
   1051.3660900              0.0139160796
    239.2856900              0.0684053245
     67.3974453              0.233185760
     21.5199573              0.471267439
      7.40310130             0.356618546
SP   3   1.00
     20.8479528             -0.108506975            0.0716287243
      4.80830834            -0.146451658            0.3459121030
      1.34406986             1.128688580            0.7224699570
SP   1   1.00
      0.358151393            1.0000000              1.0000000
D    1   1.00
      3.5000000              1.0000000
D    1   1.00
      0.8750000              1.0000000
F    1   1.00
      1.8500000              1.0000000
****
Al     0
S    6   1.00
  13983.1000000              0.00194267
   2098.7500000              0.0148599
    477.7050000              0.0728494
    134.3600000              0.2468300
     42.8709000              0.4872580
     14.5189000              0.3234960
SP   6   1.00
    239.6680000             -0.00292619             0.00460285
     57.4419000             -0.0374080              0.0331990
     18.2859000             -0.1144870              0.1362820
      6.5991400              0.1156350              0.3304760
      2.4904900              0.6125950              0.4491460
      0.9445400              0.3937990              0.2657040
SP   3   1.00
      1.2779000             -0.2276060             -0.0175130
      0.3975900              0.00144583             0.2445330
      0.1600950              1.0927900              0.8049340
SP   1   1.00
      0.0556577              1.0000000              1.0000000
D    1   1.00
      0.6500000              1.0000000
D    1   1.00
      0.1625000              1.0000000
F    1   1.00
      0.2500000              1.0000000
****
Si     0
S    6   1.00
  16115.9000000              0.00195948
   2425.5800000              0.01492880
    553.8670000              0.07284780
    156.3400000              0.24613000
     50.0683000              0.48591400
     17.0178000              0.32500200
SP   6   1.00
    292.7180000             -0.00278094             0.00443826
     69.8731000             -0.03571460             0.03266790
     22.3363000             -0.11498500             0.13472100
      8.1503900              0.09356340             0.32867800
      3.1345800              0.60301700             0.44964000
      1.2254300              0.41895900             0.26137200
SP   3   1.00
      1.7273800             -0.24463000            -0.01779510
      0.5729220              0.00431572             0.25353900
      0.2221920              1.09818000             0.80066900
SP   1   1.00
      0.0778369              1.00000000             1.00000000
D    1   1.00
      0.9000000              1.0000000
D    1   1.00
      0.2250000              1.0000000
F    1   1.00
      0.3200000              1.0000000
****
P     0
S    6   1.00
  19413.3000000              0.0018516
   2909.4200000              0.0142062
    661.3640000              0.0699995
    185.7590000              0.2400790
     59.1943000              0.4847620
     20.0310000              0.3352000
SP   6   1.00
    339.4780000             -0.00278217             0.00456462
     81.0101000             -0.0360499              0.03369360
     25.8780000             -0.1166310              0.13975500
      9.4522100              0.0968328              0.33936200
      3.6656600              0.6144180              0.45092100
      1.4674600              0.4037980              0.23858600
SP   3   1.00
      2.1562300             -0.2529230             -0.01776530
      0.7489970              0.0328517              0.27405800
      0.2831450              1.0812500              0.78542100
SP   1   1.00
      0.0998317              1.0000000              1.00000000
D    1   1.00
      1.1000000              1.0000000
D    1   1.00
      0.2750000              1.0000000
F    1   1.00
      0.4500000              1.0000000
****
S     0
S    6   1.00
  21917.1000000              0.0018690
   3301.4900000              0.0142300
    754.1460000              0.0696960
    212.7110000              0.2384870
     67.9896000              0.4833070
     23.0515000              0.3380740
SP   6   1.00
    423.7350000             -0.0023767              0.0040610
    100.7100000             -0.0316930              0.0306810
     32.1599000             -0.1133170              0.1304520
     11.8079000              0.0560900              0.3272050
      4.6311000              0.5922550              0.4528510
      1.8702500              0.4550060              0.2560420
SP   3   1.00
      2.6158400             -0.2503740             -0.0145110
      0.9221670              0.0669570              0.3102630
      0.3412870              1.0545100              0.7544830
SP   1   1.00
      0.1171670              1.0000000              1.0000000
D    1   1.00
      1.3000000              1.0000000
D    1   1.00
      0.3250000              1.0000000
F    1   1.00
      0.5500000              1.0000000
****
Cl     0
S    6   1.00
  25180.1000000              0.0018330
   3780.3500000              0.0140340
    860.4740000              0.0690970
    242.1450000              0.2374520
     77.3349000              0.4830340
     26.2470000              0.3398560
SP   6   1.00
    491.7650000             -0.0022974              0.0039894
    116.9840000             -0.0307140              0.0303180
     37.4153000             -0.1125280              0.1298800
     13.7834000              0.0450160              0.3279510
      5.4521500              0.5893530              0.4535270
      2.2258800              0.4652060              0.2521540
SP   3   1.00
      3.1864900             -0.2518300             -0.0142990
      1.1442700              0.0615890              0.3235720
      0.4203770              1.0601800              0.7435070
SP   1   1.00
      0.1426570              1.0000000              1.0000000
D    1   1.00
      1.5000000              1.0000000
D    1   1.00
      0.3750000              1.0000000
F    1   1.00
      0.7000000              1.0000000
****
}

set {
reference uhf
freeze_core true
e_convergence 10
d_convergence 10
dft_spherical_points 1202
dft_radial_points 99
}

e = energy('b3lyp')

print_out('Grab this energy {0}'.format(e))
--------------------------------------------------------------------------

    Molecular point group: cs

    Geometry (in Bohr), charge = 0, multiplicity = 2:

       Center              X                  Y                   Z               Mass
    ------------   -----------------  -----------------  -----------------  -----------------
         C           -0.255081153873     0.797165545913     0.000000000000    12.000000000000
         O           -2.189268122073    -0.327151311287     0.000000000000    15.994914619570
         C            2.404891587527    -0.246083713087     0.000000000000    12.000000000000
         H            2.380978624027    -2.311076044787     0.000000000000     1.007825032230
         H            3.383435324327     0.470783894413    -1.663468451200     1.007825032230
         H            3.383435324327     0.470783894413     1.663468451200     1.007825032230

  Charge       = 0
  Multiplicity = 2
  Basis Set: ANONYMOUS9181CA9B
    Blend: 6-31G_2DFP_
  Basis Set: (ANONYMOUS9181CA9B AUX)
    Blend: DEF2-UNIVERSAL-JKFIT

    Orbital Energies [Eh]
    ---------------------

    Alpha Occupied:

       1Ap   -19.186446     2Ap   -10.270497     3Ap   -10.209992
       4Ap    -1.082476     5Ap    -0.763012     6Ap    -0.543645
       7Ap    -0.467273     8Ap    -0.457899     1App   -0.457083
       2App   -0.387788     9Ap    -0.386261    10Ap    -0.190681

    Alpha Virtual:

       3App   -0.017812    11Ap     0.091719    12Ap     0.136753
       4App    0.141374    13Ap     0.219777    14Ap     0.268606
      15Ap     0.428181     5App    0.431218    16Ap     0.444706
       6App    0.494011    17Ap     0.506092    18Ap     0.530324
       7App    0.563059    19Ap     0.577657    20Ap     0.611328
       8App    0.616759    21Ap     0.644866    22Ap     0.717989
       9App    0.765762    23Ap     0.785904    10App    0.832071
      11App    0.917366    24Ap     0.926804    25Ap     0.935538
      12App    1.025923    26Ap     1.087218    27Ap     1.107422
      13App    1.153612    28Ap     1.224799    29Ap     1.308142
      14App    1.316868    30Ap     1.328279    31Ap     1.403246
      15App    1.409454    32Ap     1.470321    33Ap     1.560538
      34Ap     1.634150    16App    1.655335    35Ap     1.721258
      17App    1.814525    36Ap     1.836798    37Ap     1.902090
      18App    2.068496    38Ap     2.171567    39Ap     2.499369
      19App    2.681763    40Ap     2.746367    41Ap     2.784875
      20App    2.842344    21App    2.893980    42Ap     2.976601
      43Ap     3.029485    22App    3.058786    23App    3.102804
      44Ap     3.118604    45Ap     3.180275    24App    3.314290
      46Ap     3.369935    25App    3.392241    26App    3.443524
      27App    3.467073    47Ap     3.486003    48Ap     3.569815
      49Ap     3.745359    50Ap     3.769672    51Ap     3.945024
      28App    3.989402    52Ap     4.063448    53Ap     4.113944
      29App    4.119188    54Ap     4.189858    30App    4.390741
      55Ap     4.440758    31App    4.451528    56Ap     4.537381
      57Ap     4.920628    58Ap     5.037555    32App    5.042932
      33App    5.199913    59Ap     5.207518    60Ap     5.478939
      34App    5.488817    61Ap     5.827508    35App    5.936451
      62Ap     6.111456    63Ap     6.771575    36App    6.773807
      37App    7.072193    64Ap     7.135528    65Ap     7.532697

    Beta Occupied:

       1Ap   -19.178393     2Ap   -10.260424     3Ap   -10.206656
       4Ap    -1.066592     5Ap    -0.751221     6Ap    -0.524054
       1App   -0.452514     7Ap    -0.447268     8Ap    -0.439618
       2App   -0.382647     9Ap    -0.348236

    Beta Virtual:

      10Ap    -0.051105     3App   -0.001563    11Ap     0.094433
      12Ap     0.142553     4App    0.144504    13Ap     0.229940
      14Ap     0.274225     5App    0.433204    15Ap     0.434959
      16Ap     0.467192     6App    0.500741    17Ap     0.527363
      18Ap     0.539343     7App    0.569328    19Ap     0.581874
       8App    0.624030    20Ap     0.629504    21Ap     0.650987
      22Ap     0.740281     9App    0.776872    23Ap     0.795808
      10App    0.832883    11App    0.922228    24Ap     0.942972
      25Ap     0.950983    12App    1.030160    26Ap     1.093424
      27Ap     1.109419    13App    1.159772    28Ap     1.234043
      29Ap     1.313744    14App    1.319667    30Ap     1.335039
      31Ap     1.413586    15App    1.414945    32Ap     1.482648
      33Ap     1.571491    34Ap     1.647583    16App    1.669721
      35Ap     1.727612    17App    1.817721    36Ap     1.850982
      37Ap     1.908836    18App    2.075219    38Ap     2.193019
      39Ap     2.512042    19App    2.696060    40Ap     2.760864
      41Ap     2.805914    20App    2.857717    21App    2.895649
      42Ap     2.986102    43Ap     3.046452    22App    3.067466
      23App    3.121517    44Ap     3.126918    45Ap     3.214933
      24App    3.357801    46Ap     3.381193    25App    3.398476
      26App    3.451411    27App    3.482951    47Ap     3.509475
      48Ap     3.582908    49Ap     3.770901    50Ap     3.779233
      51Ap     3.953684    28App    3.998673    52Ap     4.079636
      29App    4.122045    53Ap     4.127970    54Ap     4.202021
      30App    4.392975    55Ap     4.446999    31App    4.455748
      56Ap     4.548370    57Ap     4.924533    58Ap     5.055014
      32App    5.060903    33App    5.202087    59Ap     5.213321
      60Ap     5.491529    34App    5.502705    61Ap     5.840773
      35App    5.942048    62Ap     6.134633    63Ap     6.800796
      36App    6.803376    37App    7.076492    64Ap     7.164863
      65Ap     7.544339

    Final Occupation by Irrep:
             Ap   App
    DOCC [     9,    2 ]
    SOCC [     1,    0 ]

  @DF-UKS Final Energy:  -153.18845417887354

   => Energetics <=

    Nuclear Repulsion Energy =             62.9183566938089314
    One-Electron Energy =                -331.8302187149664064
    Two-Electron Energy =                 132.3076882398738690
    DFT Exchange-Correlation Energy =     -16.5842803975899002
    Empirical Dispersion Energy =           0.0000000000000000
    VV10 Nonlocal Energy =                  0.0000000000000000
    Total Energy =                       -153.1884541788735419

  UHF NO Occupations:
  HONO-2 :    8 Ap 1.9997902
  HONO-1 :    9 Ap 1.9992054
  HONO-0 :   10 Ap 1.0000000
  LUNO+0 :   11 Ap 0.0007946
  LUNO+1 :   12 Ap 0.0002098
  LUNO+2 :    3App 0.0001795
  LUNO+3 :   13 Ap 0.0000612

Computation Completed

Properties will be evaluated at   0.000000,   0.000000,   0.000000 [a0]

Properties computed using the SCF density matrix

  Nuclear Dipole Moment: [e a0]
     X:     4.5326      Y:    -0.6802      Z:     0.0000

  Electronic Dipole Moment: [e a0]
     X:    -3.6015      Y:     0.6289      Z:     0.0000

  Dipole Moment: [e a0]
     X:     0.9310      Y:    -0.0514      Z:     0.0000     Total:     0.9324

  Dipole Moment: [D]
     X:     2.3664      Y:    -0.1306      Z:     0.0000     Total:     2.3700

*** tstop() called on n027 at Tue Mar 15 10:34:06 2022
Module time:
	user time   =      62.79 seconds =       1.05 minutes
	system time =       0.38 seconds =       0.01 minutes
	total time  =         63 seconds =       1.05 minutes
Total time:
	user time   =      62.79 seconds =       1.05 minutes
	system time =       0.38 seconds =       0.01 minutes
	total time  =         63 seconds =       1.05 minutes
Grab this energy -153.18845417887354
    Psi4 stopped on: Tuesday, 15 March 2022 10:34AM
    Psi4 wall time for execution: 0:01:03.22

*** Psi4 exiting successfully. Buy a developer a beer!
