                               Psi4 1.4a2.dev629

  ==> Input File <==

--------------------------------------------------------------------------
import os
memory 14 GB

molecule {
 C   -0.2555686381    0.8029625389    0.0000000000
 O   -2.1861885665   -0.3288145062   -0.0000000000
 C    2.4082651219   -0.2461933304   -0.0000000000
 H    2.3873627465   -2.3108907945   -0.0000000000
 H    3.3853836592    0.4686508700   -1.6639627955
 H    3.3853836592    0.4686508700    1.6639627955
units bohr
0 2
}

basis {

assign 6-31g_2dfp_

[ 6-31g_2dfp_ ]

spherical

!----------------------------------------------------------------------
! Basis Set Exchange
! Version v0.8.13
! https://www.basissetexchange.org
!----------------------------------------------------------------------
!   Basis set: 6-31G(2df,p)
! Description: 6-31G(2df,p)
!        Role: orbital
!     Version: 0  (Data from the original Basis Set Exchange)
!----------------------------------------------------------------------

****
H     0
S    3   1.00
     18.7311370              0.03349460
      2.8253937              0.23472695
      0.6401217              0.81375733
S    1   1.00
      0.1612778              1.00000000
P    1   1.00
      1.5000000              1.0000000
P    1   1.00
      0.3750000              1.0000000
****
B     0
S    6   1.00
   2068.8823000              0.0018663
    310.6495700              0.0142515
     70.6830330              0.0695516
     19.8610800              0.2325729
      6.2993048              0.4670787
      2.1270270              0.3634314
SP   3   1.00
      4.7279710             -0.1303938              0.0745976
      1.1903377             -0.1307889              0.3078467
      0.3594117              1.1309444              0.7434568
SP   1   1.00
      0.1267512              1.0000000              1.0000000
D    1   1.00
      0.8020000              1.0000000
D    1   1.00
      0.2005000              1.0000000
F    1   1.00
      0.5000000              1.0000000
****
C     0
S    6   1.00
   3047.5249000              0.0018347
    457.3695100              0.0140373
    103.9486900              0.0688426
     29.2101550              0.2321844
      9.2866630              0.4679413
      3.1639270              0.3623120
SP   3   1.00
      7.8682724             -0.1193324              0.0689991
      1.8812885             -0.1608542              0.3164240
      0.5442493              1.1434564              0.7443083
SP   1   1.00
      0.1687144              1.0000000              1.0000000
D    1   1.00
      1.2520000              1.0000000
D    1   1.00
      0.3130000              1.0000000
F    1   1.00
      0.8000000              1.0000000
****
N     0
S    6   1.00
   4173.5110000              0.0018348
    627.4579000              0.0139950
    142.9021000              0.0685870
     40.2343300              0.2322410
     12.8202100              0.4690700
      4.3904370              0.3604550
SP   3   1.00
     11.6263580             -0.1149610              0.0675800
      2.7162800             -0.1691180              0.3239070
      0.7722180              1.1458520              0.7408950
SP   1   1.00
      0.2120313              1.0000000              1.0000000
D    1   1.00
      1.8260000              1.0000000
D    1   1.00
      0.4565000              1.0000000
F    1   1.00
      1.0000000              1.0000000
****
O     0
S    6   1.00
   5484.6717000              0.0018311
    825.2349500              0.0139501
    188.0469600              0.0684451
     52.9645000              0.2327143
     16.8975700              0.4701930
      5.7996353              0.3585209
SP   3   1.00
     15.5396160             -0.1107775              0.0708743
      3.5999336             -0.1480263              0.3397528
      1.0137618              1.1307670              0.7271586
SP   1   1.00
      0.2700058              1.0000000              1.0000000
D    1   1.00
      2.5840000              1.0000000
D    1   1.00
      0.6460000              1.0000000
F    1   1.00
      1.4000000              1.0000000
****
F     0
S    6   1.00
   7001.7130900              0.0018196169
   1051.3660900              0.0139160796
    239.2856900              0.0684053245
     67.3974453              0.233185760
     21.5199573              0.471267439
      7.40310130             0.356618546
SP   3   1.00
     20.8479528             -0.108506975            0.0716287243
      4.80830834            -0.146451658            0.3459121030
      1.34406986             1.128688580            0.7224699570
SP   1   1.00
      0.358151393            1.0000000              1.0000000
D    1   1.00
      3.5000000              1.0000000
D    1   1.00
      0.8750000              1.0000000
F    1   1.00
      1.8500000              1.0000000
****
Al     0
S    6   1.00
  13983.1000000              0.00194267
   2098.7500000              0.0148599
    477.7050000              0.0728494
    134.3600000              0.2468300
     42.8709000              0.4872580
     14.5189000              0.3234960
SP   6   1.00
    239.6680000             -0.00292619             0.00460285
     57.4419000             -0.0374080              0.0331990
     18.2859000             -0.1144870              0.1362820
      6.5991400              0.1156350              0.3304760
      2.4904900              0.6125950              0.4491460
      0.9445400              0.3937990              0.2657040
SP   3   1.00
      1.2779000             -0.2276060             -0.0175130
      0.3975900              0.00144583             0.2445330
      0.1600950              1.0927900              0.8049340
SP   1   1.00
      0.0556577              1.0000000              1.0000000
D    1   1.00
      0.6500000              1.0000000
D    1   1.00
      0.1625000              1.0000000
F    1   1.00
      0.2500000              1.0000000
****
Si     0
S    6   1.00
  16115.9000000              0.00195948
   2425.5800000              0.01492880
    553.8670000              0.07284780
    156.3400000              0.24613000
     50.0683000              0.48591400
     17.0178000              0.32500200
SP   6   1.00
    292.7180000             -0.00278094             0.00443826
     69.8731000             -0.03571460             0.03266790
     22.3363000             -0.11498500             0.13472100
      8.1503900              0.09356340             0.32867800
      3.1345800              0.60301700             0.44964000
      1.2254300              0.41895900             0.26137200
SP   3   1.00
      1.7273800             -0.24463000            -0.01779510
      0.5729220              0.00431572             0.25353900
      0.2221920              1.09818000             0.80066900
SP   1   1.00
      0.0778369              1.00000000             1.00000000
D    1   1.00
      0.9000000              1.0000000
D    1   1.00
      0.2250000              1.0000000
F    1   1.00
      0.3200000              1.0000000
****
P     0
S    6   1.00
  19413.3000000              0.0018516
   2909.4200000              0.0142062
    661.3640000              0.0699995
    185.7590000              0.2400790
     59.1943000              0.4847620
     20.0310000              0.3352000
SP   6   1.00
    339.4780000             -0.00278217             0.00456462
     81.0101000             -0.0360499              0.03369360
     25.8780000             -0.1166310              0.13975500
      9.4522100              0.0968328              0.33936200
      3.6656600              0.6144180              0.45092100
      1.4674600              0.4037980              0.23858600
SP   3   1.00
      2.1562300             -0.2529230             -0.01776530
      0.7489970              0.0328517              0.27405800
      0.2831450              1.0812500              0.78542100
SP   1   1.00
      0.0998317              1.0000000              1.00000000
D    1   1.00
      1.1000000              1.0000000
D    1   1.00
      0.2750000              1.0000000
F    1   1.00
      0.4500000              1.0000000
****
S     0
S    6   1.00
  21917.1000000              0.0018690
   3301.4900000              0.0142300
    754.1460000              0.0696960
    212.7110000              0.2384870
     67.9896000              0.4833070
     23.0515000              0.3380740
SP   6   1.00
    423.7350000             -0.0023767              0.0040610
    100.7100000             -0.0316930              0.0306810
     32.1599000             -0.1133170              0.1304520
     11.8079000              0.0560900              0.3272050
      4.6311000              0.5922550              0.4528510
      1.8702500              0.4550060              0.2560420
SP   3   1.00
      2.6158400             -0.2503740             -0.0145110
      0.9221670              0.0669570              0.3102630
      0.3412870              1.0545100              0.7544830
SP   1   1.00
      0.1171670              1.0000000              1.0000000
D    1   1.00
      1.3000000              1.0000000
D    1   1.00
      0.3250000              1.0000000
F    1   1.00
      0.5500000              1.0000000
****
Cl     0
S    6   1.00
  25180.1000000              0.0018330
   3780.3500000              0.0140340
    860.4740000              0.0690970
    242.1450000              0.2374520
     77.3349000              0.4830340
     26.2470000              0.3398560
SP   6   1.00
    491.7650000             -0.0022974              0.0039894
    116.9840000             -0.0307140              0.0303180
     37.4153000             -0.1125280              0.1298800
     13.7834000              0.0450160              0.3279510
      5.4521500              0.5893530              0.4535270
      2.2258800              0.4652060              0.2521540
SP   3   1.00
      3.1864900             -0.2518300             -0.0142990
      1.1442700              0.0615890              0.3235720
      0.4203770              1.0601800              0.7435070
SP   1   1.00
      0.1426570              1.0000000              1.0000000
D    1   1.00
      1.5000000              1.0000000
D    1   1.00
      0.3750000              1.0000000
F    1   1.00
      0.7000000              1.0000000
****
}

set {
reference uhf
freeze_core true
e_convergence 10
d_convergence 10
dft_spherical_points 1202
dft_radial_points 99
}

e = energy('b3lyp')

print_out('Grab this energy {0}'.format(e))
--------------------------------------------------------------------------

    Molecular point group: cs

    Geometry (in Bohr), charge = 0, multiplicity = 2:

       Center              X                  Y                   Z               Mass
    ------------   -----------------  -----------------  -----------------  -----------------
         C           -0.257759586450     0.802090048861     0.000000000000    12.000000000000
         O           -2.188379514850    -0.329686996239     0.000000000000    15.994914619570
         C            2.406074173550    -0.247065820439     0.000000000000    12.000000000000
         H            2.385171798150    -2.311763284539     0.000000000000     1.007825032230
         H            3.383192710850     0.467778379961    -1.663962795500     1.007825032230
         H            3.383192710850     0.467778379961     1.663962795500     1.007825032230

  Charge       = 0
  Multiplicity = 2
  Basis Set: ANONYMOUS59AD5564
    Blend: 6-31G_2DFP_
  Basis Set: (ANONYMOUS59AD5564 AUX)
    Blend: DEF2-UNIVERSAL-JKFIT

    Orbital Energies [Eh]
    ---------------------

    Alpha Occupied:

       1Ap   -19.186705     2Ap   -10.270881     3Ap   -10.209937
       4Ap    -1.082512     5Ap    -0.762414     6Ap    -0.543774
       7Ap    -0.466869     8Ap    -0.457794     1App   -0.456984
       2App   -0.387988     9Ap    -0.386119    10Ap    -0.191435

    Alpha Virtual:

       3App   -0.017990    11Ap     0.091921    12Ap     0.136884
       4App    0.141552    13Ap     0.218879    14Ap     0.268576
      15Ap     0.428400     5App    0.431439    16Ap     0.444317
       6App    0.493849    17Ap     0.506169    18Ap     0.530319
       7App    0.563325    19Ap     0.577749    20Ap     0.610395
       8App    0.616246    21Ap     0.644696    22Ap     0.718048
       9App    0.766214    23Ap     0.785851    10App    0.832480
      11App    0.917184    24Ap     0.926632    25Ap     0.935575
      12App    1.025093    26Ap     1.087864    27Ap     1.107402
      13App    1.152904    28Ap     1.223649    29Ap     1.307227
      14App    1.317544    30Ap     1.327749    31Ap     1.403246
      15App    1.408784    32Ap     1.469215    33Ap     1.559958
      34Ap     1.632358    16App    1.654951    35Ap     1.721292
      17App    1.814853    36Ap     1.836007    37Ap     1.902485
      18App    2.067015    38Ap     2.168442    39Ap     2.499144
      19App    2.681245    40Ap     2.745241    41Ap     2.784503
      20App    2.842988    21App    2.894598    42Ap     2.974984
      43Ap     3.031282    22App    3.059123    23App    3.103492
      44Ap     3.116639    45Ap     3.181525    24App    3.314091
      46Ap     3.370287    25App    3.393694    26App    3.441693
      27App    3.465923    47Ap     3.486418    48Ap     3.570915
      49Ap     3.743643    50Ap     3.766055    51Ap     3.944146
      28App    3.986938    52Ap     4.060255    53Ap     4.111286
      29App    4.120928    54Ap     4.189230    30App    4.391679
      55Ap     4.437421    31App    4.450117    56Ap     4.536224
      57Ap     4.920506    58Ap     5.037481    32App    5.042621
      33App    5.200503    59Ap     5.208683    60Ap     5.477885
      34App    5.487085    61Ap     5.826428    35App    5.935040
      62Ap     6.108783    63Ap     6.771168    36App    6.773366
      37App    7.071262    64Ap     7.135404    65Ap     7.531955

    Beta Occupied:

       1Ap   -19.178636     2Ap   -10.260831     3Ap   -10.206567
       4Ap    -1.066608     5Ap    -0.750616     6Ap    -0.524122
       1App   -0.452418     7Ap    -0.446950     8Ap    -0.439289
       2App   -0.382826     9Ap    -0.348149

    Beta Virtual:

      10Ap    -0.051972     3App   -0.001717    11Ap     0.094637
      12Ap     0.142643     4App    0.144662    13Ap     0.229193
      14Ap     0.274206     5App    0.433416    15Ap     0.435546
      16Ap     0.466477     6App    0.500568    17Ap     0.527517
      18Ap     0.539237     7App    0.569701    19Ap     0.581942
       8App    0.623424    20Ap     0.628672    21Ap     0.650661
      22Ap     0.740196     9App    0.777300    23Ap     0.795763
      10App    0.833269    11App    0.922037    24Ap     0.943191
      25Ap     0.950711    12App    1.029326    26Ap     1.094032
      27Ap     1.109433    13App    1.159117    28Ap     1.232863
      29Ap     1.312847    14App    1.320385    30Ap     1.334521
      31Ap     1.413594    15App    1.414299    32Ap     1.481590
      33Ap     1.571041    34Ap     1.645706    16App    1.669363
      35Ap     1.727586    17App    1.817987    36Ap     1.850147
      37Ap     1.909235    18App    2.073741    38Ap     2.189873
      39Ap     2.511835    19App    2.695560    40Ap     2.759686
      41Ap     2.805559    20App    2.858210    21App    2.896270
      42Ap     2.984583    43Ap     3.048106    22App    3.067759
      23App    3.122171    44Ap     3.124963    45Ap     3.216099
      24App    3.357636    46Ap     3.381506    25App    3.399945
      26App    3.449914    27App    3.481595    47Ap     3.509976
      48Ap     3.583964    49Ap     3.769239    50Ap     3.775588
      51Ap     3.952832    28App    3.996248    52Ap     4.076605
      29App    4.123768    53Ap     4.125853    54Ap     4.200887
      30App    4.393921    55Ap     4.443644    31App    4.454320
      56Ap     4.547170    57Ap     4.924430    58Ap     5.054978
      32App    5.060643    33App    5.202680    59Ap     5.214430
      60Ap     5.490486    34App    5.500989    61Ap     5.839689
      35App    5.940636    62Ap     6.131986    63Ap     6.800470
      36App    6.803012    37App    7.075565    64Ap     7.164788
      65Ap     7.543614

    Final Occupation by Irrep:
             Ap   App
    DOCC [     9,    2 ]
    SOCC [     1,    0 ]

  @DF-UKS Final Energy:  -153.18845277728514

   => Energetics <=

    Nuclear Repulsion Energy =             62.8837442929338479
    One-Electron Energy =                -331.7618048622257447
    Two-Electron Energy =                 132.2730458709487777
    DFT Exchange-Correlation Energy =     -16.5834380789420237
    Empirical Dispersion Energy =           0.0000000000000000
    VV10 Nonlocal Energy =                  0.0000000000000000
    Total Energy =                       -153.1884527772851357

  UHF NO Occupations:
  HONO-2 :    8 Ap 1.9997861
  HONO-1 :    9 Ap 1.9992039
  HONO-0 :   10 Ap 1.0000000
  LUNO+0 :   11 Ap 0.0007961
  LUNO+1 :   12 Ap 0.0002139
  LUNO+2 :    3App 0.0001782
  LUNO+3 :   13 Ap 0.0000614

Computation Completed

Properties will be evaluated at   0.000000,   0.000000,   0.000000 [a0]

Properties computed using the SCF density matrix

  Nuclear Dipole Moment: [e a0]
     X:     4.5344      Y:    -0.6836      Z:     0.0000

  Electronic Dipole Moment: [e a0]
     X:    -3.6064      Y:     0.6323      Z:     0.0000

  Dipole Moment: [e a0]
     X:     0.9280      Y:    -0.0513      Z:     0.0000     Total:     0.9294

  Dipole Moment: [D]
     X:     2.3587      Y:    -0.1303      Z:     0.0000     Total:     2.3623

*** tstop() called on n022 at Tue Mar 15 10:36:51 2022
Module time:
	user time   =      62.42 seconds =       1.04 minutes
	system time =       0.40 seconds =       0.01 minutes
	total time  =         63 seconds =       1.05 minutes
Total time:
	user time   =      62.42 seconds =       1.04 minutes
	system time =       0.40 seconds =       0.01 minutes
	total time  =         63 seconds =       1.05 minutes
Grab this energy -153.18845277728514
    Psi4 stopped on: Tuesday, 15 March 2022 10:36AM
    Psi4 wall time for execution: 0:01:02.87

*** Psi4 exiting successfully. Buy a developer a beer!
