                               Psi4 1.4a2.dev629

  ==> Input File <==

--------------------------------------------------------------------------
import os
memory 14 GB

molecule {
 C   -0.2635203895    0.8090992105   -0.0000000006
 O   -2.1901992034   -0.3381888249    0.0000000103
 C    2.4111818438   -0.2387777222    0.0000000109
 H    2.3904490154   -2.3049749469    0.0000000289
 H    3.3893431666    0.4714883663   -1.6649746602
 H    3.3893435171    0.4714885372    1.6649744307
units bohr
0 2
}

basis {

assign 6-31g_2dfp_

[ 6-31g_2dfp_ ]

spherical

!----------------------------------------------------------------------
! Basis Set Exchange
! Version v0.8.13
! https://www.basissetexchange.org
!----------------------------------------------------------------------
!   Basis set: 6-31G(2df,p)
! Description: 6-31G(2df,p)
!        Role: orbital
!     Version: 0  (Data from the original Basis Set Exchange)
!----------------------------------------------------------------------

****
H     0
S    3   1.00
     18.7311370              0.03349460
      2.8253937              0.23472695
      0.6401217              0.81375733
S    1   1.00
      0.1612778              1.00000000
P    1   1.00
      1.5000000              1.0000000
P    1   1.00
      0.3750000              1.0000000
****
B     0
S    6   1.00
   2068.8823000              0.0018663
    310.6495700              0.0142515
     70.6830330              0.0695516
     19.8610800              0.2325729
      6.2993048              0.4670787
      2.1270270              0.3634314
SP   3   1.00
      4.7279710             -0.1303938              0.0745976
      1.1903377             -0.1307889              0.3078467
      0.3594117              1.1309444              0.7434568
SP   1   1.00
      0.1267512              1.0000000              1.0000000
D    1   1.00
      0.8020000              1.0000000
D    1   1.00
      0.2005000              1.0000000
F    1   1.00
      0.5000000              1.0000000
****
C     0
S    6   1.00
   3047.5249000              0.0018347
    457.3695100              0.0140373
    103.9486900              0.0688426
     29.2101550              0.2321844
      9.2866630              0.4679413
      3.1639270              0.3623120
SP   3   1.00
      7.8682724             -0.1193324              0.0689991
      1.8812885             -0.1608542              0.3164240
      0.5442493              1.1434564              0.7443083
SP   1   1.00
      0.1687144              1.0000000              1.0000000
D    1   1.00
      1.2520000              1.0000000
D    1   1.00
      0.3130000              1.0000000
F    1   1.00
      0.8000000              1.0000000
****
N     0
S    6   1.00
   4173.5110000              0.0018348
    627.4579000              0.0139950
    142.9021000              0.0685870
     40.2343300              0.2322410
     12.8202100              0.4690700
      4.3904370              0.3604550
SP   3   1.00
     11.6263580             -0.1149610              0.0675800
      2.7162800             -0.1691180              0.3239070
      0.7722180              1.1458520              0.7408950
SP   1   1.00
      0.2120313              1.0000000              1.0000000
D    1   1.00
      1.8260000              1.0000000
D    1   1.00
      0.4565000              1.0000000
F    1   1.00
      1.0000000              1.0000000
****
O     0
S    6   1.00
   5484.6717000              0.0018311
    825.2349500              0.0139501
    188.0469600              0.0684451
     52.9645000              0.2327143
     16.8975700              0.4701930
      5.7996353              0.3585209
SP   3   1.00
     15.5396160             -0.1107775              0.0708743
      3.5999336             -0.1480263              0.3397528
      1.0137618              1.1307670              0.7271586
SP   1   1.00
      0.2700058              1.0000000              1.0000000
D    1   1.00
      2.5840000              1.0000000
D    1   1.00
      0.6460000              1.0000000
F    1   1.00
      1.4000000              1.0000000
****
F     0
S    6   1.00
   7001.7130900              0.0018196169
   1051.3660900              0.0139160796
    239.2856900              0.0684053245
     67.3974453              0.233185760
     21.5199573              0.471267439
      7.40310130             0.356618546
SP   3   1.00
     20.8479528             -0.108506975            0.0716287243
      4.80830834            -0.146451658            0.3459121030
      1.34406986             1.128688580            0.7224699570
SP   1   1.00
      0.358151393            1.0000000              1.0000000
D    1   1.00
      3.5000000              1.0000000
D    1   1.00
      0.8750000              1.0000000
F    1   1.00
      1.8500000              1.0000000
****
Al     0
S    6   1.00
  13983.1000000              0.00194267
   2098.7500000              0.0148599
    477.7050000              0.0728494
    134.3600000              0.2468300
     42.8709000              0.4872580
     14.5189000              0.3234960
SP   6   1.00
    239.6680000             -0.00292619             0.00460285
     57.4419000             -0.0374080              0.0331990
     18.2859000             -0.1144870              0.1362820
      6.5991400              0.1156350              0.3304760
      2.4904900              0.6125950              0.4491460
      0.9445400              0.3937990              0.2657040
SP   3   1.00
      1.2779000             -0.2276060             -0.0175130
      0.3975900              0.00144583             0.2445330
      0.1600950              1.0927900              0.8049340
SP   1   1.00
      0.0556577              1.0000000              1.0000000
D    1   1.00
      0.6500000              1.0000000
D    1   1.00
      0.1625000              1.0000000
F    1   1.00
      0.2500000              1.0000000
****
Si     0
S    6   1.00
  16115.9000000              0.00195948
   2425.5800000              0.01492880
    553.8670000              0.07284780
    156.3400000              0.24613000
     50.0683000              0.48591400
     17.0178000              0.32500200
SP   6   1.00
    292.7180000             -0.00278094             0.00443826
     69.8731000             -0.03571460             0.03266790
     22.3363000             -0.11498500             0.13472100
      8.1503900              0.09356340             0.32867800
      3.1345800              0.60301700             0.44964000
      1.2254300              0.41895900             0.26137200
SP   3   1.00
      1.7273800             -0.24463000            -0.01779510
      0.5729220              0.00431572             0.25353900
      0.2221920              1.09818000             0.80066900
SP   1   1.00
      0.0778369              1.00000000             1.00000000
D    1   1.00
      0.9000000              1.0000000
D    1   1.00
      0.2250000              1.0000000
F    1   1.00
      0.3200000              1.0000000
****
P     0
S    6   1.00
  19413.3000000              0.0018516
   2909.4200000              0.0142062
    661.3640000              0.0699995
    185.7590000              0.2400790
     59.1943000              0.4847620
     20.0310000              0.3352000
SP   6   1.00
    339.4780000             -0.00278217             0.00456462
     81.0101000             -0.0360499              0.03369360
     25.8780000             -0.1166310              0.13975500
      9.4522100              0.0968328              0.33936200
      3.6656600              0.6144180              0.45092100
      1.4674600              0.4037980              0.23858600
SP   3   1.00
      2.1562300             -0.2529230             -0.01776530
      0.7489970              0.0328517              0.27405800
      0.2831450              1.0812500              0.78542100
SP   1   1.00
      0.0998317              1.0000000              1.00000000
D    1   1.00
      1.1000000              1.0000000
D    1   1.00
      0.2750000              1.0000000
F    1   1.00
      0.4500000              1.0000000
****
S     0
S    6   1.00
  21917.1000000              0.0018690
   3301.4900000              0.0142300
    754.1460000              0.0696960
    212.7110000              0.2384870
     67.9896000              0.4833070
     23.0515000              0.3380740
SP   6   1.00
    423.7350000             -0.0023767              0.0040610
    100.7100000             -0.0316930              0.0306810
     32.1599000             -0.1133170              0.1304520
     11.8079000              0.0560900              0.3272050
      4.6311000              0.5922550              0.4528510
      1.8702500              0.4550060              0.2560420
SP   3   1.00
      2.6158400             -0.2503740             -0.0145110
      0.9221670              0.0669570              0.3102630
      0.3412870              1.0545100              0.7544830
SP   1   1.00
      0.1171670              1.0000000              1.0000000
D    1   1.00
      1.3000000              1.0000000
D    1   1.00
      0.3250000              1.0000000
F    1   1.00
      0.5500000              1.0000000
****
Cl     0
S    6   1.00
  25180.1000000              0.0018330
   3780.3500000              0.0140340
    860.4740000              0.0690970
    242.1450000              0.2374520
     77.3349000              0.4830340
     26.2470000              0.3398560
SP   6   1.00
    491.7650000             -0.0022974              0.0039894
    116.9840000             -0.0307140              0.0303180
     37.4153000             -0.1125280              0.1298800
     13.7834000              0.0450160              0.3279510
      5.4521500              0.5893530              0.4535270
      2.2258800              0.4652060              0.2521540
SP   3   1.00
      3.1864900             -0.2518300             -0.0142990
      1.1442700              0.0615890              0.3235720
      0.4203770              1.0601800              0.7435070
SP   1   1.00
      0.1426570              1.0000000              1.0000000
D    1   1.00
      1.5000000              1.0000000
D    1   1.00
      0.3750000              1.0000000
F    1   1.00
      0.7000000              1.0000000
****
}

set {
reference uhf
freeze_core true
e_convergence 10
d_convergence 10
dft_spherical_points 1202
dft_radial_points 99
}

e = energy('b3lyp')

print_out('Grab this energy {0}'.format(e))
--------------------------------------------------------------------------

    Molecular point group: c1

    Geometry (in Bohr), charge = 0, multiplicity = 2:

       Center              X                  Y                   Z               Mass
    ------------   -----------------  -----------------  -----------------  -----------------
         C           -0.263073433552     0.807660273374    -0.000000002603    12.000000000000
         O           -2.189752247452    -0.339627762026     0.000000008297    15.994914619570
         C            2.411628799748    -0.240216659326     0.000000008897    12.000000000000
         H            2.390895971348    -2.306413884026     0.000000026897     1.007825032230
         H            3.389790122548     0.470049429174    -1.664974662203     1.007825032230
         H            3.389790473048     0.470049600074     1.664974428697     1.007825032230

  Charge       = 0
  Multiplicity = 2
  Basis Set: ANONYMOUSDBC3BC54
    Blend: 6-31G_2DFP_
  Basis Set: (ANONYMOUSDBC3BC54 AUX)
    Blend: DEF2-UNIVERSAL-JKFIT

    Orbital Energies [Eh]
    ---------------------

    Alpha Occupied:

       1A    -19.187130     2A    -10.271866     3A    -10.210332
       4A     -1.081499     5A     -0.761454     6A     -0.544061
       7A     -0.466144     8A     -0.457193     9A     -0.456480
      10A     -0.387902    11A     -0.385879    12A     -0.192572

    Alpha Virtual:

      13A     -0.018975    14A      0.091985    15A      0.136639
      16A      0.141720    17A      0.217175    18A      0.268244
      19A      0.428424    20A      0.431736    21A      0.443567
      22A      0.493377    23A      0.506286    24A      0.530031
      25A      0.563305    26A      0.577463    27A      0.607829
      28A      0.615677    29A      0.643846    30A      0.717813
      31A      0.766487    32A      0.785302    33A      0.832683
      34A      0.917009    35A      0.927028    36A      0.935678
      37A      1.022389    38A      1.085613    39A      1.107439
      40A      1.153236    41A      1.221956    42A      1.305381
      43A      1.318143    44A      1.326709    45A      1.402759
      46A      1.406491    47A      1.467169    48A      1.558731
      49A      1.629126    50A      1.653587    51A      1.720280
      52A      1.814388    53A      1.833791    54A      1.901087
      55A      2.064240    56A      2.164200    57A      2.495755
      58A      2.680221    59A      2.743283    60A      2.783549
      61A      2.842431    62A      2.895594    63A      2.972302
      64A      3.031959    65A      3.058130    66A      3.105177
      67A      3.113968    68A      3.183112    69A      3.314263
      70A      3.369610    71A      3.394402    72A      3.438548
      73A      3.465123    74A      3.486522    75A      3.571150
      76A      3.738408    77A      3.758673    78A      3.943104
      79A      3.979243    80A      4.053307    81A      4.106871
      82A      4.121729    83A      4.189220    84A      4.392910
      85A      4.430465    86A      4.445545    87A      4.531076
      88A      4.918662    89A      5.037014    90A      5.042029
      91A      5.199321    92A      5.207845    93A      5.473236
      94A      5.481513    95A      5.825650    96A      5.929680
      97A      6.102341    98A      6.770351    99A      6.772530
     100A      7.070275   101A      7.134879   102A      7.529549

    Beta Occupied:

       1A    -19.179057     2A    -10.261824     3A    -10.206927
       4A     -1.065569     5A     -0.749659     6A     -0.524320
       7A     -0.451950     8A     -0.446147     9A     -0.438755
      10A     -0.382706    11A     -0.347854

    Beta Virtual:

      12A     -0.053223    13A     -0.002681    14A      0.094711
      15A      0.142321    16A      0.144817    17A      0.227747
      18A      0.273924    19A      0.433718    20A      0.436005
      21A      0.465249    22A      0.500070    23A      0.527686
      24A      0.538902    25A      0.569809    26A      0.581630
      27A      0.622757    28A      0.626465    29A      0.649471
      30A      0.739710    31A      0.777612    32A      0.795275
      33A      0.833454    34A      0.921839    35A      0.943714
      36A      0.950746    37A      1.026572    38A      1.091691
      39A      1.109607    40A      1.159481    41A      1.231178
      42A      1.310907    43A      1.321038    44A      1.333521
      45A      1.411995    46A      1.413098    47A      1.479487
      48A      1.570163    49A      1.642269    50A      1.667972
      51A      1.726456    52A      1.817517    53A      1.847903
      54A      1.907750    55A      2.070940    56A      2.185589
      57A      2.508449    58A      2.694484    59A      2.757714
      60A      2.804624    61A      2.857678    62A      2.897274
      63A      2.981841    64A      3.048666    65A      3.066659
      66A      3.122442    67A      3.123864    68A      3.217753
      69A      3.357936    70A      3.380997    71A      3.400583
      72A      3.447235    73A      3.480532    74A      3.509788
      75A      3.584238    76A      3.763869    77A      3.768367
      78A      3.951853    79A      3.988576    80A      4.069793
      81A      4.122074    82A      4.124560    83A      4.200417
      84A      4.395124    85A      4.436677    86A      4.449766
      87A      4.541916    88A      4.922587    89A      5.054524
      90A      5.060062    91A      5.201496    92A      5.213501
      93A      5.485878    94A      5.495405    95A      5.838882
      96A      5.935265    97A      6.125552    98A      6.799674
      99A      6.802192   100A      7.074574   101A      7.164274
     102A      7.541219

    Final Occupation by Irrep:
              A
    DOCC [    11 ]
    SOCC [     1 ]

  @DF-UKS Final Energy:  -153.18841882302235

   => Energetics <=

    Nuclear Repulsion Energy =             62.7650965762014366
    One-Electron Energy =                -331.5299339702640964
    Two-Electron Energy =                 132.1563968074111415
    DFT Exchange-Correlation Energy =     -16.5799782363708026
    Empirical Dispersion Energy =           0.0000000000000000
    VV10 Nonlocal Energy =                  0.0000000000000000
    Total Energy =                       -153.1884188230223458

  UHF NO Occupations:
  HONO-2 :   10  A 1.9997808
  HONO-1 :   11  A 1.9992014
  HONO-0 :   12  A 1.0000000
  LUNO+0 :   13  A 0.0007986
  LUNO+1 :   14  A 0.0002192
  LUNO+2 :   15  A 0.0001790
  LUNO+3 :   16  A 0.0000617

Computation Completed

Properties will be evaluated at   0.000000,   0.000000,   0.000000 [a0]

Properties computed using the SCF density matrix

  Nuclear Dipole Moment: [e a0]
     X:     4.5438      Y:    -0.6787      Z:    -0.0000

  Electronic Dipole Moment: [e a0]
     X:    -3.6154      Y:     0.6304      Z:     0.0000

  Dipole Moment: [e a0]
     X:     0.9284      Y:    -0.0483      Z:    -0.0000     Total:     0.9296

  Dipole Moment: [D]
     X:     2.3597      Y:    -0.1226      Z:    -0.0000     Total:     2.3629

*** tstop() called on n045 at Thu Nov  4 14:51:06 2021
Module time:
	user time   =      62.49 seconds =       1.04 minutes
	system time =       0.39 seconds =       0.01 minutes
	total time  =         63 seconds =       1.05 minutes
Total time:
	user time   =      62.49 seconds =       1.04 minutes
	system time =       0.39 seconds =       0.01 minutes
	total time  =         63 seconds =       1.05 minutes
Grab this energy -153.18841882302235
    Psi4 stopped on: Thursday, 04 November 2021 02:51PM
    Psi4 wall time for execution: 0:01:02.92

*** Psi4 exiting successfully. Buy a developer a beer!
