                               Psi4 1.4a2.dev629

  ==> Input File <==

--------------------------------------------------------------------------
import os
memory 14 GB

molecule {
 C   -0.2577099113    0.8039340990    0.0000000000
 O   -2.1921877558   -0.3329008007    0.0000000000
 C    2.4101328587   -0.2488004225   -0.0000000000
 H    2.3836036148   -2.3023341653    0.0000000000
 H    3.3903995879    0.4672334687   -1.6595609959
 H    3.3903995879    0.4672334687    1.6595609959
units bohr
0 2
}

basis {

assign 6-31g_2dfp_

[ 6-31g_2dfp_ ]

spherical

!----------------------------------------------------------------------
! Basis Set Exchange
! Version v0.8.13
! https://www.basissetexchange.org
!----------------------------------------------------------------------
!   Basis set: 6-31G(2df,p)
! Description: 6-31G(2df,p)
!        Role: orbital
!     Version: 0  (Data from the original Basis Set Exchange)
!----------------------------------------------------------------------

****
H     0
S    3   1.00
     18.7311370              0.03349460
      2.8253937              0.23472695
      0.6401217              0.81375733
S    1   1.00
      0.1612778              1.00000000
P    1   1.00
      1.5000000              1.0000000
P    1   1.00
      0.3750000              1.0000000
****
B     0
S    6   1.00
   2068.8823000              0.0018663
    310.6495700              0.0142515
     70.6830330              0.0695516
     19.8610800              0.2325729
      6.2993048              0.4670787
      2.1270270              0.3634314
SP   3   1.00
      4.7279710             -0.1303938              0.0745976
      1.1903377             -0.1307889              0.3078467
      0.3594117              1.1309444              0.7434568
SP   1   1.00
      0.1267512              1.0000000              1.0000000
D    1   1.00
      0.8020000              1.0000000
D    1   1.00
      0.2005000              1.0000000
F    1   1.00
      0.5000000              1.0000000
****
C     0
S    6   1.00
   3047.5249000              0.0018347
    457.3695100              0.0140373
    103.9486900              0.0688426
     29.2101550              0.2321844
      9.2866630              0.4679413
      3.1639270              0.3623120
SP   3   1.00
      7.8682724             -0.1193324              0.0689991
      1.8812885             -0.1608542              0.3164240
      0.5442493              1.1434564              0.7443083
SP   1   1.00
      0.1687144              1.0000000              1.0000000
D    1   1.00
      1.2520000              1.0000000
D    1   1.00
      0.3130000              1.0000000
F    1   1.00
      0.8000000              1.0000000
****
N     0
S    6   1.00
   4173.5110000              0.0018348
    627.4579000              0.0139950
    142.9021000              0.0685870
     40.2343300              0.2322410
     12.8202100              0.4690700
      4.3904370              0.3604550
SP   3   1.00
     11.6263580             -0.1149610              0.0675800
      2.7162800             -0.1691180              0.3239070
      0.7722180              1.1458520              0.7408950
SP   1   1.00
      0.2120313              1.0000000              1.0000000
D    1   1.00
      1.8260000              1.0000000
D    1   1.00
      0.4565000              1.0000000
F    1   1.00
      1.0000000              1.0000000
****
O     0
S    6   1.00
   5484.6717000              0.0018311
    825.2349500              0.0139501
    188.0469600              0.0684451
     52.9645000              0.2327143
     16.8975700              0.4701930
      5.7996353              0.3585209
SP   3   1.00
     15.5396160             -0.1107775              0.0708743
      3.5999336             -0.1480263              0.3397528
      1.0137618              1.1307670              0.7271586
SP   1   1.00
      0.2700058              1.0000000              1.0000000
D    1   1.00
      2.5840000              1.0000000
D    1   1.00
      0.6460000              1.0000000
F    1   1.00
      1.4000000              1.0000000
****
F     0
S    6   1.00
   7001.7130900              0.0018196169
   1051.3660900              0.0139160796
    239.2856900              0.0684053245
     67.3974453              0.233185760
     21.5199573              0.471267439
      7.40310130             0.356618546
SP   3   1.00
     20.8479528             -0.108506975            0.0716287243
      4.80830834            -0.146451658            0.3459121030
      1.34406986             1.128688580            0.7224699570
SP   1   1.00
      0.358151393            1.0000000              1.0000000
D    1   1.00
      3.5000000              1.0000000
D    1   1.00
      0.8750000              1.0000000
F    1   1.00
      1.8500000              1.0000000
****
Al     0
S    6   1.00
  13983.1000000              0.00194267
   2098.7500000              0.0148599
    477.7050000              0.0728494
    134.3600000              0.2468300
     42.8709000              0.4872580
     14.5189000              0.3234960
SP   6   1.00
    239.6680000             -0.00292619             0.00460285
     57.4419000             -0.0374080              0.0331990
     18.2859000             -0.1144870              0.1362820
      6.5991400              0.1156350              0.3304760
      2.4904900              0.6125950              0.4491460
      0.9445400              0.3937990              0.2657040
SP   3   1.00
      1.2779000             -0.2276060             -0.0175130
      0.3975900              0.00144583             0.2445330
      0.1600950              1.0927900              0.8049340
SP   1   1.00
      0.0556577              1.0000000              1.0000000
D    1   1.00
      0.6500000              1.0000000
D    1   1.00
      0.1625000              1.0000000
F    1   1.00
      0.2500000              1.0000000
****
Si     0
S    6   1.00
  16115.9000000              0.00195948
   2425.5800000              0.01492880
    553.8670000              0.07284780
    156.3400000              0.24613000
     50.0683000              0.48591400
     17.0178000              0.32500200
SP   6   1.00
    292.7180000             -0.00278094             0.00443826
     69.8731000             -0.03571460             0.03266790
     22.3363000             -0.11498500             0.13472100
      8.1503900              0.09356340             0.32867800
      3.1345800              0.60301700             0.44964000
      1.2254300              0.41895900             0.26137200
SP   3   1.00
      1.7273800             -0.24463000            -0.01779510
      0.5729220              0.00431572             0.25353900
      0.2221920              1.09818000             0.80066900
SP   1   1.00
      0.0778369              1.00000000             1.00000000
D    1   1.00
      0.9000000              1.0000000
D    1   1.00
      0.2250000              1.0000000
F    1   1.00
      0.3200000              1.0000000
****
P     0
S    6   1.00
  19413.3000000              0.0018516
   2909.4200000              0.0142062
    661.3640000              0.0699995
    185.7590000              0.2400790
     59.1943000              0.4847620
     20.0310000              0.3352000
SP   6   1.00
    339.4780000             -0.00278217             0.00456462
     81.0101000             -0.0360499              0.03369360
     25.8780000             -0.1166310              0.13975500
      9.4522100              0.0968328              0.33936200
      3.6656600              0.6144180              0.45092100
      1.4674600              0.4037980              0.23858600
SP   3   1.00
      2.1562300             -0.2529230             -0.01776530
      0.7489970              0.0328517              0.27405800
      0.2831450              1.0812500              0.78542100
SP   1   1.00
      0.0998317              1.0000000              1.00000000
D    1   1.00
      1.1000000              1.0000000
D    1   1.00
      0.2750000              1.0000000
F    1   1.00
      0.4500000              1.0000000
****
S     0
S    6   1.00
  21917.1000000              0.0018690
   3301.4900000              0.0142300
    754.1460000              0.0696960
    212.7110000              0.2384870
     67.9896000              0.4833070
     23.0515000              0.3380740
SP   6   1.00
    423.7350000             -0.0023767              0.0040610
    100.7100000             -0.0316930              0.0306810
     32.1599000             -0.1133170              0.1304520
     11.8079000              0.0560900              0.3272050
      4.6311000              0.5922550              0.4528510
      1.8702500              0.4550060              0.2560420
SP   3   1.00
      2.6158400             -0.2503740             -0.0145110
      0.9221670              0.0669570              0.3102630
      0.3412870              1.0545100              0.7544830
SP   1   1.00
      0.1171670              1.0000000              1.0000000
D    1   1.00
      1.3000000              1.0000000
D    1   1.00
      0.3250000              1.0000000
F    1   1.00
      0.5500000              1.0000000
****
Cl     0
S    6   1.00
  25180.1000000              0.0018330
   3780.3500000              0.0140340
    860.4740000              0.0690970
    242.1450000              0.2374520
     77.3349000              0.4830340
     26.2470000              0.3398560
SP   6   1.00
    491.7650000             -0.0022974              0.0039894
    116.9840000             -0.0307140              0.0303180
     37.4153000             -0.1125280              0.1298800
     13.7834000              0.0450160              0.3279510
      5.4521500              0.5893530              0.4535270
      2.2258800              0.4652060              0.2521540
SP   3   1.00
      3.1864900             -0.2518300             -0.0142990
      1.1442700              0.0615890              0.3235720
      0.4203770              1.0601800              0.7435070
SP   1   1.00
      0.1426570              1.0000000              1.0000000
D    1   1.00
      1.5000000              1.0000000
D    1   1.00
      0.3750000              1.0000000
F    1   1.00
      0.7000000              1.0000000
****
}

set {
reference uhf
freeze_core true
e_convergence 10
d_convergence 10
dft_spherical_points 1202
dft_radial_points 99
}

e = energy('b3lyp')

print_out('Grab this energy {0}'.format(e))
--------------------------------------------------------------------------

    Molecular point group: cs

    Geometry (in Bohr), charge = 0, multiplicity = 2:

       Center              X                  Y                   Z               Mass
    ------------   -----------------  -----------------  -----------------  -----------------
         C           -0.257740919493     0.804903140364     0.000000000000    12.000000000000
         O           -2.192218763993    -0.331931759336     0.000000000000    15.994914619570
         C            2.410101850507    -0.247831381136     0.000000000000    12.000000000000
         H            2.383572606607    -2.301365123936     0.000000000000     1.007825032230
         H            3.390368579707     0.468202510064    -1.659560995900     1.007825032230
         H            3.390368579707     0.468202510064     1.659560995900     1.007825032230

  Charge       = 0
  Multiplicity = 2
  Basis Set: ANONYMOUS30BBF97D
    Blend: 6-31G_2DFP_
  Basis Set: (ANONYMOUS30BBF97D AUX)
    Blend: DEF2-UNIVERSAL-JKFIT

    Orbital Energies [Eh]
    ---------------------

    Alpha Occupied:

       1Ap   -19.186844     2Ap   -10.271634     3Ap   -10.209618
       4Ap    -1.080842     5Ap    -0.762584     6Ap    -0.544188
       7Ap    -0.466863     8Ap    -0.457698     1App   -0.456306
       2App   -0.387346     9Ap    -0.386362    10Ap    -0.192204

    Alpha Virtual:

       3App   -0.018950    11Ap     0.092174    12Ap     0.138141
       4App    0.141571    13Ap     0.217596    14Ap     0.268040
      15Ap     0.427924     5App    0.432008    16Ap     0.443720
       6App    0.493987    17Ap     0.506459    18Ap     0.531122
       7App    0.563386    19Ap     0.579201    20Ap     0.608367
       8App    0.616080    21Ap     0.644877    22Ap     0.717952
       9App    0.766429    23Ap     0.785288    10App    0.833720
      11App    0.917599    24Ap     0.927164    25Ap     0.936312
      12App    1.023710    26Ap     1.086022    27Ap     1.109003
      13App    1.153363    28Ap     1.221413    29Ap     1.306492
      14App    1.317354    30Ap     1.328365    31Ap     1.405389
      15App    1.409168    32Ap     1.469121    33Ap     1.560808
      34Ap     1.631455    16App    1.653848    35Ap     1.724026
      17App    1.814540    36Ap     1.835690    37Ap     1.904323
      18App    2.066089    38Ap     2.166440    39Ap     2.494634
      19App    2.680366    40Ap     2.744163    41Ap     2.786265
      20App    2.844138    21App    2.895294    42Ap     2.974220
      43Ap     3.031709    22App    3.057977    23App    3.105536
      44Ap     3.114836    45Ap     3.182047    24App    3.314412
      46Ap     3.367632    25App    3.390815    26App    3.440548
      27App    3.465197    47Ap     3.485063    48Ap     3.572623
      49Ap     3.738651    50Ap     3.763308    51Ap     3.945895
      28App    3.984919    52Ap     4.055733    53Ap     4.114472
      29App    4.124852    54Ap     4.192887    30App    4.390293
      55Ap     4.436514    31App    4.455936    56Ap     4.537822
      57Ap     4.922223    58Ap     5.037316    32App    5.042260
      33App    5.205346    59Ap     5.217219    60Ap     5.472775
      34App    5.482168    61Ap     5.827022    35App    5.929536
      62Ap     6.103623    63Ap     6.770643    36App    6.772755
      37App    7.071271    64Ap     7.135161    65Ap     7.529466

    Beta Occupied:

       1Ap   -19.178771     2Ap   -10.261567     3Ap   -10.206244
       4Ap    -1.064895     5Ap    -0.750837     6Ap    -0.524402
       1App   -0.451776     7Ap    -0.447856     8Ap    -0.438808
       2App   -0.382155     9Ap    -0.347862

    Beta Virtual:

      10Ap    -0.052653     3App   -0.002656    11Ap     0.094850
      12Ap     0.143783     4App    0.144666    13Ap     0.228018
      14Ap     0.273740     5App    0.433986    15Ap     0.435155
      16Ap     0.465687     6App    0.500688    17Ap     0.527905
      18Ap     0.540098     7App    0.569775    19Ap     0.583420
       8App    0.623253    20Ap     0.627044    21Ap     0.650486
      22Ap     0.739839     9App    0.777580    23Ap     0.795308
      10App    0.834487    11App    0.922437    24Ap     0.943817
      25Ap     0.951322    12App    1.027902    26Ap     1.092109
      27Ap     1.111055    13App    1.159565    28Ap     1.230705
      29Ap     1.312235    14App    1.320123    30Ap     1.335106
      15App    1.414730    31Ap     1.415792    32Ap     1.481453
      33Ap     1.571821    34Ap     1.644869    16App    1.668219
      35Ap     1.730383    17App    1.817690    36Ap     1.849622
      37Ap     1.910939    18App    2.072831    38Ap     2.187867
      39Ap     2.507320    19App    2.694662    40Ap     2.758649
      41Ap     2.807443    20App    2.859571    21App    2.896912
      42Ap     2.983650    43Ap     3.048349    22App    3.066497
      44Ap     3.123267    23App    3.124113    45Ap     3.216723
      24App    3.358099    46Ap     3.379119    25App    3.397107
      26App    3.448582    27App    3.481150    47Ap     3.508261
      48Ap     3.585850    49Ap     3.764492    50Ap     3.772829
      51Ap     3.954451    28App    3.994221    52Ap     4.072168
      29App    4.127627    53Ap     4.129453    54Ap     4.204207
      30App    4.392592    55Ap     4.442658    31App    4.460071
      56Ap     4.548658    57Ap     4.926088    58Ap     5.054883
      32App    5.060279    33App    5.207568    59Ap     5.222877
      60Ap     5.485429    34App    5.496012    61Ap     5.840276
      35App    5.935127    62Ap     6.126832    63Ap     6.799949
      36App    6.802403    37App    7.075577    64Ap     7.164564
      65Ap     7.541141

    Final Occupation by Irrep:
             Ap   App
    DOCC [     9,    2 ]
    SOCC [     1,    0 ]

  @DF-UKS Final Energy:  -153.18838015269350

   => Energetics <=

    Nuclear Repulsion Energy =             62.8053185267898613
    One-Electron Energy =                -331.6081203748338453
    Two-Electron Energy =                 132.1969955579854172
    DFT Exchange-Correlation Energy =     -16.5825738626349235
    Empirical Dispersion Energy =           0.0000000000000000
    VV10 Nonlocal Energy =                  0.0000000000000000
    Total Energy =                       -153.1883801526934974

  UHF NO Occupations:
  HONO-2 :    8 Ap 1.9997855
  HONO-1 :    9 Ap 1.9992008
  HONO-0 :   10 Ap 1.0000000
  LUNO+0 :   11 Ap 0.0007992
  LUNO+1 :   12 Ap 0.0002145
  LUNO+2 :    3App 0.0001802
  LUNO+3 :   13 Ap 0.0000617

Computation Completed

Properties will be evaluated at   0.000000,   0.000000,   0.000000 [a0]

Properties computed using the SCF density matrix

  Nuclear Dipole Moment: [e a0]
     X:     4.5407      Y:    -0.6780      Z:     0.0000

  Electronic Dipole Moment: [e a0]
     X:    -3.6072      Y:     0.6266      Z:     0.0000

  Dipole Moment: [e a0]
     X:     0.9336      Y:    -0.0514      Z:     0.0000     Total:     0.9350

  Dipole Moment: [D]
     X:     2.3729      Y:    -0.1307      Z:     0.0000     Total:     2.3765

*** tstop() called on n086 at Tue Mar 15 10:30:02 2022
Module time:
	user time   =      44.25 seconds =       0.74 minutes
	system time =       0.50 seconds =       0.01 minutes
	total time  =         44 seconds =       0.73 minutes
Total time:
	user time   =      44.25 seconds =       0.74 minutes
	system time =       0.50 seconds =       0.01 minutes
	total time  =         44 seconds =       0.73 minutes
Grab this energy -153.1883801526935
    Psi4 stopped on: Tuesday, 15 March 2022 10:30AM
    Psi4 wall time for execution: 0:00:44.79

*** Psi4 exiting successfully. Buy a developer a beer!
