                               Psi4 1.4a2.dev629

  ==> Input File <==

--------------------------------------------------------------------------
import os
memory 14 GB

molecule {
 C   -0.2527601073    0.8073451648   -0.0000000000
 O   -2.1742375694   -0.3360619453   -0.0000000000
 C    2.4052990931   -0.2445233193   -0.0000000000
 H    2.3776837365   -2.3084555764   -0.0000000000
 H    3.3843264147    0.4680306620   -1.6633893280
 H    3.3843264147    0.4680306620    1.6633893280
units bohr
0 2
}

basis {

assign 6-31g_2dfp_

[ 6-31g_2dfp_ ]

spherical

!----------------------------------------------------------------------
! Basis Set Exchange
! Version v0.8.13
! https://www.basissetexchange.org
!----------------------------------------------------------------------
!   Basis set: 6-31G(2df,p)
! Description: 6-31G(2df,p)
!        Role: orbital
!     Version: 0  (Data from the original Basis Set Exchange)
!----------------------------------------------------------------------

****
H     0
S    3   1.00
     18.7311370              0.03349460
      2.8253937              0.23472695
      0.6401217              0.81375733
S    1   1.00
      0.1612778              1.00000000
P    1   1.00
      1.5000000              1.0000000
P    1   1.00
      0.3750000              1.0000000
****
B     0
S    6   1.00
   2068.8823000              0.0018663
    310.6495700              0.0142515
     70.6830330              0.0695516
     19.8610800              0.2325729
      6.2993048              0.4670787
      2.1270270              0.3634314
SP   3   1.00
      4.7279710             -0.1303938              0.0745976
      1.1903377             -0.1307889              0.3078467
      0.3594117              1.1309444              0.7434568
SP   1   1.00
      0.1267512              1.0000000              1.0000000
D    1   1.00
      0.8020000              1.0000000
D    1   1.00
      0.2005000              1.0000000
F    1   1.00
      0.5000000              1.0000000
****
C     0
S    6   1.00
   3047.5249000              0.0018347
    457.3695100              0.0140373
    103.9486900              0.0688426
     29.2101550              0.2321844
      9.2866630              0.4679413
      3.1639270              0.3623120
SP   3   1.00
      7.8682724             -0.1193324              0.0689991
      1.8812885             -0.1608542              0.3164240
      0.5442493              1.1434564              0.7443083
SP   1   1.00
      0.1687144              1.0000000              1.0000000
D    1   1.00
      1.2520000              1.0000000
D    1   1.00
      0.3130000              1.0000000
F    1   1.00
      0.8000000              1.0000000
****
N     0
S    6   1.00
   4173.5110000              0.0018348
    627.4579000              0.0139950
    142.9021000              0.0685870
     40.2343300              0.2322410
     12.8202100              0.4690700
      4.3904370              0.3604550
SP   3   1.00
     11.6263580             -0.1149610              0.0675800
      2.7162800             -0.1691180              0.3239070
      0.7722180              1.1458520              0.7408950
SP   1   1.00
      0.2120313              1.0000000              1.0000000
D    1   1.00
      1.8260000              1.0000000
D    1   1.00
      0.4565000              1.0000000
F    1   1.00
      1.0000000              1.0000000
****
O     0
S    6   1.00
   5484.6717000              0.0018311
    825.2349500              0.0139501
    188.0469600              0.0684451
     52.9645000              0.2327143
     16.8975700              0.4701930
      5.7996353              0.3585209
SP   3   1.00
     15.5396160             -0.1107775              0.0708743
      3.5999336             -0.1480263              0.3397528
      1.0137618              1.1307670              0.7271586
SP   1   1.00
      0.2700058              1.0000000              1.0000000
D    1   1.00
      2.5840000              1.0000000
D    1   1.00
      0.6460000              1.0000000
F    1   1.00
      1.4000000              1.0000000
****
F     0
S    6   1.00
   7001.7130900              0.0018196169
   1051.3660900              0.0139160796
    239.2856900              0.0684053245
     67.3974453              0.233185760
     21.5199573              0.471267439
      7.40310130             0.356618546
SP   3   1.00
     20.8479528             -0.108506975            0.0716287243
      4.80830834            -0.146451658            0.3459121030
      1.34406986             1.128688580            0.7224699570
SP   1   1.00
      0.358151393            1.0000000              1.0000000
D    1   1.00
      3.5000000              1.0000000
D    1   1.00
      0.8750000              1.0000000
F    1   1.00
      1.8500000              1.0000000
****
Al     0
S    6   1.00
  13983.1000000              0.00194267
   2098.7500000              0.0148599
    477.7050000              0.0728494
    134.3600000              0.2468300
     42.8709000              0.4872580
     14.5189000              0.3234960
SP   6   1.00
    239.6680000             -0.00292619             0.00460285
     57.4419000             -0.0374080              0.0331990
     18.2859000             -0.1144870              0.1362820
      6.5991400              0.1156350              0.3304760
      2.4904900              0.6125950              0.4491460
      0.9445400              0.3937990              0.2657040
SP   3   1.00
      1.2779000             -0.2276060             -0.0175130
      0.3975900              0.00144583             0.2445330
      0.1600950              1.0927900              0.8049340
SP   1   1.00
      0.0556577              1.0000000              1.0000000
D    1   1.00
      0.6500000              1.0000000
D    1   1.00
      0.1625000              1.0000000
F    1   1.00
      0.2500000              1.0000000
****
Si     0
S    6   1.00
  16115.9000000              0.00195948
   2425.5800000              0.01492880
    553.8670000              0.07284780
    156.3400000              0.24613000
     50.0683000              0.48591400
     17.0178000              0.32500200
SP   6   1.00
    292.7180000             -0.00278094             0.00443826
     69.8731000             -0.03571460             0.03266790
     22.3363000             -0.11498500             0.13472100
      8.1503900              0.09356340             0.32867800
      3.1345800              0.60301700             0.44964000
      1.2254300              0.41895900             0.26137200
SP   3   1.00
      1.7273800             -0.24463000            -0.01779510
      0.5729220              0.00431572             0.25353900
      0.2221920              1.09818000             0.80066900
SP   1   1.00
      0.0778369              1.00000000             1.00000000
D    1   1.00
      0.9000000              1.0000000
D    1   1.00
      0.2250000              1.0000000
F    1   1.00
      0.3200000              1.0000000
****
P     0
S    6   1.00
  19413.3000000              0.0018516
   2909.4200000              0.0142062
    661.3640000              0.0699995
    185.7590000              0.2400790
     59.1943000              0.4847620
     20.0310000              0.3352000
SP   6   1.00
    339.4780000             -0.00278217             0.00456462
     81.0101000             -0.0360499              0.03369360
     25.8780000             -0.1166310              0.13975500
      9.4522100              0.0968328              0.33936200
      3.6656600              0.6144180              0.45092100
      1.4674600              0.4037980              0.23858600
SP   3   1.00
      2.1562300             -0.2529230             -0.01776530
      0.7489970              0.0328517              0.27405800
      0.2831450              1.0812500              0.78542100
SP   1   1.00
      0.0998317              1.0000000              1.00000000
D    1   1.00
      1.1000000              1.0000000
D    1   1.00
      0.2750000              1.0000000
F    1   1.00
      0.4500000              1.0000000
****
S     0
S    6   1.00
  21917.1000000              0.0018690
   3301.4900000              0.0142300
    754.1460000              0.0696960
    212.7110000              0.2384870
     67.9896000              0.4833070
     23.0515000              0.3380740
SP   6   1.00
    423.7350000             -0.0023767              0.0040610
    100.7100000             -0.0316930              0.0306810
     32.1599000             -0.1133170              0.1304520
     11.8079000              0.0560900              0.3272050
      4.6311000              0.5922550              0.4528510
      1.8702500              0.4550060              0.2560420
SP   3   1.00
      2.6158400             -0.2503740             -0.0145110
      0.9221670              0.0669570              0.3102630
      0.3412870              1.0545100              0.7544830
SP   1   1.00
      0.1171670              1.0000000              1.0000000
D    1   1.00
      1.3000000              1.0000000
D    1   1.00
      0.3250000              1.0000000
F    1   1.00
      0.5500000              1.0000000
****
Cl     0
S    6   1.00
  25180.1000000              0.0018330
   3780.3500000              0.0140340
    860.4740000              0.0690970
    242.1450000              0.2374520
     77.3349000              0.4830340
     26.2470000              0.3398560
SP   6   1.00
    491.7650000             -0.0022974              0.0039894
    116.9840000             -0.0307140              0.0303180
     37.4153000             -0.1125280              0.1298800
     13.7834000              0.0450160              0.3279510
      5.4521500              0.5893530              0.4535270
      2.2258800              0.4652060              0.2521540
SP   3   1.00
      3.1864900             -0.2518300             -0.0142990
      1.1442700              0.0615890              0.3235720
      0.4203770              1.0601800              0.7435070
SP   1   1.00
      0.1426570              1.0000000              1.0000000
D    1   1.00
      1.5000000              1.0000000
D    1   1.00
      0.3750000              1.0000000
F    1   1.00
      0.7000000              1.0000000
****
}

set {
reference uhf
freeze_core true
e_convergence 10
d_convergence 10
dft_spherical_points 1202
dft_radial_points 99
}

e = energy('b3lyp')

print_out('Grab this energy {0}'.format(e))
--------------------------------------------------------------------------

    Molecular point group: cs

    Geometry (in Bohr), charge = 0, multiplicity = 2:

       Center              X                  Y                   Z               Mass
    ------------   -----------------  -----------------  -----------------  -----------------
         C           -0.259074394992     0.807451009246     0.000000000000    12.000000000000
         O           -2.180551857092    -0.335956100854     0.000000000000    15.994914619570
         C            2.398984805408    -0.244417474854     0.000000000000    12.000000000000
         H            2.371369448808    -2.308349731954     0.000000000000     1.007825032230
         H            3.378012127008     0.468136506446    -1.663389328000     1.007825032230
         H            3.378012127008     0.468136506446     1.663389328000     1.007825032230

  Charge       = 0
  Multiplicity = 2
  Basis Set: ANONYMOUS0CF3D6AC
    Blend: 6-31G_2DFP_
  Basis Set: (ANONYMOUS0CF3D6AC AUX)
    Blend: DEF2-UNIVERSAL-JKFIT

    Orbital Energies [Eh]
    ---------------------

    Alpha Occupied:

       1Ap   -19.186616     2Ap   -10.270502     3Ap   -10.209492
       4Ap    -1.083210     5Ap    -0.762646     6Ap    -0.543746
       7Ap    -0.467416     8Ap    -0.457856     1App   -0.457250
       2App   -0.388049     9Ap    -0.385867    10Ap    -0.191880

    Alpha Virtual:

       3App   -0.017645    11Ap     0.092168    12Ap     0.137083
       4App    0.141631    13Ap     0.219902    14Ap     0.268963
      15Ap     0.428865     5App    0.431597    16Ap     0.444480
       6App    0.494020    17Ap     0.505955    18Ap     0.530578
       7App    0.562992    19Ap     0.578177    20Ap     0.610797
       8App    0.616468    21Ap     0.645055    22Ap     0.717791
       9App    0.767720    23Ap     0.786397    10App    0.832512
      11App    0.916941    24Ap     0.926842    25Ap     0.938031
      12App    1.025337    26Ap     1.087693    27Ap     1.108170
      13App    1.154176    28Ap     1.224107    29Ap     1.307623
      14App    1.317600    30Ap     1.328891    31Ap     1.404648
      15App    1.408501    32Ap     1.469259    33Ap     1.559689
      34Ap     1.631040    16App    1.655161    35Ap     1.720870
      17App    1.815224    36Ap     1.838867    37Ap     1.903931
      18App    2.066148    38Ap     2.165584    39Ap     2.501620
      19App    2.681113    40Ap     2.745864    41Ap     2.784501
      20App    2.843951    21App    2.894543    42Ap     2.973056
      43Ap     3.034877    22App    3.061333    23App    3.103815
      44Ap     3.118088    45Ap     3.183254    24App    3.314933
      46Ap     3.373547    25App    3.393399    26App    3.442250
      27App    3.467365    47Ap     3.488495    48Ap     3.571853
      49Ap     3.745072    50Ap     3.766008    51Ap     3.945474
      28App    3.989540    52Ap     4.063100    53Ap     4.114931
      29App    4.121368    54Ap     4.191869    30App    4.392690
      55Ap     4.441013    31App    4.451927    56Ap     4.536193
      57Ap     4.921160    58Ap     5.037683    32App    5.042796
      33App    5.201395    59Ap     5.209992    60Ap     5.480400
      34App    5.488969    61Ap     5.825526    35App    5.936729
      62Ap     6.109841    63Ap     6.771484    36App    6.773514
      37App    7.070704    64Ap     7.135801    65Ap     7.532830

    Beta Occupied:

       1Ap   -19.178520     2Ap   -10.260473     3Ap   -10.206111
       4Ap    -1.067282     5Ap    -0.750817     6Ap    -0.524142
       1App   -0.452660     7Ap    -0.447158     8Ap    -0.439531
       2App   -0.382890     9Ap    -0.347924

    Beta Virtual:

      10Ap    -0.052443     3App   -0.001366    11Ap     0.094894
      12Ap     0.142828     4App    0.144747    13Ap     0.230136
      14Ap     0.274587     5App    0.433550    15Ap     0.435721
      16Ap     0.467222     6App    0.500747    17Ap     0.527307
      18Ap     0.539219     7App    0.569424    19Ap     0.582327
       8App    0.623517    20Ap     0.629081    21Ap     0.650958
      22Ap     0.739841     9App    0.778820    23Ap     0.796279
      10App    0.833297    11App    0.921802    24Ap     0.946499
      25Ap     0.950169    12App    1.029584    26Ap     1.093955
      27Ap     1.110170    13App    1.160413    28Ap     1.233211
      29Ap     1.313316    14App    1.320437    30Ap     1.335678
      15App    1.414057    31Ap     1.415160    32Ap     1.481810
      33Ap     1.570817    34Ap     1.644223    16App    1.669685
      35Ap     1.727169    17App    1.818297    36Ap     1.852902
      37Ap     1.910762    18App    2.072898    38Ap     2.187084
      39Ap     2.514310    19App    2.695488    40Ap     2.760332
      41Ap     2.805388    20App    2.858836    21App    2.896204
      42Ap     2.982747    43Ap     3.051517    22App    3.069871
      23App    3.122639    44Ap     3.126414    45Ap     3.217706
      24App    3.358327    46Ap     3.384534    25App    3.399697
      26App    3.450071    27App    3.483567    47Ap     3.512281
      48Ap     3.584921    49Ap     3.769808    50Ap     3.776390
      51Ap     3.954287    28App    3.998857    52Ap     4.079519
      29App    4.124180    53Ap     4.128909    54Ap     4.204015
      30App    4.394927    55Ap     4.447293    31App    4.456141
      56Ap     4.547114    57Ap     4.925096    58Ap     5.055224
      32App    5.060914    33App    5.203584    59Ap     5.215765
      60Ap     5.492970    34App    5.502913    61Ap     5.838825
      35App    5.942325    62Ap     6.133128    63Ap     6.800917
      36App    6.803299    37App    7.075008    64Ap     7.165274
      65Ap     7.544505

    Final Occupation by Irrep:
             Ap   App
    DOCC [     9,    2 ]
    SOCC [     1,    0 ]

  @DF-UKS Final Energy:  -153.18843190542890

   => Energetics <=

    Nuclear Repulsion Energy =             62.9754064598549306
    One-Electron Energy =                -331.9422259504467547
    Two-Electron Energy =                 132.3636580209956719
    DFT Exchange-Correlation Energy =     -16.5852704358327365
    Empirical Dispersion Energy =           0.0000000000000000
    VV10 Nonlocal Energy =                  0.0000000000000000
    Total Energy =                       -153.1884319054288994

  UHF NO Occupations:
  HONO-2 :    8 Ap 1.9997864
  HONO-1 :    9 Ap 1.9992028
  HONO-0 :   10 Ap 1.0000000
  LUNO+0 :   11 Ap 0.0007972
  LUNO+1 :   12 Ap 0.0002136
  LUNO+2 :    3App 0.0001757
  LUNO+3 :   13 Ap 0.0000617

Computation Completed

Properties will be evaluated at   0.000000,   0.000000,   0.000000 [a0]

Properties computed using the SCF density matrix

  Nuclear Dipole Moment: [e a0]
     X:     4.5224      Y:    -0.6815      Z:     0.0000

  Electronic Dipole Moment: [e a0]
     X:    -3.5985      Y:     0.6321      Z:     0.0000

  Dipole Moment: [e a0]
     X:     0.9240      Y:    -0.0494      Z:     0.0000     Total:     0.9253

  Dipole Moment: [D]
     X:     2.3485      Y:    -0.1256      Z:     0.0000     Total:     2.3519

*** tstop() called on n041 at Tue Mar 15 10:37:06 2022
Module time:
	user time   =      62.57 seconds =       1.04 minutes
	system time =       0.41 seconds =       0.01 minutes
	total time  =         63 seconds =       1.05 minutes
Total time:
	user time   =      62.57 seconds =       1.04 minutes
	system time =       0.41 seconds =       0.01 minutes
	total time  =         63 seconds =       1.05 minutes
Grab this energy -153.1884319054289
    Psi4 stopped on: Tuesday, 15 March 2022 10:37AM
    Psi4 wall time for execution: 0:01:03.02

*** Psi4 exiting successfully. Buy a developer a beer!
