                               Psi4 1.4a2.dev629

  ==> Input File <==

--------------------------------------------------------------------------
import os
memory 14 GB

molecule {
 C   -0.2555666036    0.8029619590    0.0004721675
 O   -2.1861873740   -0.3288135033   -0.0001038741
 C    2.4082660871   -0.2461960797    0.0015421287
 H    2.3873623715   -2.3108916512    0.0043277044
 H    3.3874907481    0.4725222470   -1.6670805520
 H    3.3832727531    0.4647826759    1.6608424255
units bohr
0 2
}

basis {

assign 6-31g_2dfp_

[ 6-31g_2dfp_ ]

spherical

!----------------------------------------------------------------------
! Basis Set Exchange
! Version v0.8.13
! https://www.basissetexchange.org
!----------------------------------------------------------------------
!   Basis set: 6-31G(2df,p)
! Description: 6-31G(2df,p)
!        Role: orbital
!     Version: 0  (Data from the original Basis Set Exchange)
!----------------------------------------------------------------------

****
H     0
S    3   1.00
     18.7311370              0.03349460
      2.8253937              0.23472695
      0.6401217              0.81375733
S    1   1.00
      0.1612778              1.00000000
P    1   1.00
      1.5000000              1.0000000
P    1   1.00
      0.3750000              1.0000000
****
B     0
S    6   1.00
   2068.8823000              0.0018663
    310.6495700              0.0142515
     70.6830330              0.0695516
     19.8610800              0.2325729
      6.2993048              0.4670787
      2.1270270              0.3634314
SP   3   1.00
      4.7279710             -0.1303938              0.0745976
      1.1903377             -0.1307889              0.3078467
      0.3594117              1.1309444              0.7434568
SP   1   1.00
      0.1267512              1.0000000              1.0000000
D    1   1.00
      0.8020000              1.0000000
D    1   1.00
      0.2005000              1.0000000
F    1   1.00
      0.5000000              1.0000000
****
C     0
S    6   1.00
   3047.5249000              0.0018347
    457.3695100              0.0140373
    103.9486900              0.0688426
     29.2101550              0.2321844
      9.2866630              0.4679413
      3.1639270              0.3623120
SP   3   1.00
      7.8682724             -0.1193324              0.0689991
      1.8812885             -0.1608542              0.3164240
      0.5442493              1.1434564              0.7443083
SP   1   1.00
      0.1687144              1.0000000              1.0000000
D    1   1.00
      1.2520000              1.0000000
D    1   1.00
      0.3130000              1.0000000
F    1   1.00
      0.8000000              1.0000000
****
N     0
S    6   1.00
   4173.5110000              0.0018348
    627.4579000              0.0139950
    142.9021000              0.0685870
     40.2343300              0.2322410
     12.8202100              0.4690700
      4.3904370              0.3604550
SP   3   1.00
     11.6263580             -0.1149610              0.0675800
      2.7162800             -0.1691180              0.3239070
      0.7722180              1.1458520              0.7408950
SP   1   1.00
      0.2120313              1.0000000              1.0000000
D    1   1.00
      1.8260000              1.0000000
D    1   1.00
      0.4565000              1.0000000
F    1   1.00
      1.0000000              1.0000000
****
O     0
S    6   1.00
   5484.6717000              0.0018311
    825.2349500              0.0139501
    188.0469600              0.0684451
     52.9645000              0.2327143
     16.8975700              0.4701930
      5.7996353              0.3585209
SP   3   1.00
     15.5396160             -0.1107775              0.0708743
      3.5999336             -0.1480263              0.3397528
      1.0137618              1.1307670              0.7271586
SP   1   1.00
      0.2700058              1.0000000              1.0000000
D    1   1.00
      2.5840000              1.0000000
D    1   1.00
      0.6460000              1.0000000
F    1   1.00
      1.4000000              1.0000000
****
F     0
S    6   1.00
   7001.7130900              0.0018196169
   1051.3660900              0.0139160796
    239.2856900              0.0684053245
     67.3974453              0.233185760
     21.5199573              0.471267439
      7.40310130             0.356618546
SP   3   1.00
     20.8479528             -0.108506975            0.0716287243
      4.80830834            -0.146451658            0.3459121030
      1.34406986             1.128688580            0.7224699570
SP   1   1.00
      0.358151393            1.0000000              1.0000000
D    1   1.00
      3.5000000              1.0000000
D    1   1.00
      0.8750000              1.0000000
F    1   1.00
      1.8500000              1.0000000
****
Al     0
S    6   1.00
  13983.1000000              0.00194267
   2098.7500000              0.0148599
    477.7050000              0.0728494
    134.3600000              0.2468300
     42.8709000              0.4872580
     14.5189000              0.3234960
SP   6   1.00
    239.6680000             -0.00292619             0.00460285
     57.4419000             -0.0374080              0.0331990
     18.2859000             -0.1144870              0.1362820
      6.5991400              0.1156350              0.3304760
      2.4904900              0.6125950              0.4491460
      0.9445400              0.3937990              0.2657040
SP   3   1.00
      1.2779000             -0.2276060             -0.0175130
      0.3975900              0.00144583             0.2445330
      0.1600950              1.0927900              0.8049340
SP   1   1.00
      0.0556577              1.0000000              1.0000000
D    1   1.00
      0.6500000              1.0000000
D    1   1.00
      0.1625000              1.0000000
F    1   1.00
      0.2500000              1.0000000
****
Si     0
S    6   1.00
  16115.9000000              0.00195948
   2425.5800000              0.01492880
    553.8670000              0.07284780
    156.3400000              0.24613000
     50.0683000              0.48591400
     17.0178000              0.32500200
SP   6   1.00
    292.7180000             -0.00278094             0.00443826
     69.8731000             -0.03571460             0.03266790
     22.3363000             -0.11498500             0.13472100
      8.1503900              0.09356340             0.32867800
      3.1345800              0.60301700             0.44964000
      1.2254300              0.41895900             0.26137200
SP   3   1.00
      1.7273800             -0.24463000            -0.01779510
      0.5729220              0.00431572             0.25353900
      0.2221920              1.09818000             0.80066900
SP   1   1.00
      0.0778369              1.00000000             1.00000000
D    1   1.00
      0.9000000              1.0000000
D    1   1.00
      0.2250000              1.0000000
F    1   1.00
      0.3200000              1.0000000
****
P     0
S    6   1.00
  19413.3000000              0.0018516
   2909.4200000              0.0142062
    661.3640000              0.0699995
    185.7590000              0.2400790
     59.1943000              0.4847620
     20.0310000              0.3352000
SP   6   1.00
    339.4780000             -0.00278217             0.00456462
     81.0101000             -0.0360499              0.03369360
     25.8780000             -0.1166310              0.13975500
      9.4522100              0.0968328              0.33936200
      3.6656600              0.6144180              0.45092100
      1.4674600              0.4037980              0.23858600
SP   3   1.00
      2.1562300             -0.2529230             -0.01776530
      0.7489970              0.0328517              0.27405800
      0.2831450              1.0812500              0.78542100
SP   1   1.00
      0.0998317              1.0000000              1.00000000
D    1   1.00
      1.1000000              1.0000000
D    1   1.00
      0.2750000              1.0000000
F    1   1.00
      0.4500000              1.0000000
****
S     0
S    6   1.00
  21917.1000000              0.0018690
   3301.4900000              0.0142300
    754.1460000              0.0696960
    212.7110000              0.2384870
     67.9896000              0.4833070
     23.0515000              0.3380740
SP   6   1.00
    423.7350000             -0.0023767              0.0040610
    100.7100000             -0.0316930              0.0306810
     32.1599000             -0.1133170              0.1304520
     11.8079000              0.0560900              0.3272050
      4.6311000              0.5922550              0.4528510
      1.8702500              0.4550060              0.2560420
SP   3   1.00
      2.6158400             -0.2503740             -0.0145110
      0.9221670              0.0669570              0.3102630
      0.3412870              1.0545100              0.7544830
SP   1   1.00
      0.1171670              1.0000000              1.0000000
D    1   1.00
      1.3000000              1.0000000
D    1   1.00
      0.3250000              1.0000000
F    1   1.00
      0.5500000              1.0000000
****
Cl     0
S    6   1.00
  25180.1000000              0.0018330
   3780.3500000              0.0140340
    860.4740000              0.0690970
    242.1450000              0.2374520
     77.3349000              0.4830340
     26.2470000              0.3398560
SP   6   1.00
    491.7650000             -0.0022974              0.0039894
    116.9840000             -0.0307140              0.0303180
     37.4153000             -0.1125280              0.1298800
     13.7834000              0.0450160              0.3279510
      5.4521500              0.5893530              0.4535270
      2.2258800              0.4652060              0.2521540
SP   3   1.00
      3.1864900             -0.2518300             -0.0142990
      1.1442700              0.0615890              0.3235720
      0.4203770              1.0601800              0.7435070
SP   1   1.00
      0.1426570              1.0000000              1.0000000
D    1   1.00
      1.5000000              1.0000000
D    1   1.00
      0.3750000              1.0000000
F    1   1.00
      0.7000000              1.0000000
****
}

set {
reference uhf
freeze_core true
e_convergence 10
d_convergence 10
dft_spherical_points 1202
dft_radial_points 99
}

e = energy('b3lyp')

print_out('Grab this energy {0}'.format(e))
--------------------------------------------------------------------------

    Molecular point group: c1

    Geometry (in Bohr), charge = 0, multiplicity = 2:

       Center              X                  Y                   Z               Mass
    ------------   -----------------  -----------------  -----------------  -----------------
         C           -0.257758733894     0.802089970251    -0.000006342411    12.000000000000
         O           -2.188379504294    -0.329685492049    -0.000582384011    15.994914619570
         C            2.406073956806    -0.247068068449     0.001063618789    12.000000000000
         H            2.385170241206    -2.311763639949     0.003849194489     1.007825032230
         H            3.385298617806     0.471650258251    -1.667559061911     1.007825032230
         H            3.381080622806     0.463910687151     1.660363915589     1.007825032230

  Charge       = 0
  Multiplicity = 2
  Basis Set: ANONYMOUS63D5C8F3
    Blend: 6-31G_2DFP_
  Basis Set: (ANONYMOUS63D5C8F3 AUX)
    Blend: DEF2-UNIVERSAL-JKFIT

    Orbital Energies [Eh]
    ---------------------

    Alpha Occupied:

       1A    -19.186705     2A    -10.270881     3A    -10.209936
       4A     -1.082512     5A     -0.762417     6A     -0.543777
       7A     -0.466874     8A     -0.457833     9A     -0.456939
      10A     -0.387994    11A     -0.386111    12A     -0.191435

    Alpha Virtual:

      13A     -0.017991    14A      0.091912    15A      0.136868
      16A      0.141573    17A      0.218881    18A      0.268576
      19A      0.428379    20A      0.431461    21A      0.444314
      22A      0.493849    23A      0.506169    24A      0.530316
      25A      0.563301    26A      0.577769    27A      0.610395
      28A      0.616257    29A      0.644710    30A      0.718050
      31A      0.766212    32A      0.785851    33A      0.832481
      34A      0.917180    35A      0.926634    36A      0.935577
      37A      1.025090    38A      1.087865    39A      1.107374
      40A      1.152938    41A      1.223626    42A      1.307217
      43A      1.317563    44A      1.327744    45A      1.403218
      46A      1.408802    47A      1.469227    48A      1.559959
      49A      1.632354    50A      1.654953    51A      1.721245
      52A      1.814800    53A      1.836096    54A      1.902515
      55A      2.067027    56A      2.168444    57A      2.499143
      58A      2.681242    59A      2.745247    60A      2.784482
      61A      2.843007    62A      2.894614    63A      2.974997
      64A      3.031273    65A      3.059138    66A      3.103450
      67A      3.116686    68A      3.181533    69A      3.314088
      70A      3.370291    71A      3.393699    72A      3.441668
      73A      3.465878    74A      3.486479    75A      3.570948
      76A      3.743645    77A      3.766066    78A      3.944056
      79A      3.986935    80A      4.060252    81A      4.111220
      82A      4.121057    83A      4.189202    84A      4.391709
      85A      4.437378    86A      4.450147    87A      4.536306
      88A      4.920499    89A      5.037470    90A      5.042621
      91A      5.198312    92A      5.210960    93A      5.477881
      94A      5.487098    95A      5.826427    96A      5.935041
      97A      6.108783    98A      6.771168    99A      6.773366
     100A      7.071262   101A      7.135404   102A      7.531955

    Beta Occupied:

       1A    -19.178636     2A    -10.260831     3A    -10.206566
       4A     -1.066609     5A     -0.750619     6A     -0.524126
       7A     -0.452422     8A     -0.446950     9A     -0.439284
      10A     -0.382825    11A     -0.348148

    Beta Virtual:

      12A     -0.051972    13A     -0.001718    14A      0.094629
      15A      0.142615    16A      0.144694    17A      0.229195
      18A      0.274206    19A      0.433376    20A      0.435588
      21A      0.466470    22A      0.500570    23A      0.527515
      24A      0.539234    25A      0.569666    26A      0.581980
      27A      0.623431    28A      0.628675    29A      0.650672
      30A      0.740197    31A      0.777298    32A      0.795763
      33A      0.833270    34A      0.922035    35A      0.943193
      36A      0.950711    37A      1.029324    38A      1.094034
      39A      1.109407    40A      1.159149    41A      1.232836
      42A      1.312838    43A      1.320407    44A      1.334516
      45A      1.413440    46A      1.414444    47A      1.481600
      48A      1.571042    49A      1.645703    50A      1.669364
      51A      1.727533    52A      1.817983    53A      1.850195
      54A      1.909263    55A      2.073753    56A      2.189875
      57A      2.511834    58A      2.695557    59A      2.759691
      60A      2.805532    61A      2.858232    62A      2.896291
      63A      2.984597    64A      3.048092    65A      3.067778
      66A      3.121989    67A      3.125150    68A      3.216106
      69A      3.357626    70A      3.381515    71A      3.399951
      72A      3.449899    73A      3.481550    74A      3.510030
      75A      3.583994    76A      3.769240    77A      3.775598
      78A      3.952738    79A      3.996245    80A      4.076600
      81A      4.123637    82A      4.126045    83A      4.200867
      84A      4.393957    85A      4.443572    86A      4.454381
      87A      4.547243    88A      4.924421    89A      5.054965
      90A      5.060644    91A      5.201017    92A      5.216183
      93A      5.490483    94A      5.501000    95A      5.839688
      96A      5.940636    97A      6.131986    98A      6.800470
      99A      6.803012   100A      7.075565   101A      7.164788
     102A      7.543614

    Final Occupation by Irrep:
              A
    DOCC [    11 ]
    SOCC [     1 ]

  @DF-UKS Final Energy:  -153.18843886046471

   => Energetics <=

    Nuclear Repulsion Energy =             62.8838011451895014
    One-Electron Energy =                -331.7618791325056691
    Two-Electron Energy =                 132.2730819235354147
    DFT Exchange-Correlation Energy =     -16.5834427966839932
    Empirical Dispersion Energy =           0.0000000000000000
    VV10 Nonlocal Energy =                  0.0000000000000000
    Total Energy =                       -153.1884388604647143

  UHF NO Occupations:
  HONO-2 :   10  A 1.9997861
  HONO-1 :   11  A 1.9992039
  HONO-0 :   12  A 1.0000000
  LUNO+0 :   13  A 0.0007961
  LUNO+1 :   14  A 0.0002139
  LUNO+2 :   15  A 0.0001782
  LUNO+3 :   16  A 0.0000614

Computation Completed

Properties will be evaluated at   0.000000,   0.000000,   0.000000 [a0]

Properties computed using the SCF density matrix

  Nuclear Dipole Moment: [e a0]
     X:     4.5344      Y:    -0.6836      Z:    -0.0017

  Electronic Dipole Moment: [e a0]
     X:    -3.6064      Y:     0.6323      Z:     0.0026

  Dipole Moment: [e a0]
     X:     0.9280      Y:    -0.0513      Z:     0.0010     Total:     0.9294

  Dipole Moment: [D]
     X:     2.3586      Y:    -0.1303      Z:     0.0025     Total:     2.3622

*** tstop() called on n067 at Tue Mar 15 10:35:24 2022
Module time:
	user time   =      50.44 seconds =       0.84 minutes
	system time =       0.59 seconds =       0.01 minutes
	total time  =         51 seconds =       0.85 minutes
Total time:
	user time   =      50.44 seconds =       0.84 minutes
	system time =       0.59 seconds =       0.01 minutes
	total time  =         51 seconds =       0.85 minutes
Grab this energy -153.18843886046471
    Psi4 stopped on: Tuesday, 15 March 2022 10:35AM
    Psi4 wall time for execution: 0:00:51.08

*** Psi4 exiting successfully. Buy a developer a beer!
