                               Psi4 1.4a2.dev629

  ==> Input File <==

--------------------------------------------------------------------------
import os
memory 14 GB

molecule {
 C   -0.2540058665    0.8063799592    0.0041526195
 O   -2.1942676621   -0.3347891096   -0.0028308795
 C    2.4098992927   -0.2449530930    0.0012644156
 H    2.3829057609   -2.3094535371   -0.0004360703
 H    3.3900996541    0.4673974600   -1.6656070580
 H    3.3900068031    0.4697839683    1.6634569727
units bohr
0 2
}

basis {

assign 6-31g_2dfp_

[ 6-31g_2dfp_ ]

spherical

!----------------------------------------------------------------------
! Basis Set Exchange
! Version v0.8.13
! https://www.basissetexchange.org
!----------------------------------------------------------------------
!   Basis set: 6-31G(2df,p)
! Description: 6-31G(2df,p)
!        Role: orbital
!     Version: 0  (Data from the original Basis Set Exchange)
!----------------------------------------------------------------------

****
H     0
S    3   1.00
     18.7311370              0.03349460
      2.8253937              0.23472695
      0.6401217              0.81375733
S    1   1.00
      0.1612778              1.00000000
P    1   1.00
      1.5000000              1.0000000
P    1   1.00
      0.3750000              1.0000000
****
B     0
S    6   1.00
   2068.8823000              0.0018663
    310.6495700              0.0142515
     70.6830330              0.0695516
     19.8610800              0.2325729
      6.2993048              0.4670787
      2.1270270              0.3634314
SP   3   1.00
      4.7279710             -0.1303938              0.0745976
      1.1903377             -0.1307889              0.3078467
      0.3594117              1.1309444              0.7434568
SP   1   1.00
      0.1267512              1.0000000              1.0000000
D    1   1.00
      0.8020000              1.0000000
D    1   1.00
      0.2005000              1.0000000
F    1   1.00
      0.5000000              1.0000000
****
C     0
S    6   1.00
   3047.5249000              0.0018347
    457.3695100              0.0140373
    103.9486900              0.0688426
     29.2101550              0.2321844
      9.2866630              0.4679413
      3.1639270              0.3623120
SP   3   1.00
      7.8682724             -0.1193324              0.0689991
      1.8812885             -0.1608542              0.3164240
      0.5442493              1.1434564              0.7443083
SP   1   1.00
      0.1687144              1.0000000              1.0000000
D    1   1.00
      1.2520000              1.0000000
D    1   1.00
      0.3130000              1.0000000
F    1   1.00
      0.8000000              1.0000000
****
N     0
S    6   1.00
   4173.5110000              0.0018348
    627.4579000              0.0139950
    142.9021000              0.0685870
     40.2343300              0.2322410
     12.8202100              0.4690700
      4.3904370              0.3604550
SP   3   1.00
     11.6263580             -0.1149610              0.0675800
      2.7162800             -0.1691180              0.3239070
      0.7722180              1.1458520              0.7408950
SP   1   1.00
      0.2120313              1.0000000              1.0000000
D    1   1.00
      1.8260000              1.0000000
D    1   1.00
      0.4565000              1.0000000
F    1   1.00
      1.0000000              1.0000000
****
O     0
S    6   1.00
   5484.6717000              0.0018311
    825.2349500              0.0139501
    188.0469600              0.0684451
     52.9645000              0.2327143
     16.8975700              0.4701930
      5.7996353              0.3585209
SP   3   1.00
     15.5396160             -0.1107775              0.0708743
      3.5999336             -0.1480263              0.3397528
      1.0137618              1.1307670              0.7271586
SP   1   1.00
      0.2700058              1.0000000              1.0000000
D    1   1.00
      2.5840000              1.0000000
D    1   1.00
      0.6460000              1.0000000
F    1   1.00
      1.4000000              1.0000000
****
F     0
S    6   1.00
   7001.7130900              0.0018196169
   1051.3660900              0.0139160796
    239.2856900              0.0684053245
     67.3974453              0.233185760
     21.5199573              0.471267439
      7.40310130             0.356618546
SP   3   1.00
     20.8479528             -0.108506975            0.0716287243
      4.80830834            -0.146451658            0.3459121030
      1.34406986             1.128688580            0.7224699570
SP   1   1.00
      0.358151393            1.0000000              1.0000000
D    1   1.00
      3.5000000              1.0000000
D    1   1.00
      0.8750000              1.0000000
F    1   1.00
      1.8500000              1.0000000
****
Al     0
S    6   1.00
  13983.1000000              0.00194267
   2098.7500000              0.0148599
    477.7050000              0.0728494
    134.3600000              0.2468300
     42.8709000              0.4872580
     14.5189000              0.3234960
SP   6   1.00
    239.6680000             -0.00292619             0.00460285
     57.4419000             -0.0374080              0.0331990
     18.2859000             -0.1144870              0.1362820
      6.5991400              0.1156350              0.3304760
      2.4904900              0.6125950              0.4491460
      0.9445400              0.3937990              0.2657040
SP   3   1.00
      1.2779000             -0.2276060             -0.0175130
      0.3975900              0.00144583             0.2445330
      0.1600950              1.0927900              0.8049340
SP   1   1.00
      0.0556577              1.0000000              1.0000000
D    1   1.00
      0.6500000              1.0000000
D    1   1.00
      0.1625000              1.0000000
F    1   1.00
      0.2500000              1.0000000
****
Si     0
S    6   1.00
  16115.9000000              0.00195948
   2425.5800000              0.01492880
    553.8670000              0.07284780
    156.3400000              0.24613000
     50.0683000              0.48591400
     17.0178000              0.32500200
SP   6   1.00
    292.7180000             -0.00278094             0.00443826
     69.8731000             -0.03571460             0.03266790
     22.3363000             -0.11498500             0.13472100
      8.1503900              0.09356340             0.32867800
      3.1345800              0.60301700             0.44964000
      1.2254300              0.41895900             0.26137200
SP   3   1.00
      1.7273800             -0.24463000            -0.01779510
      0.5729220              0.00431572             0.25353900
      0.2221920              1.09818000             0.80066900
SP   1   1.00
      0.0778369              1.00000000             1.00000000
D    1   1.00
      0.9000000              1.0000000
D    1   1.00
      0.2250000              1.0000000
F    1   1.00
      0.3200000              1.0000000
****
P     0
S    6   1.00
  19413.3000000              0.0018516
   2909.4200000              0.0142062
    661.3640000              0.0699995
    185.7590000              0.2400790
     59.1943000              0.4847620
     20.0310000              0.3352000
SP   6   1.00
    339.4780000             -0.00278217             0.00456462
     81.0101000             -0.0360499              0.03369360
     25.8780000             -0.1166310              0.13975500
      9.4522100              0.0968328              0.33936200
      3.6656600              0.6144180              0.45092100
      1.4674600              0.4037980              0.23858600
SP   3   1.00
      2.1562300             -0.2529230             -0.01776530
      0.7489970              0.0328517              0.27405800
      0.2831450              1.0812500              0.78542100
SP   1   1.00
      0.0998317              1.0000000              1.00000000
D    1   1.00
      1.1000000              1.0000000
D    1   1.00
      0.2750000              1.0000000
F    1   1.00
      0.4500000              1.0000000
****
S     0
S    6   1.00
  21917.1000000              0.0018690
   3301.4900000              0.0142300
    754.1460000              0.0696960
    212.7110000              0.2384870
     67.9896000              0.4833070
     23.0515000              0.3380740
SP   6   1.00
    423.7350000             -0.0023767              0.0040610
    100.7100000             -0.0316930              0.0306810
     32.1599000             -0.1133170              0.1304520
     11.8079000              0.0560900              0.3272050
      4.6311000              0.5922550              0.4528510
      1.8702500              0.4550060              0.2560420
SP   3   1.00
      2.6158400             -0.2503740             -0.0145110
      0.9221670              0.0669570              0.3102630
      0.3412870              1.0545100              0.7544830
SP   1   1.00
      0.1171670              1.0000000              1.0000000
D    1   1.00
      1.3000000              1.0000000
D    1   1.00
      0.3250000              1.0000000
F    1   1.00
      0.5500000              1.0000000
****
Cl     0
S    6   1.00
  25180.1000000              0.0018330
   3780.3500000              0.0140340
    860.4740000              0.0690970
    242.1450000              0.2374520
     77.3349000              0.4830340
     26.2470000              0.3398560
SP   6   1.00
    491.7650000             -0.0022974              0.0039894
    116.9840000             -0.0307140              0.0303180
     37.4153000             -0.1125280              0.1298800
     13.7834000              0.0450160              0.3279510
      5.4521500              0.5893530              0.4535270
      2.2258800              0.4652060              0.2521540
SP   3   1.00
      3.1864900             -0.2518300             -0.0142990
      1.1442700              0.0615890              0.3235720
      0.4203770              1.0601800              0.7435070
SP   1   1.00
      0.1426570              1.0000000              1.0000000
D    1   1.00
      1.5000000              1.0000000
D    1   1.00
      0.3750000              1.0000000
F    1   1.00
      0.7000000              1.0000000
****
}

set {
reference uhf
freeze_core true
e_convergence 10
d_convergence 10
dft_spherical_points 1202
dft_radial_points 99
}

e = energy('b3lyp')

print_out('Grab this energy {0}'.format(e))
--------------------------------------------------------------------------

    Molecular point group: c1

    Geometry (in Bohr), charge = 0, multiplicity = 2:

       Center              X                  Y                   Z               Mass
    ------------   -----------------  -----------------  -----------------  -----------------
         C           -0.254199046457     0.806398811870     0.003754688451    12.000000000000
         O           -2.194460842057    -0.334770256930    -0.003228810549    15.994914619570
         C            2.409706112743    -0.244934240330     0.000866484551    12.000000000000
         H            2.382712580943    -2.309434684430    -0.000834001349     1.007825032230
         H            3.389906474143     0.467416312670    -1.666004989049     1.007825032230
         H            3.389813623143     0.469802820970     1.663059041651     1.007825032230

  Charge       = 0
  Multiplicity = 2
  Basis Set: ANONYMOUS62EB6361
    Blend: 6-31G_2DFP_
  Basis Set: (ANONYMOUS62EB6361 AUX)
    Blend: DEF2-UNIVERSAL-JKFIT

    Orbital Energies [Eh]
    ---------------------

    Alpha Occupied:

       1A    -19.186844     2A    -10.272262     3A    -10.210675
       4A     -1.078737     5A     -0.762692     6A     -0.544214
       7A     -0.466020     8A     -0.457196     9A     -0.456334
      10A     -0.386443    11A     -0.385255    12A     -0.193102

    Alpha Virtual:

      13A     -0.020111    14A      0.091551    15A      0.136455
      16A      0.141092    17A      0.217931    18A      0.267996
      19A      0.427942    20A      0.431363    21A      0.443795
      22A      0.493673    23A      0.506176    24A      0.529851
      25A      0.562957    26A      0.577265    27A      0.605889
      28A      0.616012    29A      0.643719    30A      0.716802
      31A      0.765760    32A      0.785023    33A      0.831997
      34A      0.918278    35A      0.928106    36A      0.936118
      37A      1.022938    38A      1.084924    39A      1.106768
      40A      1.153508    41A      1.222134    42A      1.306599
      43A      1.316739    44A      1.327712    45A      1.403096
      46A      1.407136    47A      1.467549    48A      1.560217
      49A      1.628585    50A      1.652434    51A      1.719165
      52A      1.812780    53A      1.833965    54A      1.901049
      55A      2.064126    56A      2.165214    57A      2.489072
      58A      2.680393    59A      2.744200    60A      2.783943
      61A      2.841030    62A      2.894194    63A      2.972862
      64A      3.030443    65A      3.057380    66A      3.105759
      67A      3.115230    68A      3.182394    69A      3.314734
      70A      3.366670    71A      3.392993    72A      3.439137
      73A      3.466007    74A      3.484816    75A      3.570883
      76A      3.734364    77A      3.762410    78A      3.942969
      79A      3.985019    80A      4.054416    81A      4.111052
      82A      4.119275    83A      4.187941    84A      4.390052
      85A      4.435635    86A      4.448553    87A      4.533192
      88A      4.919350    89A      5.036983    90A      5.041988
      91A      5.197926    92A      5.206617    93A      5.467527
      94A      5.476466    95A      5.827969    96A      5.923513
      97A      6.099056    98A      6.770287    99A      6.772305
     100A      7.072024   101A      7.134939   102A      7.526748

    Beta Occupied:

       1A    -19.178755     2A    -10.262172     3A    -10.207342
       4A     -1.062707     5A     -0.750931     6A     -0.524445
       7A     -0.451900     8A     -0.447062     9A     -0.438214
      10A     -0.381198    11A     -0.346720

    Beta Virtual:

      12A     -0.053502    13A     -0.003810    14A      0.094235
      15A      0.142183    16A      0.144180    17A      0.228239
      18A      0.273761    19A      0.433301    20A      0.435029
      21A      0.465956    22A      0.500364    23A      0.527315
      24A      0.538911    25A      0.569295    26A      0.581502
      27A      0.623194    28A      0.624867    29A      0.649143
      30A      0.738524    31A      0.776982    32A      0.795118
      33A      0.832777    34A      0.923112    35A      0.944132
      36A      0.951875    37A      1.027112    38A      1.091060
      39A      1.108865    40A      1.159713    41A      1.231326
      42A      1.312172    43A      1.319564    44A      1.334509
      45A      1.412597    46A      1.413469    47A      1.479868
      48A      1.571545    49A      1.641696    50A      1.666822
      51A      1.725439    52A      1.815923    53A      1.848026
      54A      1.907700    55A      2.070856    56A      2.186698
      57A      2.501714    58A      2.694656    59A      2.758618
      60A      2.805068    61A      2.856408    62A      2.895827
      63A      2.982296    64A      3.047092    65A      3.065962
      66A      3.123502    67A      3.124426    68A      3.217103
      69A      3.358643    70A      3.378145    71A      3.399145
      72A      3.446519    73A      3.482567    74A      3.507962
      75A      3.584044    76A      3.760172    77A      3.771745
      78A      3.951660    79A      3.994260    80A      4.070766
      81A      4.122106    82A      4.125543    83A      4.199834
      84A      4.392285    85A      4.441889    86A      4.452746
      87A      4.544061    88A      4.923233    89A      5.054524
      90A      5.060044    91A      5.200126    92A      5.212340
      93A      5.480231    94A      5.490337    95A      5.841234
      96A      5.929108    97A      6.122316    98A      6.799645
      99A      6.802010   100A      7.076344   101A      7.164417
     102A      7.538463

    Final Occupation by Irrep:
              A
    DOCC [    11 ]
    SOCC [     1 ]

  @DF-UKS Final Energy:  -153.18835339526666

   => Energetics <=

    Nuclear Repulsion Energy =             62.7208059402815508
    One-Electron Energy =                -331.4486835286778614
    Two-Electron Energy =                 132.1174794194367621
    DFT Exchange-Correlation Energy =     -16.5779552263070897
    Empirical Dispersion Energy =           0.0000000000000000
    VV10 Nonlocal Energy =                  0.0000000000000000
    Total Energy =                       -153.1883533952666596

  UHF NO Occupations:
  HONO-2 :   10  A 1.9997883
  HONO-1 :   11  A 1.9991939
  HONO-0 :   12  A 1.0000000
  LUNO+0 :   13  A 0.0008061
  LUNO+1 :   14  A 0.0002117
  LUNO+2 :   15  A 0.0001822
  LUNO+3 :   16  A 0.0000620

Computation Completed

Properties will be evaluated at   0.000000,   0.000000,   0.000000 [a0]

Properties computed using the SCF density matrix

  Nuclear Dipole Moment: [e a0]
     X:     4.5398      Y:    -0.6816      Z:    -0.0019

  Electronic Dipole Moment: [e a0]
     X:    -3.5999      Y:     0.6323      Z:     0.0019

  Dipole Moment: [e a0]
     X:     0.9399      Y:    -0.0493      Z:    -0.0000     Total:     0.9412

  Dipole Moment: [D]
     X:     2.3891      Y:    -0.1254      Z:    -0.0000     Total:     2.3924

*** tstop() called on n027 at Tue Mar 15 10:30:51 2022
Module time:
	user time   =      62.90 seconds =       1.05 minutes
	system time =       0.41 seconds =       0.01 minutes
	total time  =         63 seconds =       1.05 minutes
Total time:
	user time   =      62.90 seconds =       1.05 minutes
	system time =       0.41 seconds =       0.01 minutes
	total time  =         63 seconds =       1.05 minutes
Grab this energy -153.18835339526666
    Psi4 stopped on: Tuesday, 15 March 2022 10:30AM
    Psi4 wall time for execution: 0:01:03.35

*** Psi4 exiting successfully. Buy a developer a beer!
