                               Psi4 1.4a2.dev629

  ==> Input File <==

--------------------------------------------------------------------------
import os
memory 14 GB

molecule {
 C   -0.2584203110    0.8045451163    0.0004752686
 O   -2.1912413804   -0.3328781623   -0.0000955200
 C    2.4070713806   -0.2452524948    0.0015389253
 H    2.3837130336   -2.3090035354    0.0043216665
 H    3.3938812652    0.4723431202   -1.6671222160
 H    3.3896339942    0.4646116038    1.6608818756
units bohr
0 2
}

basis {

assign 6-31g_2dfp_

[ 6-31g_2dfp_ ]

spherical

!----------------------------------------------------------------------
! Basis Set Exchange
! Version v0.8.13
! https://www.basissetexchange.org
!----------------------------------------------------------------------
!   Basis set: 6-31G(2df,p)
! Description: 6-31G(2df,p)
!        Role: orbital
!     Version: 0  (Data from the original Basis Set Exchange)
!----------------------------------------------------------------------

****
H     0
S    3   1.00
     18.7311370              0.03349460
      2.8253937              0.23472695
      0.6401217              0.81375733
S    1   1.00
      0.1612778              1.00000000
P    1   1.00
      1.5000000              1.0000000
P    1   1.00
      0.3750000              1.0000000
****
B     0
S    6   1.00
   2068.8823000              0.0018663
    310.6495700              0.0142515
     70.6830330              0.0695516
     19.8610800              0.2325729
      6.2993048              0.4670787
      2.1270270              0.3634314
SP   3   1.00
      4.7279710             -0.1303938              0.0745976
      1.1903377             -0.1307889              0.3078467
      0.3594117              1.1309444              0.7434568
SP   1   1.00
      0.1267512              1.0000000              1.0000000
D    1   1.00
      0.8020000              1.0000000
D    1   1.00
      0.2005000              1.0000000
F    1   1.00
      0.5000000              1.0000000
****
C     0
S    6   1.00
   3047.5249000              0.0018347
    457.3695100              0.0140373
    103.9486900              0.0688426
     29.2101550              0.2321844
      9.2866630              0.4679413
      3.1639270              0.3623120
SP   3   1.00
      7.8682724             -0.1193324              0.0689991
      1.8812885             -0.1608542              0.3164240
      0.5442493              1.1434564              0.7443083
SP   1   1.00
      0.1687144              1.0000000              1.0000000
D    1   1.00
      1.2520000              1.0000000
D    1   1.00
      0.3130000              1.0000000
F    1   1.00
      0.8000000              1.0000000
****
N     0
S    6   1.00
   4173.5110000              0.0018348
    627.4579000              0.0139950
    142.9021000              0.0685870
     40.2343300              0.2322410
     12.8202100              0.4690700
      4.3904370              0.3604550
SP   3   1.00
     11.6263580             -0.1149610              0.0675800
      2.7162800             -0.1691180              0.3239070
      0.7722180              1.1458520              0.7408950
SP   1   1.00
      0.2120313              1.0000000              1.0000000
D    1   1.00
      1.8260000              1.0000000
D    1   1.00
      0.4565000              1.0000000
F    1   1.00
      1.0000000              1.0000000
****
O     0
S    6   1.00
   5484.6717000              0.0018311
    825.2349500              0.0139501
    188.0469600              0.0684451
     52.9645000              0.2327143
     16.8975700              0.4701930
      5.7996353              0.3585209
SP   3   1.00
     15.5396160             -0.1107775              0.0708743
      3.5999336             -0.1480263              0.3397528
      1.0137618              1.1307670              0.7271586
SP   1   1.00
      0.2700058              1.0000000              1.0000000
D    1   1.00
      2.5840000              1.0000000
D    1   1.00
      0.6460000              1.0000000
F    1   1.00
      1.4000000              1.0000000
****
F     0
S    6   1.00
   7001.7130900              0.0018196169
   1051.3660900              0.0139160796
    239.2856900              0.0684053245
     67.3974453              0.233185760
     21.5199573              0.471267439
      7.40310130             0.356618546
SP   3   1.00
     20.8479528             -0.108506975            0.0716287243
      4.80830834            -0.146451658            0.3459121030
      1.34406986             1.128688580            0.7224699570
SP   1   1.00
      0.358151393            1.0000000              1.0000000
D    1   1.00
      3.5000000              1.0000000
D    1   1.00
      0.8750000              1.0000000
F    1   1.00
      1.8500000              1.0000000
****
Al     0
S    6   1.00
  13983.1000000              0.00194267
   2098.7500000              0.0148599
    477.7050000              0.0728494
    134.3600000              0.2468300
     42.8709000              0.4872580
     14.5189000              0.3234960
SP   6   1.00
    239.6680000             -0.00292619             0.00460285
     57.4419000             -0.0374080              0.0331990
     18.2859000             -0.1144870              0.1362820
      6.5991400              0.1156350              0.3304760
      2.4904900              0.6125950              0.4491460
      0.9445400              0.3937990              0.2657040
SP   3   1.00
      1.2779000             -0.2276060             -0.0175130
      0.3975900              0.00144583             0.2445330
      0.1600950              1.0927900              0.8049340
SP   1   1.00
      0.0556577              1.0000000              1.0000000
D    1   1.00
      0.6500000              1.0000000
D    1   1.00
      0.1625000              1.0000000
F    1   1.00
      0.2500000              1.0000000
****
Si     0
S    6   1.00
  16115.9000000              0.00195948
   2425.5800000              0.01492880
    553.8670000              0.07284780
    156.3400000              0.24613000
     50.0683000              0.48591400
     17.0178000              0.32500200
SP   6   1.00
    292.7180000             -0.00278094             0.00443826
     69.8731000             -0.03571460             0.03266790
     22.3363000             -0.11498500             0.13472100
      8.1503900              0.09356340             0.32867800
      3.1345800              0.60301700             0.44964000
      1.2254300              0.41895900             0.26137200
SP   3   1.00
      1.7273800             -0.24463000            -0.01779510
      0.5729220              0.00431572             0.25353900
      0.2221920              1.09818000             0.80066900
SP   1   1.00
      0.0778369              1.00000000             1.00000000
D    1   1.00
      0.9000000              1.0000000
D    1   1.00
      0.2250000              1.0000000
F    1   1.00
      0.3200000              1.0000000
****
P     0
S    6   1.00
  19413.3000000              0.0018516
   2909.4200000              0.0142062
    661.3640000              0.0699995
    185.7590000              0.2400790
     59.1943000              0.4847620
     20.0310000              0.3352000
SP   6   1.00
    339.4780000             -0.00278217             0.00456462
     81.0101000             -0.0360499              0.03369360
     25.8780000             -0.1166310              0.13975500
      9.4522100              0.0968328              0.33936200
      3.6656600              0.6144180              0.45092100
      1.4674600              0.4037980              0.23858600
SP   3   1.00
      2.1562300             -0.2529230             -0.01776530
      0.7489970              0.0328517              0.27405800
      0.2831450              1.0812500              0.78542100
SP   1   1.00
      0.0998317              1.0000000              1.00000000
D    1   1.00
      1.1000000              1.0000000
D    1   1.00
      0.2750000              1.0000000
F    1   1.00
      0.4500000              1.0000000
****
S     0
S    6   1.00
  21917.1000000              0.0018690
   3301.4900000              0.0142300
    754.1460000              0.0696960
    212.7110000              0.2384870
     67.9896000              0.4833070
     23.0515000              0.3380740
SP   6   1.00
    423.7350000             -0.0023767              0.0040610
    100.7100000             -0.0316930              0.0306810
     32.1599000             -0.1133170              0.1304520
     11.8079000              0.0560900              0.3272050
      4.6311000              0.5922550              0.4528510
      1.8702500              0.4550060              0.2560420
SP   3   1.00
      2.6158400             -0.2503740             -0.0145110
      0.9221670              0.0669570              0.3102630
      0.3412870              1.0545100              0.7544830
SP   1   1.00
      0.1171670              1.0000000              1.0000000
D    1   1.00
      1.3000000              1.0000000
D    1   1.00
      0.3250000              1.0000000
F    1   1.00
      0.5500000              1.0000000
****
Cl     0
S    6   1.00
  25180.1000000              0.0018330
   3780.3500000              0.0140340
    860.4740000              0.0690970
    242.1450000              0.2374520
     77.3349000              0.4830340
     26.2470000              0.3398560
SP   6   1.00
    491.7650000             -0.0022974              0.0039894
    116.9840000             -0.0307140              0.0303180
     37.4153000             -0.1125280              0.1298800
     13.7834000              0.0450160              0.3279510
      5.4521500              0.5893530              0.4535270
      2.2258800              0.4652060              0.2521540
SP   3   1.00
      3.1864900             -0.2518300             -0.0142990
      1.1442700              0.0615890              0.3235720
      0.4203770              1.0601800              0.7435070
SP   1   1.00
      0.1426570              1.0000000              1.0000000
D    1   1.00
      1.5000000              1.0000000
D    1   1.00
      0.3750000              1.0000000
F    1   1.00
      0.7000000              1.0000000
****
}

set {
reference uhf
freeze_core true
e_convergence 10
d_convergence 10
dft_spherical_points 1202
dft_radial_points 99
}

e = energy('b3lyp')

print_out('Grab this energy {0}'.format(e))
--------------------------------------------------------------------------

    Molecular point group: c1

    Geometry (in Bohr), charge = 0, multiplicity = 2:

       Center              X                  Y                   Z               Mass
    ------------   -----------------  -----------------  -----------------  -----------------
         C           -0.257817224611     0.804443565876    -0.000006125639    12.000000000000
         O           -2.190638294011    -0.332979712724    -0.000576914239    15.994914619570
         C            2.407674466989    -0.245354045224     0.001057531061    12.000000000000
         H            2.384316119989    -2.309105085824     0.003840272261     1.007825032230
         H            3.394484351589     0.472241569776    -1.667603610239     1.007825032230
         H            3.390237080589     0.464510053376     1.660400481361     1.007825032230

  Charge       = 0
  Multiplicity = 2
  Basis Set: ANONYMOUSF3B4B32B
    Blend: 6-31G_2DFP_
  Basis Set: (ANONYMOUSF3B4B32B AUX)
    Blend: DEF2-UNIVERSAL-JKFIT

    Orbital Energies [Eh]
    ---------------------

    Alpha Occupied:

       1A    -19.186854     2A    -10.271536     3A    -10.210449
       4A     -1.081217     5A     -0.762136     6A     -0.544078
       7A     -0.466589     8A     -0.457591     9A     -0.456159
      10A     -0.387328    11A     -0.385931    12A     -0.192156

    Alpha Virtual:

      13A     -0.018951    14A      0.091645    15A      0.136793
      16A      0.141146    17A      0.218458    18A      0.268278
      19A      0.428140    20A      0.431793    21A      0.443819
      22A      0.493549    23A      0.506144    24A      0.530107
      25A      0.562536    26A      0.577339    27A      0.608558
      28A      0.615910    29A      0.644207    30A      0.717630
      31A      0.766050    32A      0.785292    33A      0.832354
      34A      0.917300    35A      0.927070    36A      0.935705
      37A      1.023157    38A      1.085430    39A      1.108381
      40A      1.153344    41A      1.221694    42A      1.306935
      43A      1.317081    44A      1.328022    45A      1.402964
      46A      1.406471    47A      1.467914    48A      1.560140
      49A      1.630546    50A      1.653782    51A      1.719203
      52A      1.813134    53A      1.834861    54A      1.902341
      55A      2.065152    56A      2.166456    57A      2.495425
      58A      2.680193    59A      2.744545    60A      2.783662
      61A      2.841925    62A      2.894415    63A      2.973672
      64A      3.031072    65A      3.058361    66A      3.104916
      67A      3.115876    68A      3.182359    69A      3.314718
      70A      3.368916    71A      3.393333    72A      3.440195
      73A      3.465916    74A      3.486150    75A      3.569107
      76A      3.739619    77A      3.763776    78A      3.944005
      79A      3.982393    80A      4.056272    81A      4.110391
      82A      4.120546    83A      4.190108    84A      4.386877
      85A      4.433953    86A      4.448005    87A      4.534770
      88A      4.916640    89A      5.036980    90A      5.042306
      91A      5.195565    92A      5.209316    93A      5.473681
      94A      5.482742    95A      5.826844    96A      5.930386
      97A      6.104693    98A      6.770743    99A      6.772894
     100A      7.071282   101A      7.135147   102A      7.529970

    Beta Occupied:

       1A    -19.178780     2A    -10.261469     3A    -10.207083
       4A     -1.065273     5A     -0.750345     6A     -0.524386
       7A     -0.451639     8A     -0.446871     9A     -0.439046
      10A     -0.382156    11A     -0.347752

    Beta Virtual:

      12A     -0.052628    13A     -0.002682    14A      0.094339
      15A      0.142524    16A      0.144297    17A      0.228804
      18A      0.273960    19A      0.433691    20A      0.435255
      21A      0.466053    22A      0.500246    23A      0.527453
      24A      0.538994    25A      0.568855    26A      0.581555
      27A      0.623130    28A      0.627202    29A      0.649921
      30A      0.739604    31A      0.777186    32A      0.795279
      33A      0.833140    34A      0.922148    35A      0.943433
      36A      0.951035    37A      1.027346    38A      1.091508
      39A      1.110467    40A      1.159544    41A      1.230929
      42A      1.312540    43A      1.319929    44A      1.334810
      45A      1.411838    46A      1.413501    47A      1.480264
      48A      1.571285    49A      1.643795    50A      1.668173
      51A      1.725438    52A      1.816352    53A      1.848987
      54A      1.909022    55A      2.071867    56A      2.187890
      57A      2.508099    58A      2.694443    59A      2.759014
      60A      2.804752    61A      2.857301    62A      2.896070
      63A      2.983202    64A      3.047738    65A      3.066907
      66A      3.123189    67A      3.124763    68A      3.217076
      69A      3.358396    70A      3.380354    71A      3.399485
      72A      3.448237    73A      3.481836    74A      3.509068
      75A      3.582501    76A      3.765378    77A      3.773147
      78A      3.952683    79A      3.991663    80A      4.072645
      81A      4.123120    82A      4.125390    83A      4.201725
      84A      4.389068    85A      4.440142    86A      4.452308
      87A      4.545698    88A      4.920479    89A      5.054509
      90A      5.060333    91A      5.198168    92A      5.214647
      93A      5.486334    94A      5.496636    95A      5.840099
      96A      5.935979    97A      6.127916    98A      6.800057
      99A      6.802550   100A      7.075588   101A      7.164555
     102A      7.541645

    Final Occupation by Irrep:
              A
    DOCC [    11 ]
    SOCC [     1 ]

  @DF-UKS Final Energy:  -153.18843686055834

   => Energetics <=

    Nuclear Repulsion Energy =             62.8023879846689965
    One-Electron Energy =                -331.6047078288787588
    Two-Electron Energy =                 132.1943344843099055
    DFT Exchange-Correlation Energy =     -16.5804515006584872
    Empirical Dispersion Energy =           0.0000000000000000
    VV10 Nonlocal Energy =                  0.0000000000000000
    Total Energy =                       -153.1884368605583404

  UHF NO Occupations:
  HONO-2 :   10  A 1.9997863
  HONO-1 :   11  A 1.9992003
  HONO-0 :   12  A 1.0000000
  LUNO+0 :   13  A 0.0007997
  LUNO+1 :   14  A 0.0002137
  LUNO+2 :   15  A 0.0001800
  LUNO+3 :   16  A 0.0000616

Computation Completed

Properties will be evaluated at   0.000000,   0.000000,   0.000000 [a0]

Properties computed using the SCF density matrix

  Nuclear Dipole Moment: [e a0]
     X:     4.5431      Y:    -0.6817      Z:    -0.0017

  Electronic Dipole Moment: [e a0]
     X:    -3.6106      Y:     0.6314      Z:     0.0027

  Dipole Moment: [e a0]
     X:     0.9324      Y:    -0.0503      Z:     0.0010     Total:     0.9338

  Dipole Moment: [D]
     X:     2.3700      Y:    -0.1278      Z:     0.0025     Total:     2.3735

*** tstop() called on n065 at Tue Mar 15 10:27:09 2022
Module time:
	user time   =      50.71 seconds =       0.85 minutes
	system time =       0.50 seconds =       0.01 minutes
	total time  =         52 seconds =       0.87 minutes
Total time:
	user time   =      50.71 seconds =       0.85 minutes
	system time =       0.50 seconds =       0.01 minutes
	total time  =         52 seconds =       0.87 minutes
Grab this energy -153.18843686055834
    Psi4 stopped on: Tuesday, 15 March 2022 10:27AM
    Psi4 wall time for execution: 0:00:51.25

*** Psi4 exiting successfully. Buy a developer a beer!
