                               Psi4 1.4a2.dev629

  ==> Input File <==

--------------------------------------------------------------------------
import os
memory 14 GB

molecule {
 C   -0.2647467594    0.8059031147    0.0000000000
 O   -2.2027600799   -0.3272408316    0.0000000000
 C    2.4133438275   -0.2474136967    0.0000000000
 H    2.3962129045   -2.3111975459   -0.0000000000
 H    3.3912940447    0.4671573037   -1.6652965534
 H    3.3912940447    0.4671573037    1.6652965534
units bohr
0 2
}

basis {

assign 6-31g_2dfp_

[ 6-31g_2dfp_ ]

spherical

!----------------------------------------------------------------------
! Basis Set Exchange
! Version v0.8.13
! https://www.basissetexchange.org
!----------------------------------------------------------------------
!   Basis set: 6-31G(2df,p)
! Description: 6-31G(2df,p)
!        Role: orbital
!     Version: 0  (Data from the original Basis Set Exchange)
!----------------------------------------------------------------------

****
H     0
S    3   1.00
     18.7311370              0.03349460
      2.8253937              0.23472695
      0.6401217              0.81375733
S    1   1.00
      0.1612778              1.00000000
P    1   1.00
      1.5000000              1.0000000
P    1   1.00
      0.3750000              1.0000000
****
B     0
S    6   1.00
   2068.8823000              0.0018663
    310.6495700              0.0142515
     70.6830330              0.0695516
     19.8610800              0.2325729
      6.2993048              0.4670787
      2.1270270              0.3634314
SP   3   1.00
      4.7279710             -0.1303938              0.0745976
      1.1903377             -0.1307889              0.3078467
      0.3594117              1.1309444              0.7434568
SP   1   1.00
      0.1267512              1.0000000              1.0000000
D    1   1.00
      0.8020000              1.0000000
D    1   1.00
      0.2005000              1.0000000
F    1   1.00
      0.5000000              1.0000000
****
C     0
S    6   1.00
   3047.5249000              0.0018347
    457.3695100              0.0140373
    103.9486900              0.0688426
     29.2101550              0.2321844
      9.2866630              0.4679413
      3.1639270              0.3623120
SP   3   1.00
      7.8682724             -0.1193324              0.0689991
      1.8812885             -0.1608542              0.3164240
      0.5442493              1.1434564              0.7443083
SP   1   1.00
      0.1687144              1.0000000              1.0000000
D    1   1.00
      1.2520000              1.0000000
D    1   1.00
      0.3130000              1.0000000
F    1   1.00
      0.8000000              1.0000000
****
N     0
S    6   1.00
   4173.5110000              0.0018348
    627.4579000              0.0139950
    142.9021000              0.0685870
     40.2343300              0.2322410
     12.8202100              0.4690700
      4.3904370              0.3604550
SP   3   1.00
     11.6263580             -0.1149610              0.0675800
      2.7162800             -0.1691180              0.3239070
      0.7722180              1.1458520              0.7408950
SP   1   1.00
      0.2120313              1.0000000              1.0000000
D    1   1.00
      1.8260000              1.0000000
D    1   1.00
      0.4565000              1.0000000
F    1   1.00
      1.0000000              1.0000000
****
O     0
S    6   1.00
   5484.6717000              0.0018311
    825.2349500              0.0139501
    188.0469600              0.0684451
     52.9645000              0.2327143
     16.8975700              0.4701930
      5.7996353              0.3585209
SP   3   1.00
     15.5396160             -0.1107775              0.0708743
      3.5999336             -0.1480263              0.3397528
      1.0137618              1.1307670              0.7271586
SP   1   1.00
      0.2700058              1.0000000              1.0000000
D    1   1.00
      2.5840000              1.0000000
D    1   1.00
      0.6460000              1.0000000
F    1   1.00
      1.4000000              1.0000000
****
F     0
S    6   1.00
   7001.7130900              0.0018196169
   1051.3660900              0.0139160796
    239.2856900              0.0684053245
     67.3974453              0.233185760
     21.5199573              0.471267439
      7.40310130             0.356618546
SP   3   1.00
     20.8479528             -0.108506975            0.0716287243
      4.80830834            -0.146451658            0.3459121030
      1.34406986             1.128688580            0.7224699570
SP   1   1.00
      0.358151393            1.0000000              1.0000000
D    1   1.00
      3.5000000              1.0000000
D    1   1.00
      0.8750000              1.0000000
F    1   1.00
      1.8500000              1.0000000
****
Al     0
S    6   1.00
  13983.1000000              0.00194267
   2098.7500000              0.0148599
    477.7050000              0.0728494
    134.3600000              0.2468300
     42.8709000              0.4872580
     14.5189000              0.3234960
SP   6   1.00
    239.6680000             -0.00292619             0.00460285
     57.4419000             -0.0374080              0.0331990
     18.2859000             -0.1144870              0.1362820
      6.5991400              0.1156350              0.3304760
      2.4904900              0.6125950              0.4491460
      0.9445400              0.3937990              0.2657040
SP   3   1.00
      1.2779000             -0.2276060             -0.0175130
      0.3975900              0.00144583             0.2445330
      0.1600950              1.0927900              0.8049340
SP   1   1.00
      0.0556577              1.0000000              1.0000000
D    1   1.00
      0.6500000              1.0000000
D    1   1.00
      0.1625000              1.0000000
F    1   1.00
      0.2500000              1.0000000
****
Si     0
S    6   1.00
  16115.9000000              0.00195948
   2425.5800000              0.01492880
    553.8670000              0.07284780
    156.3400000              0.24613000
     50.0683000              0.48591400
     17.0178000              0.32500200
SP   6   1.00
    292.7180000             -0.00278094             0.00443826
     69.8731000             -0.03571460             0.03266790
     22.3363000             -0.11498500             0.13472100
      8.1503900              0.09356340             0.32867800
      3.1345800              0.60301700             0.44964000
      1.2254300              0.41895900             0.26137200
SP   3   1.00
      1.7273800             -0.24463000            -0.01779510
      0.5729220              0.00431572             0.25353900
      0.2221920              1.09818000             0.80066900
SP   1   1.00
      0.0778369              1.00000000             1.00000000
D    1   1.00
      0.9000000              1.0000000
D    1   1.00
      0.2250000              1.0000000
F    1   1.00
      0.3200000              1.0000000
****
P     0
S    6   1.00
  19413.3000000              0.0018516
   2909.4200000              0.0142062
    661.3640000              0.0699995
    185.7590000              0.2400790
     59.1943000              0.4847620
     20.0310000              0.3352000
SP   6   1.00
    339.4780000             -0.00278217             0.00456462
     81.0101000             -0.0360499              0.03369360
     25.8780000             -0.1166310              0.13975500
      9.4522100              0.0968328              0.33936200
      3.6656600              0.6144180              0.45092100
      1.4674600              0.4037980              0.23858600
SP   3   1.00
      2.1562300             -0.2529230             -0.01776530
      0.7489970              0.0328517              0.27405800
      0.2831450              1.0812500              0.78542100
SP   1   1.00
      0.0998317              1.0000000              1.00000000
D    1   1.00
      1.1000000              1.0000000
D    1   1.00
      0.2750000              1.0000000
F    1   1.00
      0.4500000              1.0000000
****
S     0
S    6   1.00
  21917.1000000              0.0018690
   3301.4900000              0.0142300
    754.1460000              0.0696960
    212.7110000              0.2384870
     67.9896000              0.4833070
     23.0515000              0.3380740
SP   6   1.00
    423.7350000             -0.0023767              0.0040610
    100.7100000             -0.0316930              0.0306810
     32.1599000             -0.1133170              0.1304520
     11.8079000              0.0560900              0.3272050
      4.6311000              0.5922550              0.4528510
      1.8702500              0.4550060              0.2560420
SP   3   1.00
      2.6158400             -0.2503740             -0.0145110
      0.9221670              0.0669570              0.3102630
      0.3412870              1.0545100              0.7544830
SP   1   1.00
      0.1171670              1.0000000              1.0000000
D    1   1.00
      1.3000000              1.0000000
D    1   1.00
      0.3250000              1.0000000
F    1   1.00
      0.5500000              1.0000000
****
Cl     0
S    6   1.00
  25180.1000000              0.0018330
   3780.3500000              0.0140340
    860.4740000              0.0690970
    242.1450000              0.2374520
     77.3349000              0.4830340
     26.2470000              0.3398560
SP   6   1.00
    491.7650000             -0.0022974              0.0039894
    116.9840000             -0.0307140              0.0303180
     37.4153000             -0.1125280              0.1298800
     13.7834000              0.0450160              0.3279510
      5.4521500              0.5893530              0.4535270
      2.2258800              0.4652060              0.2521540
SP   3   1.00
      3.1864900             -0.2518300             -0.0142990
      1.1442700              0.0615890              0.3235720
      0.4203770              1.0601800              0.7435070
SP   1   1.00
      0.1426570              1.0000000              1.0000000
D    1   1.00
      1.5000000              1.0000000
D    1   1.00
      0.3750000              1.0000000
F    1   1.00
      0.7000000              1.0000000
****
}

set {
reference uhf
freeze_core true
e_convergence 10
d_convergence 10
dft_spherical_points 1202
dft_radial_points 99
}

e = energy('b3lyp')

print_out('Grab this energy {0}'.format(e))
--------------------------------------------------------------------------

    Molecular point group: cs

    Geometry (in Bohr), charge = 0, multiplicity = 2:

       Center              X                  Y                   Z               Mass
    ------------   -----------------  -----------------  -----------------  -----------------
         C           -0.260116898031     0.804042822783     0.000000000000    12.000000000000
         O           -2.198130218531    -0.329101123517     0.000000000000    15.994914619570
         C            2.417973688869    -0.249273988617     0.000000000000    12.000000000000
         H            2.400842765869    -2.313057837817     0.000000000000     1.007825032230
         H            3.395923906069     0.465297011783    -1.665296553400     1.007825032230
         H            3.395923906069     0.465297011783     1.665296553400     1.007825032230

  Charge       = 0
  Multiplicity = 2
  Basis Set: ANONYMOUS07FFB1F9
    Blend: 6-31G_2DFP_
  Basis Set: (ANONYMOUS07FFB1F9 AUX)
    Blend: DEF2-UNIVERSAL-JKFIT

    Orbital Energies [Eh]
    ---------------------

    Alpha Occupied:

       1Ap   -19.187229     2Ap   -10.272311     3Ap   -10.210776
       4Ap    -1.080652     5Ap    -0.761172     6Ap    -0.544086
       7Ap    -0.465629     8Ap    -0.457242     1App   -0.455950
       2App   -0.387649     9Ap    -0.386179    10Ap    -0.192369

    Alpha Virtual:

       3App   -0.019367    11Ap     0.091695    12Ap     0.136833
       4App    0.141352    13Ap     0.215883    14Ap     0.267812
      15Ap     0.427742     5App    0.431793    16Ap     0.443326
       6App    0.493247    17Ap     0.506517    18Ap     0.530061
       7App    0.563545    19Ap     0.577149    20Ap     0.607190
       8App    0.615164    21Ap     0.643600    22Ap     0.718009
       9App    0.765069    23Ap     0.784728    10App    0.832634
      11App    0.917337    24Ap     0.926089    25Ap     0.933919
      12App    1.022156    26Ap     1.086052    27Ap     1.107007
      13App    1.151403    28Ap     1.220156    29Ap     1.305159
      14App    1.317310    30Ap     1.325879    31Ap     1.402077
      15App    1.407051    32Ap     1.466863    33Ap     1.559590
      34Ap     1.630219    16App    1.653228    35Ap     1.720864
      17App    1.813353    36Ap     1.830704    37Ap     1.900526
      18App    2.064747    38Ap     2.166219    39Ap     2.492933
      19App    2.679865    40Ap     2.742393    41Ap     2.783607
      20App    2.841773    21App    2.895184    42Ap     2.973793
      43Ap     3.029382    22App    3.056359    23App    3.105421
      44Ap     3.111808    45Ap     3.181852    24App    3.313256
      46Ap     3.366518    25App    3.394687    26App    3.438005
      27App    3.463351    47Ap     3.484264    48Ap     3.570480
      49Ap     3.735782    50Ap     3.759097    51Ap     3.940747
      28App    3.977419    52Ap     4.049769    53Ap     4.103655
      29App    4.120986    54Ap     4.186301    30App    4.389043
      55Ap     4.427294    31App    4.445523    56Ap     4.531507
      57Ap     4.918360    58Ap     5.036784    32App    5.041778
      33App    5.197935    59Ap     5.207202    60Ap     5.470252
      34App    5.478977    61Ap     5.826462    35App    5.927472
      62Ap     6.100541    63Ap     6.769992    36App    6.772253
      37App    7.070681    64Ap     7.134535    65Ap     7.528369

    Beta Occupied:

       1Ap   -19.179173     2Ap   -10.262252     3Ap   -10.207376
       4Ap    -1.064731     5Ap    -0.749400     6Ap    -0.524271
       1App   -0.451433     7Ap    -0.446352     8Ap    -0.438341
       2App   -0.382453     9Ap    -0.348011

    Beta Virtual:

      10Ap    -0.052990     3App   -0.003075    11Ap     0.094394
      12Ap     0.142512     4App    0.144446    13Ap     0.226547
      14Ap     0.273516     5App    0.433787    15Ap     0.435658
      16Ap     0.464393     6App    0.499922    17Ap     0.527884
      18Ap     0.539231     7App    0.569964    19Ap     0.581362
       8App    0.622400    20Ap     0.625841    21Ap     0.649250
      22Ap     0.739938     9App    0.776175    23Ap     0.794747
      10App    0.833396    11App    0.922163    24Ap     0.940349
      25Ap     0.951325    12App    1.026331    26Ap     1.092024
      27Ap     1.109186    13App    1.157639    28Ap     1.229481
      29Ap     1.310696    14App    1.320177    30Ap     1.332660
      31Ap     1.412298    15App    1.412541    32Ap     1.479061
      33Ap     1.570847    34Ap     1.643556    16App    1.667523
      35Ap     1.727045    17App    1.816510    36Ap     1.844863
      37Ap     1.907153    18App    2.071439    38Ap     2.187537
      39Ap     2.505626    19App    2.694090    40Ap     2.756778
      41Ap     2.804891    20App    2.857333    21App    2.896844
      42Ap     2.983288    43Ap     3.046177    22App    3.064985
      44Ap     3.120255    23App    3.123919    45Ap     3.216602
      24App    3.357064    46Ap     3.378180    25App    3.400874
      26App    3.447070    27App    3.478288    47Ap     3.507184
      48Ap     3.583657    49Ap     3.760833    50Ap     3.769212
      51Ap     3.949362    28App    3.986741    52Ap     4.066236
      53Ap     4.119358    29App    4.123818    54Ap     4.197084
      30App    4.391307    55Ap     4.433418    31App    4.449680
      56Ap     4.542375    57Ap     4.922246    58Ap     5.054279
      32App    5.059743    33App    5.200092    59Ap     5.212847
      60Ap     5.482930    34App    5.492843    61Ap     5.839669
      35App    5.933058    62Ap     6.123682    63Ap     6.799225
      36App    6.801816    37App    7.074985    64Ap     7.163873
      65Ap     7.540033

    Final Occupation by Irrep:
             Ap   App
    DOCC [     9,    2 ]
    SOCC [     1,    0 ]

  @DF-UKS Final Energy:  -153.18839498344443

   => Energetics <=

    Nuclear Repulsion Energy =             62.6666224076080169
    One-Electron Energy =                -331.3365840312494015
    Two-Electron Energy =                 132.0594812209412225
    DFT Exchange-Correlation Energy =     -16.5779145807442703
    Empirical Dispersion Energy =           0.0000000000000000
    VV10 Nonlocal Energy =                  0.0000000000000000
    Total Energy =                       -153.1883949834444252

  UHF NO Occupations:
  HONO-2 :    8 Ap 1.9997800
  HONO-1 :    9 Ap 1.9992015
  HONO-0 :   10 Ap 1.0000000
  LUNO+0 :   11 Ap 0.0007985
  LUNO+1 :   12 Ap 0.0002200
  LUNO+2 :    3App 0.0001812
  LUNO+3 :   13 Ap 0.0000616

Computation Completed

Properties will be evaluated at   0.000000,   0.000000,   0.000000 [a0]

Properties computed using the SCF density matrix

  Nuclear Dipole Moment: [e a0]
     X:     4.5548      Y:    -0.6867      Z:     0.0000

  Electronic Dipole Moment: [e a0]
     X:    -3.6225      Y:     0.6345      Z:     0.0000

  Dipole Moment: [e a0]
     X:     0.9323      Y:    -0.0522      Z:     0.0000     Total:     0.9338

  Dipole Moment: [D]
     X:     2.3697      Y:    -0.1326      Z:     0.0000     Total:     2.3735

*** tstop() called on n029 at Tue Mar 15 10:34:06 2022
Module time:
	user time   =      62.30 seconds =       1.04 minutes
	system time =       0.42 seconds =       0.01 minutes
	total time  =         63 seconds =       1.05 minutes
Total time:
	user time   =      62.30 seconds =       1.04 minutes
	system time =       0.42 seconds =       0.01 minutes
	total time  =         63 seconds =       1.05 minutes
Grab this energy -153.18839498344443
    Psi4 stopped on: Tuesday, 15 March 2022 10:34AM
    Psi4 wall time for execution: 0:01:02.78

*** Psi4 exiting successfully. Buy a developer a beer!
