                               Psi4 1.4a2.dev629

  ==> Input File <==

--------------------------------------------------------------------------
import os
memory 14 GB

molecule {
 C   -0.2597595489    0.8050723522   -0.0000000000
 O   -2.1902460768   -0.3328099238   -0.0000000000
 C    2.4093062543   -0.2424734208    0.0000000000
 H    2.3821130727   -2.3155823739   -0.0000000000
 H    3.3916121405    0.4700795071   -1.6688966214
 H    3.3916121405    0.4700795071    1.6688966214
units bohr
0 2
}

basis {

assign 6-31g_2dfp_

[ 6-31g_2dfp_ ]

spherical

!----------------------------------------------------------------------
! Basis Set Exchange
! Version v0.8.13
! https://www.basissetexchange.org
!----------------------------------------------------------------------
!   Basis set: 6-31G(2df,p)
! Description: 6-31G(2df,p)
!        Role: orbital
!     Version: 0  (Data from the original Basis Set Exchange)
!----------------------------------------------------------------------

****
H     0
S    3   1.00
     18.7311370              0.03349460
      2.8253937              0.23472695
      0.6401217              0.81375733
S    1   1.00
      0.1612778              1.00000000
P    1   1.00
      1.5000000              1.0000000
P    1   1.00
      0.3750000              1.0000000
****
B     0
S    6   1.00
   2068.8823000              0.0018663
    310.6495700              0.0142515
     70.6830330              0.0695516
     19.8610800              0.2325729
      6.2993048              0.4670787
      2.1270270              0.3634314
SP   3   1.00
      4.7279710             -0.1303938              0.0745976
      1.1903377             -0.1307889              0.3078467
      0.3594117              1.1309444              0.7434568
SP   1   1.00
      0.1267512              1.0000000              1.0000000
D    1   1.00
      0.8020000              1.0000000
D    1   1.00
      0.2005000              1.0000000
F    1   1.00
      0.5000000              1.0000000
****
C     0
S    6   1.00
   3047.5249000              0.0018347
    457.3695100              0.0140373
    103.9486900              0.0688426
     29.2101550              0.2321844
      9.2866630              0.4679413
      3.1639270              0.3623120
SP   3   1.00
      7.8682724             -0.1193324              0.0689991
      1.8812885             -0.1608542              0.3164240
      0.5442493              1.1434564              0.7443083
SP   1   1.00
      0.1687144              1.0000000              1.0000000
D    1   1.00
      1.2520000              1.0000000
D    1   1.00
      0.3130000              1.0000000
F    1   1.00
      0.8000000              1.0000000
****
N     0
S    6   1.00
   4173.5110000              0.0018348
    627.4579000              0.0139950
    142.9021000              0.0685870
     40.2343300              0.2322410
     12.8202100              0.4690700
      4.3904370              0.3604550
SP   3   1.00
     11.6263580             -0.1149610              0.0675800
      2.7162800             -0.1691180              0.3239070
      0.7722180              1.1458520              0.7408950
SP   1   1.00
      0.2120313              1.0000000              1.0000000
D    1   1.00
      1.8260000              1.0000000
D    1   1.00
      0.4565000              1.0000000
F    1   1.00
      1.0000000              1.0000000
****
O     0
S    6   1.00
   5484.6717000              0.0018311
    825.2349500              0.0139501
    188.0469600              0.0684451
     52.9645000              0.2327143
     16.8975700              0.4701930
      5.7996353              0.3585209
SP   3   1.00
     15.5396160             -0.1107775              0.0708743
      3.5999336             -0.1480263              0.3397528
      1.0137618              1.1307670              0.7271586
SP   1   1.00
      0.2700058              1.0000000              1.0000000
D    1   1.00
      2.5840000              1.0000000
D    1   1.00
      0.6460000              1.0000000
F    1   1.00
      1.4000000              1.0000000
****
F     0
S    6   1.00
   7001.7130900              0.0018196169
   1051.3660900              0.0139160796
    239.2856900              0.0684053245
     67.3974453              0.233185760
     21.5199573              0.471267439
      7.40310130             0.356618546
SP   3   1.00
     20.8479528             -0.108506975            0.0716287243
      4.80830834            -0.146451658            0.3459121030
      1.34406986             1.128688580            0.7224699570
SP   1   1.00
      0.358151393            1.0000000              1.0000000
D    1   1.00
      3.5000000              1.0000000
D    1   1.00
      0.8750000              1.0000000
F    1   1.00
      1.8500000              1.0000000
****
Al     0
S    6   1.00
  13983.1000000              0.00194267
   2098.7500000              0.0148599
    477.7050000              0.0728494
    134.3600000              0.2468300
     42.8709000              0.4872580
     14.5189000              0.3234960
SP   6   1.00
    239.6680000             -0.00292619             0.00460285
     57.4419000             -0.0374080              0.0331990
     18.2859000             -0.1144870              0.1362820
      6.5991400              0.1156350              0.3304760
      2.4904900              0.6125950              0.4491460
      0.9445400              0.3937990              0.2657040
SP   3   1.00
      1.2779000             -0.2276060             -0.0175130
      0.3975900              0.00144583             0.2445330
      0.1600950              1.0927900              0.8049340
SP   1   1.00
      0.0556577              1.0000000              1.0000000
D    1   1.00
      0.6500000              1.0000000
D    1   1.00
      0.1625000              1.0000000
F    1   1.00
      0.2500000              1.0000000
****
Si     0
S    6   1.00
  16115.9000000              0.00195948
   2425.5800000              0.01492880
    553.8670000              0.07284780
    156.3400000              0.24613000
     50.0683000              0.48591400
     17.0178000              0.32500200
SP   6   1.00
    292.7180000             -0.00278094             0.00443826
     69.8731000             -0.03571460             0.03266790
     22.3363000             -0.11498500             0.13472100
      8.1503900              0.09356340             0.32867800
      3.1345800              0.60301700             0.44964000
      1.2254300              0.41895900             0.26137200
SP   3   1.00
      1.7273800             -0.24463000            -0.01779510
      0.5729220              0.00431572             0.25353900
      0.2221920              1.09818000             0.80066900
SP   1   1.00
      0.0778369              1.00000000             1.00000000
D    1   1.00
      0.9000000              1.0000000
D    1   1.00
      0.2250000              1.0000000
F    1   1.00
      0.3200000              1.0000000
****
P     0
S    6   1.00
  19413.3000000              0.0018516
   2909.4200000              0.0142062
    661.3640000              0.0699995
    185.7590000              0.2400790
     59.1943000              0.4847620
     20.0310000              0.3352000
SP   6   1.00
    339.4780000             -0.00278217             0.00456462
     81.0101000             -0.0360499              0.03369360
     25.8780000             -0.1166310              0.13975500
      9.4522100              0.0968328              0.33936200
      3.6656600              0.6144180              0.45092100
      1.4674600              0.4037980              0.23858600
SP   3   1.00
      2.1562300             -0.2529230             -0.01776530
      0.7489970              0.0328517              0.27405800
      0.2831450              1.0812500              0.78542100
SP   1   1.00
      0.0998317              1.0000000              1.00000000
D    1   1.00
      1.1000000              1.0000000
D    1   1.00
      0.2750000              1.0000000
F    1   1.00
      0.4500000              1.0000000
****
S     0
S    6   1.00
  21917.1000000              0.0018690
   3301.4900000              0.0142300
    754.1460000              0.0696960
    212.7110000              0.2384870
     67.9896000              0.4833070
     23.0515000              0.3380740
SP   6   1.00
    423.7350000             -0.0023767              0.0040610
    100.7100000             -0.0316930              0.0306810
     32.1599000             -0.1133170              0.1304520
     11.8079000              0.0560900              0.3272050
      4.6311000              0.5922550              0.4528510
      1.8702500              0.4550060              0.2560420
SP   3   1.00
      2.6158400             -0.2503740             -0.0145110
      0.9221670              0.0669570              0.3102630
      0.3412870              1.0545100              0.7544830
SP   1   1.00
      0.1171670              1.0000000              1.0000000
D    1   1.00
      1.3000000              1.0000000
D    1   1.00
      0.3250000              1.0000000
F    1   1.00
      0.5500000              1.0000000
****
Cl     0
S    6   1.00
  25180.1000000              0.0018330
   3780.3500000              0.0140340
    860.4740000              0.0690970
    242.1450000              0.2374520
     77.3349000              0.4830340
     26.2470000              0.3398560
SP   6   1.00
    491.7650000             -0.0022974              0.0039894
    116.9840000             -0.0307140              0.0303180
     37.4153000             -0.1125280              0.1298800
     13.7834000              0.0450160              0.3279510
      5.4521500              0.5893530              0.4535270
      2.2258800              0.4652060              0.2521540
SP   3   1.00
      3.1864900             -0.2518300             -0.0142990
      1.1442700              0.0615890              0.3235720
      0.4203770              1.0601800              0.7435070
SP   1   1.00
      0.1426570              1.0000000              1.0000000
D    1   1.00
      1.5000000              1.0000000
D    1   1.00
      0.3750000              1.0000000
F    1   1.00
      0.7000000              1.0000000
****
}

set {
reference uhf
freeze_core true
e_convergence 10
d_convergence 10
dft_spherical_points 1202
dft_radial_points 99
}

e = energy('b3lyp')

print_out('Grab this energy {0}'.format(e))
--------------------------------------------------------------------------

    Molecular point group: cs

    Geometry (in Bohr), charge = 0, multiplicity = 2:

       Center              X                  Y                   Z               Mass
    ------------   -----------------  -----------------  -----------------  -----------------
         C           -0.259732069592     0.804102191078     0.000000000000    12.000000000000
         O           -2.190218597492    -0.333780084922     0.000000000000    15.994914619570
         C            2.409333733608    -0.243443581922     0.000000000000    12.000000000000
         H            2.382140552008    -2.316552535022     0.000000000000     1.007825032230
         H            3.391639619808     0.469109345978    -1.668896621400     1.007825032230
         H            3.391639619808     0.469109345978     1.668896621400     1.007825032230

  Charge       = 0
  Multiplicity = 2
  Basis Set: ANONYMOUSBBB4728C
    Blend: 6-31G_2DFP_
  Basis Set: (ANONYMOUSBBB4728C AUX)
    Blend: DEF2-UNIVERSAL-JKFIT

    Orbital Energies [Eh]
    ---------------------

    Alpha Occupied:

       1Ap   -19.186921     2Ap   -10.271477     3Ap   -10.211159
       4Ap    -1.081773     5Ap    -0.761402     6Ap    -0.543672
       7Ap    -0.466322     8Ap    -0.457098     1App   -0.456297
       2App   -0.387684     9Ap    -0.385785    10Ap    -0.191927

    Alpha Virtual:

       3App   -0.018743    11Ap     0.091300    12Ap     0.135661
       4App    0.140930    13Ap     0.218179    14Ap     0.268386
      15Ap     0.428252     5App    0.431453    16Ap     0.443723
       6App    0.493213    17Ap     0.506039    18Ap     0.529417
       7App    0.562510    19Ap     0.575774    20Ap     0.608726
       8App    0.615685    21Ap     0.643347    22Ap     0.717415
       9App    0.765807    23Ap     0.785375    10App    0.830814
      11App    0.916959    24Ap     0.926985    25Ap     0.935098
      12App    1.022767    26Ap     1.084742    27Ap     1.106264
      13App    1.153355    28Ap     1.222147    29Ap     1.306186
      14App    1.315997    30Ap     1.326828    31Ap     1.401689
      15App    1.405745    32Ap     1.467131    33Ap     1.559104
      34Ap     1.629700    16App    1.653897    35Ap     1.716642
      17App    1.812128    36Ap     1.833456    37Ap     1.898428
      18App    2.064732    38Ap     2.166607    39Ap     2.496586
      19App    2.680126    40Ap     2.744047    41Ap     2.781746
      20App    2.840083    21App    2.893814    42Ap     2.972753
      43Ap     3.030763    22App    3.058656    23App    3.104417
      44Ap     3.115230    45Ap     3.182544    24App    3.314281
      46Ap     3.371189    25App    3.395559    26App    3.440130
      27App    3.466243    47Ap     3.486704    48Ap     3.568360
      49Ap     3.740661    50Ap     3.760828    51Ap     3.940099
      28App    3.979924    52Ap     4.055732    53Ap     4.105844
      29App    4.114579    54Ap     4.185588    30App    4.387806
      55Ap     4.431817    31App    4.441601    56Ap     4.527584
      57Ap     4.916080    58Ap     5.036746    32App    5.042258
      33App    5.191022    59Ap     5.197564    60Ap     5.474802
      34App    5.483003    61Ap     5.826314    35App    5.931544
      62Ap     6.105112    63Ap     6.770727    36App    6.772951
      37App    7.070805    64Ap     7.134990    65Ap     7.530489

    Beta Occupied:

       1Ap   -19.178862     2Ap   -10.261421     3Ap   -10.207779
       4Ap    -1.065868     5Ap    -0.749565     6Ap    -0.524037
       1App   -0.451739     7Ap    -0.445897     8Ap    -0.439018
       2App   -0.382533     9Ap    -0.347900

    Beta Virtual:

      10Ap    -0.052537     3App   -0.002487    11Ap     0.094037
      12Ap     0.141427     4App    0.144073    13Ap     0.228615
      14Ap     0.274051     5App    0.433435    15Ap     0.435380
      16Ap     0.465849     6App    0.499897    17Ap     0.527309
      18Ap     0.538323     7App    0.568860    19Ap     0.579940
       8App    0.622910    20Ap     0.627231    21Ap     0.649167
      22Ap     0.739485     9App    0.776943    23Ap     0.795315
      10App    0.831606    11App    0.921808    24Ap     0.943079
      25Ap     0.950713    12App    1.026958    26Ap     1.090923
      27Ap     1.108364    13App    1.159564    28Ap     1.231368
      29Ap     1.311592    14App    1.318868    30Ap     1.333666
      15App    1.411199    31Ap     1.412039    32Ap     1.479435
      33Ap     1.570422    34Ap     1.642840    16App    1.668287
      35Ap     1.722800    17App    1.815298    36Ap     1.847763
      37Ap     1.905149    18App    2.071417    38Ap     2.188004
      39Ap     2.509252    19App    2.694366    40Ap     2.758481
      41Ap     2.802772    20App    2.855394    21App    2.895486
      42Ap     2.982294    43Ap     3.047644    22App    3.067310
      23App    3.123171    44Ap     3.123662    45Ap     3.217291
      24App    3.357882    46Ap     3.382639    25App    3.401804
      26App    3.448425    27App    3.481843    47Ap     3.509592
      48Ap     3.581647    49Ap     3.766326    50Ap     3.770101
      51Ap     3.948936    28App    3.989202    52Ap     4.072052
      29App    4.117449    53Ap     4.120140    54Ap     4.197686
      30App    4.389998    55Ap     4.438088    31App    4.445849
      56Ap     4.538522    57Ap     4.919973    58Ap     5.054176
      32App    5.060253    33App    5.193138    59Ap     5.203361
      60Ap     5.487430    34App    5.496934    61Ap     5.839547
      35App    5.937130    62Ap     6.128302    63Ap     6.799987
      36App    6.802552    37App    7.075099    64Ap     7.164338
      65Ap     7.542143

    Final Occupation by Irrep:
             Ap   App
    DOCC [     9,    2 ]
    SOCC [     1,    0 ]

  @DF-UKS Final Energy:  -153.18845255811399

   => Energetics <=

    Nuclear Repulsion Energy =             62.7784641119098126
    One-Electron Energy =                -331.5589047539948524
    Two-Electron Energy =                 132.1705442623277236
    DFT Exchange-Correlation Energy =     -16.5785561783566600
    Empirical Dispersion Energy =           0.0000000000000000
    VV10 Nonlocal Energy =                  0.0000000000000000
    Total Energy =                       -153.1884525581139940

  UHF NO Occupations:
  HONO-2 :    8 Ap 1.9997839
  HONO-1 :    9 Ap 1.9992029
  HONO-0 :   10 Ap 1.0000000
  LUNO+0 :   11 Ap 0.0007971
  LUNO+1 :   12 Ap 0.0002161
  LUNO+2 :    3App 0.0001797
  LUNO+3 :   13 Ap 0.0000614

Computation Completed

Properties will be evaluated at   0.000000,   0.000000,   0.000000 [a0]

Properties computed using the SCF density matrix

  Nuclear Dipole Moment: [e a0]
     X:     4.5413      Y:    -0.6846      Z:     0.0000

  Electronic Dipole Moment: [e a0]
     X:    -3.6120      Y:     0.6353      Z:     0.0000

  Dipole Moment: [e a0]
     X:     0.9293      Y:    -0.0493      Z:     0.0000     Total:     0.9306

  Dipole Moment: [D]
     X:     2.3620      Y:    -0.1254      Z:     0.0000     Total:     2.3653

*** tstop() called on n023 at Tue Mar 15 10:30:06 2022
Module time:
	user time   =      62.53 seconds =       1.04 minutes
	system time =       0.41 seconds =       0.01 minutes
	total time  =         63 seconds =       1.05 minutes
Total time:
	user time   =      62.53 seconds =       1.04 minutes
	system time =       0.41 seconds =       0.01 minutes
	total time  =         63 seconds =       1.05 minutes
Grab this energy -153.188452558114
    Psi4 stopped on: Tuesday, 15 March 2022 10:30AM
    Psi4 wall time for execution: 0:01:02.99

*** Psi4 exiting successfully. Buy a developer a beer!
