                               Psi4 1.4a2.dev629

  ==> Input File <==

--------------------------------------------------------------------------
import os
memory 14 GB

molecule {
 C   -0.2552266573    0.7987334255    0.0000000000
 O   -2.1916336766   -0.3312248674   -0.0000000000
 C    2.4064074657   -0.2451492839    0.0000000000
 H    2.3800368334   -2.3091934535   -0.0000000000
 H    3.3925270085    0.4705999136   -1.6635025871
 H    3.3925270085    0.4705999136    1.6635025871
units bohr
0 2
}

basis {

assign 6-31g_2dfp_

[ 6-31g_2dfp_ ]

spherical

!----------------------------------------------------------------------
! Basis Set Exchange
! Version v0.8.13
! https://www.basissetexchange.org
!----------------------------------------------------------------------
!   Basis set: 6-31G(2df,p)
! Description: 6-31G(2df,p)
!        Role: orbital
!     Version: 0  (Data from the original Basis Set Exchange)
!----------------------------------------------------------------------

****
H     0
S    3   1.00
     18.7311370              0.03349460
      2.8253937              0.23472695
      0.6401217              0.81375733
S    1   1.00
      0.1612778              1.00000000
P    1   1.00
      1.5000000              1.0000000
P    1   1.00
      0.3750000              1.0000000
****
B     0
S    6   1.00
   2068.8823000              0.0018663
    310.6495700              0.0142515
     70.6830330              0.0695516
     19.8610800              0.2325729
      6.2993048              0.4670787
      2.1270270              0.3634314
SP   3   1.00
      4.7279710             -0.1303938              0.0745976
      1.1903377             -0.1307889              0.3078467
      0.3594117              1.1309444              0.7434568
SP   1   1.00
      0.1267512              1.0000000              1.0000000
D    1   1.00
      0.8020000              1.0000000
D    1   1.00
      0.2005000              1.0000000
F    1   1.00
      0.5000000              1.0000000
****
C     0
S    6   1.00
   3047.5249000              0.0018347
    457.3695100              0.0140373
    103.9486900              0.0688426
     29.2101550              0.2321844
      9.2866630              0.4679413
      3.1639270              0.3623120
SP   3   1.00
      7.8682724             -0.1193324              0.0689991
      1.8812885             -0.1608542              0.3164240
      0.5442493              1.1434564              0.7443083
SP   1   1.00
      0.1687144              1.0000000              1.0000000
D    1   1.00
      1.2520000              1.0000000
D    1   1.00
      0.3130000              1.0000000
F    1   1.00
      0.8000000              1.0000000
****
N     0
S    6   1.00
   4173.5110000              0.0018348
    627.4579000              0.0139950
    142.9021000              0.0685870
     40.2343300              0.2322410
     12.8202100              0.4690700
      4.3904370              0.3604550
SP   3   1.00
     11.6263580             -0.1149610              0.0675800
      2.7162800             -0.1691180              0.3239070
      0.7722180              1.1458520              0.7408950
SP   1   1.00
      0.2120313              1.0000000              1.0000000
D    1   1.00
      1.8260000              1.0000000
D    1   1.00
      0.4565000              1.0000000
F    1   1.00
      1.0000000              1.0000000
****
O     0
S    6   1.00
   5484.6717000              0.0018311
    825.2349500              0.0139501
    188.0469600              0.0684451
     52.9645000              0.2327143
     16.8975700              0.4701930
      5.7996353              0.3585209
SP   3   1.00
     15.5396160             -0.1107775              0.0708743
      3.5999336             -0.1480263              0.3397528
      1.0137618              1.1307670              0.7271586
SP   1   1.00
      0.2700058              1.0000000              1.0000000
D    1   1.00
      2.5840000              1.0000000
D    1   1.00
      0.6460000              1.0000000
F    1   1.00
      1.4000000              1.0000000
****
F     0
S    6   1.00
   7001.7130900              0.0018196169
   1051.3660900              0.0139160796
    239.2856900              0.0684053245
     67.3974453              0.233185760
     21.5199573              0.471267439
      7.40310130             0.356618546
SP   3   1.00
     20.8479528             -0.108506975            0.0716287243
      4.80830834            -0.146451658            0.3459121030
      1.34406986             1.128688580            0.7224699570
SP   1   1.00
      0.358151393            1.0000000              1.0000000
D    1   1.00
      3.5000000              1.0000000
D    1   1.00
      0.8750000              1.0000000
F    1   1.00
      1.8500000              1.0000000
****
Al     0
S    6   1.00
  13983.1000000              0.00194267
   2098.7500000              0.0148599
    477.7050000              0.0728494
    134.3600000              0.2468300
     42.8709000              0.4872580
     14.5189000              0.3234960
SP   6   1.00
    239.6680000             -0.00292619             0.00460285
     57.4419000             -0.0374080              0.0331990
     18.2859000             -0.1144870              0.1362820
      6.5991400              0.1156350              0.3304760
      2.4904900              0.6125950              0.4491460
      0.9445400              0.3937990              0.2657040
SP   3   1.00
      1.2779000             -0.2276060             -0.0175130
      0.3975900              0.00144583             0.2445330
      0.1600950              1.0927900              0.8049340
SP   1   1.00
      0.0556577              1.0000000              1.0000000
D    1   1.00
      0.6500000              1.0000000
D    1   1.00
      0.1625000              1.0000000
F    1   1.00
      0.2500000              1.0000000
****
Si     0
S    6   1.00
  16115.9000000              0.00195948
   2425.5800000              0.01492880
    553.8670000              0.07284780
    156.3400000              0.24613000
     50.0683000              0.48591400
     17.0178000              0.32500200
SP   6   1.00
    292.7180000             -0.00278094             0.00443826
     69.8731000             -0.03571460             0.03266790
     22.3363000             -0.11498500             0.13472100
      8.1503900              0.09356340             0.32867800
      3.1345800              0.60301700             0.44964000
      1.2254300              0.41895900             0.26137200
SP   3   1.00
      1.7273800             -0.24463000            -0.01779510
      0.5729220              0.00431572             0.25353900
      0.2221920              1.09818000             0.80066900
SP   1   1.00
      0.0778369              1.00000000             1.00000000
D    1   1.00
      0.9000000              1.0000000
D    1   1.00
      0.2250000              1.0000000
F    1   1.00
      0.3200000              1.0000000
****
P     0
S    6   1.00
  19413.3000000              0.0018516
   2909.4200000              0.0142062
    661.3640000              0.0699995
    185.7590000              0.2400790
     59.1943000              0.4847620
     20.0310000              0.3352000
SP   6   1.00
    339.4780000             -0.00278217             0.00456462
     81.0101000             -0.0360499              0.03369360
     25.8780000             -0.1166310              0.13975500
      9.4522100              0.0968328              0.33936200
      3.6656600              0.6144180              0.45092100
      1.4674600              0.4037980              0.23858600
SP   3   1.00
      2.1562300             -0.2529230             -0.01776530
      0.7489970              0.0328517              0.27405800
      0.2831450              1.0812500              0.78542100
SP   1   1.00
      0.0998317              1.0000000              1.00000000
D    1   1.00
      1.1000000              1.0000000
D    1   1.00
      0.2750000              1.0000000
F    1   1.00
      0.4500000              1.0000000
****
S     0
S    6   1.00
  21917.1000000              0.0018690
   3301.4900000              0.0142300
    754.1460000              0.0696960
    212.7110000              0.2384870
     67.9896000              0.4833070
     23.0515000              0.3380740
SP   6   1.00
    423.7350000             -0.0023767              0.0040610
    100.7100000             -0.0316930              0.0306810
     32.1599000             -0.1133170              0.1304520
     11.8079000              0.0560900              0.3272050
      4.6311000              0.5922550              0.4528510
      1.8702500              0.4550060              0.2560420
SP   3   1.00
      2.6158400             -0.2503740             -0.0145110
      0.9221670              0.0669570              0.3102630
      0.3412870              1.0545100              0.7544830
SP   1   1.00
      0.1171670              1.0000000              1.0000000
D    1   1.00
      1.3000000              1.0000000
D    1   1.00
      0.3250000              1.0000000
F    1   1.00
      0.5500000              1.0000000
****
Cl     0
S    6   1.00
  25180.1000000              0.0018330
   3780.3500000              0.0140340
    860.4740000              0.0690970
    242.1450000              0.2374520
     77.3349000              0.4830340
     26.2470000              0.3398560
SP   6   1.00
    491.7650000             -0.0022974              0.0039894
    116.9840000             -0.0307140              0.0303180
     37.4153000             -0.1125280              0.1298800
     13.7834000              0.0450160              0.3279510
      5.4521500              0.5893530              0.4535270
      2.2258800              0.4652060              0.2521540
SP   3   1.00
      3.1864900             -0.2518300             -0.0142990
      1.1442700              0.0615890              0.3235720
      0.4203770              1.0601800              0.7435070
SP   1   1.00
      0.1426570              1.0000000              1.0000000
D    1   1.00
      1.5000000              1.0000000
D    1   1.00
      0.3750000              1.0000000
F    1   1.00
      0.7000000              1.0000000
****
}

set {
reference uhf
freeze_core true
e_convergence 10
d_convergence 10
dft_spherical_points 1202
dft_radial_points 99
}

e = energy('b3lyp')

print_out('Grab this energy {0}'.format(e))
--------------------------------------------------------------------------

    Molecular point group: cs

    Geometry (in Bohr), charge = 0, multiplicity = 2:

       Center              X                  Y                   Z               Mass
    ------------   -----------------  -----------------  -----------------  -----------------
         C           -0.255133305314     0.799514533196     0.000000000000    12.000000000000
         O           -2.191540324614    -0.330443759704     0.000000000000    15.994914619570
         C            2.406500817686    -0.244368176204     0.000000000000    12.000000000000
         H            2.380130185386    -2.308412345804     0.000000000000     1.007825032230
         H            3.392620360486     0.471381021296    -1.663502587100     1.007825032230
         H            3.392620360486     0.471381021296     1.663502587100     1.007825032230

  Charge       = 0
  Multiplicity = 2
  Basis Set: ANONYMOUSA40909D3
    Blend: 6-31G_2DFP_
  Basis Set: (ANONYMOUSA40909D3 AUX)
    Blend: DEF2-UNIVERSAL-JKFIT

    Orbital Energies [Eh]
    ---------------------

    Alpha Occupied:

       1Ap   -19.186595     2Ap   -10.271152     3Ap   -10.210504
       4Ap    -1.081180     5Ap    -0.762730     6Ap    -0.543948
       7Ap    -0.466991     8Ap    -0.457671     1App   -0.456286
       2App   -0.387120     9Ap    -0.386076    10Ap    -0.191403

    Alpha Virtual:

       3App   -0.018774    11Ap     0.091451    12Ap     0.136678
       4App    0.140947    13Ap     0.219360    14Ap     0.268311
      15Ap     0.427931     5App    0.431556    16Ap     0.444212
       6App    0.493714    17Ap     0.506069    18Ap     0.530114
       7App    0.562284    19Ap     0.577230    20Ap     0.609514
       8App    0.616417    21Ap     0.644348    22Ap     0.717561
       9App    0.765602    23Ap     0.785336    10App    0.831944
      11App    0.917497    24Ap     0.927236    25Ap     0.935661
      12App    1.023975    26Ap     1.084817    27Ap     1.108384
      13App    1.154019    28Ap     1.222878    29Ap     1.307874
      14App    1.316386    30Ap     1.328528    31Ap     1.403025
      15App    1.407104    32Ap     1.469004    33Ap     1.560758
      34Ap     1.632316    16App    1.654164    35Ap     1.719202
      17App    1.812858    36Ap     1.835555    37Ap     1.901941
      18App    2.066623    38Ap     2.169561    39Ap     2.495655
      19App    2.680716    40Ap     2.745670    41Ap     2.784058
      20App    2.841269    21App    2.893787    42Ap     2.975235
      43Ap     3.029297    22App    3.058027    23App    3.104265
      44Ap     3.117738    45Ap     3.181129    24App    3.314936
      46Ap     3.368597    25App    3.391959    26App    3.441877
      27App    3.467202    47Ap     3.485651    48Ap     3.568002
      49Ap     3.741404    50Ap     3.767284    51Ap     3.944981
      28App    3.984841    52Ap     4.059471    53Ap     4.113132
      29App    4.118676    54Ap     4.190748    30App    4.385894
      55Ap     4.437373    31App    4.449393    56Ap     4.535818
      57Ap     4.916761    58Ap     5.037072    32App    5.042617
      33App    5.196861    59Ap     5.206183    60Ap     5.474739
      34App    5.484450    61Ap     5.827929    35App    5.931792
      62Ap     6.107388    63Ap     6.771149    36App    6.773336
      37App    7.072197    64Ap     7.135254    65Ap     7.530715

    Beta Occupied:

       1Ap   -19.178537     2Ap   -10.261062     3Ap   -10.207172
       4Ap    -1.065256     5Ap    -0.750947     6Ap    -0.524316
       1App   -0.451729     7Ap    -0.447193     8Ap    -0.439379
       2App   -0.381978     9Ap    -0.347835

    Beta Virtual:

      10Ap    -0.051761     3App   -0.002530    11Ap     0.094142
      12Ap     0.142464     4App    0.144104    13Ap     0.229555
      14Ap     0.273981     5App    0.433539    15Ap     0.434604
      16Ap     0.466769     6App    0.500420    17Ap     0.527303
      18Ap     0.539104     7App    0.568509    19Ap     0.581454
       8App    0.623732    20Ap     0.628079    21Ap     0.650197
      22Ap     0.739680     9App    0.776762    23Ap     0.795315
      10App    0.832752    11App    0.922352    24Ap     0.943202
      25Ap     0.951306    12App    1.028166    26Ap     1.090939
      27Ap     1.110429    13App    1.160169    28Ap     1.232147
      29Ap     1.313460    14App    1.319188    30Ap     1.335305
      15App    1.412566    31Ap     1.413434    32Ap     1.481309
      33Ap     1.571767    34Ap     1.645660    16App    1.668527
      35Ap     1.725499    17App    1.816091    36Ap     1.849763
      37Ap     1.908621    18App    2.073334    38Ap     2.191017
      39Ap     2.508312    19App    2.694948    40Ap     2.760192
      41Ap     2.805137    20App    2.856794    21App    2.895435
      42Ap     2.984670    43Ap     3.046108    22App    3.066608
      23App    3.123059    44Ap     3.126147    45Ap     3.215915
      24App    3.358588    46Ap     3.380073    25App    3.398105
      26App    3.449595    27App    3.483295    47Ap     3.508493
      48Ap     3.581440    49Ap     3.767258    50Ap     3.776536
      51Ap     3.953638    28App    3.994073    52Ap     4.075687
      29App    4.121517    53Ap     4.127351    54Ap     4.202848
      30App    4.388075    55Ap     4.443607    31App    4.453682
      56Ap     4.546798    57Ap     4.920583    58Ap     5.054565
      32App    5.060591    33App    5.199033    59Ap     5.211993
      60Ap     5.487379    34App    5.498329    61Ap     5.841187
      35App    5.937386    62Ap     6.130585    63Ap     6.800381
      36App    6.802915    37App    7.076499    64Ap     7.164611
      65Ap     7.542373

    Final Occupation by Irrep:
             Ap   App
    DOCC [     9,    2 ]
    SOCC [     1,    0 ]

  @DF-UKS Final Energy:  -153.18845527644180

   => Energetics <=

    Nuclear Repulsion Energy =             62.8368256506387866
    One-Electron Energy =                -331.6728288293357991
    Two-Electron Energy =                 132.2288348865200476
    DFT Exchange-Correlation Energy =     -16.5812869842648212
    Empirical Dispersion Energy =           0.0000000000000000
    VV10 Nonlocal Energy =                  0.0000000000000000
    Total Energy =                       -153.1884552764418004

  UHF NO Occupations:
  HONO-2 :    8 Ap 1.9997904
  HONO-1 :    9 Ap 1.9992019
  HONO-0 :   10 Ap 1.0000000
  LUNO+0 :   11 Ap 0.0007981
  LUNO+1 :   12 Ap 0.0002096
  LUNO+2 :    3App 0.0001814
  LUNO+3 :   13 Ap 0.0000614

Computation Completed

Properties will be evaluated at   0.000000,   0.000000,   0.000000 [a0]

Properties computed using the SCF density matrix

  Nuclear Dipole Moment: [e a0]
     X:     4.5413      Y:    -0.6783      Z:     0.0000

  Electronic Dipole Moment: [e a0]
     X:    -3.6057      Y:     0.6279      Z:     0.0000

  Dipole Moment: [e a0]
     X:     0.9355      Y:    -0.0504      Z:     0.0000     Total:     0.9369

  Dipole Moment: [D]
     X:     2.3779      Y:    -0.1281      Z:     0.0000     Total:     2.3813

*** tstop() called on n036 at Tue Mar 15 10:26:21 2022
Module time:
	user time   =      62.34 seconds =       1.04 minutes
	system time =       0.43 seconds =       0.01 minutes
	total time  =         63 seconds =       1.05 minutes
Total time:
	user time   =      62.34 seconds =       1.04 minutes
	system time =       0.43 seconds =       0.01 minutes
	total time  =         63 seconds =       1.05 minutes
Grab this energy -153.1884552764418
    Psi4 stopped on: Tuesday, 15 March 2022 10:26AM
    Psi4 wall time for execution: 0:01:02.81

*** Psi4 exiting successfully. Buy a developer a beer!
