                               Psi4 1.4a2.dev629

  ==> Input File <==

--------------------------------------------------------------------------
import os
memory 14 GB

molecule {
 C   -0.2569123327    0.7982403903    0.0009919660
 O   -2.1910332892   -0.3349820286   -0.0002699100
 C    2.4094710853   -0.2413775571   -0.0025998760
 H    2.3831599419   -2.3050231891    0.0010209052
 H    3.3911336179    0.4767676181   -1.6632952226
 H    3.3907789267    0.4765093864    1.6641519574
units bohr
0 2
}

basis {

assign 6-31g_2dfp_

[ 6-31g_2dfp_ ]

spherical

!----------------------------------------------------------------------
! Basis Set Exchange
! Version v0.8.13
! https://www.basissetexchange.org
!----------------------------------------------------------------------
!   Basis set: 6-31G(2df,p)
! Description: 6-31G(2df,p)
!        Role: orbital
!     Version: 0  (Data from the original Basis Set Exchange)
!----------------------------------------------------------------------

****
H     0
S    3   1.00
     18.7311370              0.03349460
      2.8253937              0.23472695
      0.6401217              0.81375733
S    1   1.00
      0.1612778              1.00000000
P    1   1.00
      1.5000000              1.0000000
P    1   1.00
      0.3750000              1.0000000
****
B     0
S    6   1.00
   2068.8823000              0.0018663
    310.6495700              0.0142515
     70.6830330              0.0695516
     19.8610800              0.2325729
      6.2993048              0.4670787
      2.1270270              0.3634314
SP   3   1.00
      4.7279710             -0.1303938              0.0745976
      1.1903377             -0.1307889              0.3078467
      0.3594117              1.1309444              0.7434568
SP   1   1.00
      0.1267512              1.0000000              1.0000000
D    1   1.00
      0.8020000              1.0000000
D    1   1.00
      0.2005000              1.0000000
F    1   1.00
      0.5000000              1.0000000
****
C     0
S    6   1.00
   3047.5249000              0.0018347
    457.3695100              0.0140373
    103.9486900              0.0688426
     29.2101550              0.2321844
      9.2866630              0.4679413
      3.1639270              0.3623120
SP   3   1.00
      7.8682724             -0.1193324              0.0689991
      1.8812885             -0.1608542              0.3164240
      0.5442493              1.1434564              0.7443083
SP   1   1.00
      0.1687144              1.0000000              1.0000000
D    1   1.00
      1.2520000              1.0000000
D    1   1.00
      0.3130000              1.0000000
F    1   1.00
      0.8000000              1.0000000
****
N     0
S    6   1.00
   4173.5110000              0.0018348
    627.4579000              0.0139950
    142.9021000              0.0685870
     40.2343300              0.2322410
     12.8202100              0.4690700
      4.3904370              0.3604550
SP   3   1.00
     11.6263580             -0.1149610              0.0675800
      2.7162800             -0.1691180              0.3239070
      0.7722180              1.1458520              0.7408950
SP   1   1.00
      0.2120313              1.0000000              1.0000000
D    1   1.00
      1.8260000              1.0000000
D    1   1.00
      0.4565000              1.0000000
F    1   1.00
      1.0000000              1.0000000
****
O     0
S    6   1.00
   5484.6717000              0.0018311
    825.2349500              0.0139501
    188.0469600              0.0684451
     52.9645000              0.2327143
     16.8975700              0.4701930
      5.7996353              0.3585209
SP   3   1.00
     15.5396160             -0.1107775              0.0708743
      3.5999336             -0.1480263              0.3397528
      1.0137618              1.1307670              0.7271586
SP   1   1.00
      0.2700058              1.0000000              1.0000000
D    1   1.00
      2.5840000              1.0000000
D    1   1.00
      0.6460000              1.0000000
F    1   1.00
      1.4000000              1.0000000
****
F     0
S    6   1.00
   7001.7130900              0.0018196169
   1051.3660900              0.0139160796
    239.2856900              0.0684053245
     67.3974453              0.233185760
     21.5199573              0.471267439
      7.40310130             0.356618546
SP   3   1.00
     20.8479528             -0.108506975            0.0716287243
      4.80830834            -0.146451658            0.3459121030
      1.34406986             1.128688580            0.7224699570
SP   1   1.00
      0.358151393            1.0000000              1.0000000
D    1   1.00
      3.5000000              1.0000000
D    1   1.00
      0.8750000              1.0000000
F    1   1.00
      1.8500000              1.0000000
****
Al     0
S    6   1.00
  13983.1000000              0.00194267
   2098.7500000              0.0148599
    477.7050000              0.0728494
    134.3600000              0.2468300
     42.8709000              0.4872580
     14.5189000              0.3234960
SP   6   1.00
    239.6680000             -0.00292619             0.00460285
     57.4419000             -0.0374080              0.0331990
     18.2859000             -0.1144870              0.1362820
      6.5991400              0.1156350              0.3304760
      2.4904900              0.6125950              0.4491460
      0.9445400              0.3937990              0.2657040
SP   3   1.00
      1.2779000             -0.2276060             -0.0175130
      0.3975900              0.00144583             0.2445330
      0.1600950              1.0927900              0.8049340
SP   1   1.00
      0.0556577              1.0000000              1.0000000
D    1   1.00
      0.6500000              1.0000000
D    1   1.00
      0.1625000              1.0000000
F    1   1.00
      0.2500000              1.0000000
****
Si     0
S    6   1.00
  16115.9000000              0.00195948
   2425.5800000              0.01492880
    553.8670000              0.07284780
    156.3400000              0.24613000
     50.0683000              0.48591400
     17.0178000              0.32500200
SP   6   1.00
    292.7180000             -0.00278094             0.00443826
     69.8731000             -0.03571460             0.03266790
     22.3363000             -0.11498500             0.13472100
      8.1503900              0.09356340             0.32867800
      3.1345800              0.60301700             0.44964000
      1.2254300              0.41895900             0.26137200
SP   3   1.00
      1.7273800             -0.24463000            -0.01779510
      0.5729220              0.00431572             0.25353900
      0.2221920              1.09818000             0.80066900
SP   1   1.00
      0.0778369              1.00000000             1.00000000
D    1   1.00
      0.9000000              1.0000000
D    1   1.00
      0.2250000              1.0000000
F    1   1.00
      0.3200000              1.0000000
****
P     0
S    6   1.00
  19413.3000000              0.0018516
   2909.4200000              0.0142062
    661.3640000              0.0699995
    185.7590000              0.2400790
     59.1943000              0.4847620
     20.0310000              0.3352000
SP   6   1.00
    339.4780000             -0.00278217             0.00456462
     81.0101000             -0.0360499              0.03369360
     25.8780000             -0.1166310              0.13975500
      9.4522100              0.0968328              0.33936200
      3.6656600              0.6144180              0.45092100
      1.4674600              0.4037980              0.23858600
SP   3   1.00
      2.1562300             -0.2529230             -0.01776530
      0.7489970              0.0328517              0.27405800
      0.2831450              1.0812500              0.78542100
SP   1   1.00
      0.0998317              1.0000000              1.00000000
D    1   1.00
      1.1000000              1.0000000
D    1   1.00
      0.2750000              1.0000000
F    1   1.00
      0.4500000              1.0000000
****
S     0
S    6   1.00
  21917.1000000              0.0018690
   3301.4900000              0.0142300
    754.1460000              0.0696960
    212.7110000              0.2384870
     67.9896000              0.4833070
     23.0515000              0.3380740
SP   6   1.00
    423.7350000             -0.0023767              0.0040610
    100.7100000             -0.0316930              0.0306810
     32.1599000             -0.1133170              0.1304520
     11.8079000              0.0560900              0.3272050
      4.6311000              0.5922550              0.4528510
      1.8702500              0.4550060              0.2560420
SP   3   1.00
      2.6158400             -0.2503740             -0.0145110
      0.9221670              0.0669570              0.3102630
      0.3412870              1.0545100              0.7544830
SP   1   1.00
      0.1171670              1.0000000              1.0000000
D    1   1.00
      1.3000000              1.0000000
D    1   1.00
      0.3250000              1.0000000
F    1   1.00
      0.5500000              1.0000000
****
Cl     0
S    6   1.00
  25180.1000000              0.0018330
   3780.3500000              0.0140340
    860.4740000              0.0690970
    242.1450000              0.2374520
     77.3349000              0.4830340
     26.2470000              0.3398560
SP   6   1.00
    491.7650000             -0.0022974              0.0039894
    116.9840000             -0.0307140              0.0303180
     37.4153000             -0.1125280              0.1298800
     13.7834000              0.0450160              0.3279510
      5.4521500              0.5893530              0.4535270
      2.2258800              0.4652060              0.2521540
SP   3   1.00
      3.1864900             -0.2518300             -0.0142990
      1.1442700              0.0615890              0.3235720
      0.4203770              1.0601800              0.7435070
SP   1   1.00
      0.1426570              1.0000000              1.0000000
D    1   1.00
      1.5000000              1.0000000
D    1   1.00
      0.3750000              1.0000000
F    1   1.00
      0.7000000              1.0000000
****
}

set {
reference uhf
freeze_core true
e_convergence 10
d_convergence 10
dft_spherical_points 1202
dft_radial_points 99
}

e = energy('b3lyp')

print_out('Grab this energy {0}'.format(e))
--------------------------------------------------------------------------

    Molecular point group: c1

    Geometry (in Bohr), charge = 0, multiplicity = 2:

       Center              X                  Y                   Z               Mass
    ------------   -----------------  -----------------  -----------------  -----------------
         C           -0.257426162159     0.799123235764     0.001496861115    12.000000000000
         O           -2.191547118659    -0.334099183136     0.000234985115    15.994914619570
         C            2.408957255841    -0.240494711636    -0.002094980885    12.000000000000
         H            2.382646112441    -2.304140343636     0.001525800315     1.007825032230
         H            3.390619788441     0.477650463564    -1.662790327485     1.007825032230
         H            3.390265097241     0.477392231864     1.664656852515     1.007825032230

  Charge       = 0
  Multiplicity = 2
  Basis Set: ANONYMOUS0EF43665
    Blend: 6-31G_2DFP_
  Basis Set: (ANONYMOUS0EF43665 AUX)
    Blend: DEF2-UNIVERSAL-JKFIT

    Orbital Energies [Eh]
    ---------------------

    Alpha Occupied:

       1A    -19.186623     2A    -10.271172     3A    -10.210444
       4A     -1.081271     5A     -0.762587     6A     -0.543802
       7A     -0.466986     8A     -0.457516     9A     -0.456393
      10A     -0.387337    11A     -0.386191    12A     -0.191312

    Alpha Virtual:

      13A     -0.018669    14A      0.091536    15A      0.136755
      16A      0.141086    17A      0.218796    18A      0.268248
      19A      0.427876    20A      0.431508    21A      0.444099
      22A      0.493765    23A      0.506172    24A      0.530282
      25A      0.562676    26A      0.577391    27A      0.609495
      28A      0.616400    29A      0.644251    30A      0.717616
      31A      0.765669    32A      0.785377    33A      0.831857
      34A      0.917471    35A      0.927246    36A      0.935659
      37A      1.024055    38A      1.084770    39A      1.107623
      40A      1.154063    41A      1.222933    42A      1.307349
      43A      1.315975    44A      1.328088    45A      1.403282
      46A      1.408397    47A      1.469233    48A      1.560566
      49A      1.632388    50A      1.654257    51A      1.720243
      52A      1.813006    53A      1.835325    54A      1.900970
      55A      2.066894    56A      2.169634    57A      2.495841
      58A      2.680766    59A      2.745221    60A      2.784375
      61A      2.841477    62A      2.893919    63A      2.975046
      64A      3.029415    65A      3.057999    66A      3.104245
      67A      3.116973    68A      3.181088    69A      3.314561
      70A      3.369049    71A      3.391855    72A      3.442026
      73A      3.466884    74A      3.485451    75A      3.569456
      76A      3.741465    77A      3.765616    78A      3.943838
      79A      3.984893    80A      4.058893    81A      4.112791
      82A      4.118012    83A      4.189813    84A      4.388176
      85A      4.437579    86A      4.450011    87A      4.533871
      88A      4.919206    89A      5.037125    90A      5.042572
      91A      5.197632    92A      5.206153    93A      5.474847
      94A      5.484296    95A      5.827757    96A      5.931947
      97A      6.107067    98A      6.771092    99A      6.773296
     100A      7.071951   101A      7.135180   102A      7.530723

    Beta Occupied:

       1A    -19.178573     2A    -10.261087     3A    -10.207100
       4A     -1.065364     5A     -0.750803     6A     -0.524151
       7A     -0.451864     8A     -0.447185     9A     -0.439238
      10A     -0.382165    11A     -0.347966

    Beta Virtual:

      12A     -0.051725    13A     -0.002418    14A      0.094239
      15A      0.142482    16A      0.144241    17A      0.229071
      18A      0.273919    19A      0.433497    20A      0.434681
      21A      0.466476    22A      0.500468    23A      0.527453
      24A      0.539325    25A      0.568940    26A      0.581607
      27A      0.623689    28A      0.628016    29A      0.650096
      30A      0.739741    31A      0.776836    32A      0.795348
      33A      0.832659    34A      0.922324    35A      0.943226
      36A      0.951281    37A      1.028250    38A      1.090950
      39A      1.109659    40A      1.160215    41A      1.232218
      42A      1.312901    43A      1.318763    44A      1.334861
      45A      1.412603    46A      1.414926    47A      1.481505
      48A      1.571597    49A      1.645772    50A      1.668611
      51A      1.726533    52A      1.816233    53A      1.849496
      54A      1.907632    55A      2.073604    56A      2.191067
      57A      2.508501    58A      2.695016    59A      2.759735
      60A      2.805456    61A      2.857003    62A      2.895559
      63A      2.984436    64A      3.046318    65A      3.066625
      66A      3.122832    67A      3.125527    68A      3.215871
      69A      3.358179    70A      3.380560    71A      3.398111
      72A      3.449865    73A      3.482849    74A      3.508411
      75A      3.582755    76A      3.767330    77A      3.774879
      78A      3.952506    79A      3.994144    80A      4.075105
      81A      4.120771    82A      4.126960    83A      4.202036
      84A      4.390420    85A      4.443794    86A      4.454230
      87A      4.544798    88A      4.923063    89A      5.054590
      90A      5.060526    91A      5.199796    92A      5.211932
      93A      5.487476    94A      5.498168    95A      5.841003
      96A      5.937537    97A      6.130240    98A      6.800293
      99A      6.802842   100A      7.076247   101A      7.164505
     102A      7.542371

    Final Occupation by Irrep:
              A
    DOCC [    11 ]
    SOCC [     1 ]

  @DF-UKS Final Energy:  -153.18844330818672

   => Energetics <=

    Nuclear Repulsion Energy =             62.8263474509704665
    One-Electron Energy =                -331.6516925416658523
    Two-Electron Energy =                 132.2183006938592769
    DFT Exchange-Correlation Energy =     -16.5813989113506040
    Empirical Dispersion Energy =           0.0000000000000000
    VV10 Nonlocal Energy =                  0.0000000000000000
    Total Energy =                       -153.1884433081867201

  UHF NO Occupations:
  HONO-2 :   10  A 1.9997888
  HONO-1 :   11  A 1.9992034
  HONO-0 :   12  A 1.0000000
  LUNO+0 :   13  A 0.0007966
  LUNO+1 :   14  A 0.0002112
  LUNO+2 :   15  A 0.0001813
  LUNO+3 :   16  A 0.0000613

Computation Completed

Properties will be evaluated at   0.000000,   0.000000,   0.000000 [a0]

Properties computed using the SCF density matrix

  Nuclear Dipole Moment: [e a0]
     X:     4.5403      Y:    -0.6701      Z:     0.0017

  Electronic Dipole Moment: [e a0]
     X:    -3.6058      Y:     0.6212      Z:    -0.0020

  Dipole Moment: [e a0]
     X:     0.9346      Y:    -0.0489      Z:    -0.0004     Total:     0.9359

  Dipole Moment: [D]
     X:     2.3754      Y:    -0.1243      Z:    -0.0009     Total:     2.3787

*** tstop() called on n089 at Thu Nov  4 14:48:47 2021
Module time:
	user time   =      44.58 seconds =       0.74 minutes
	system time =       0.50 seconds =       0.01 minutes
	total time  =         45 seconds =       0.75 minutes
Total time:
	user time   =      44.58 seconds =       0.74 minutes
	system time =       0.50 seconds =       0.01 minutes
	total time  =         45 seconds =       0.75 minutes
Grab this energy -153.18844330818672
    Psi4 stopped on: Thursday, 04 November 2021 02:48PM
    Psi4 wall time for execution: 0:00:45.13

*** Psi4 exiting successfully. Buy a developer a beer!
