                               Psi4 1.4a2.dev629

  ==> Input File <==

--------------------------------------------------------------------------
import os
memory 14 GB

molecule {
 C   -0.2541972804    0.8056337248   -0.0000000000
 O   -2.1942480309   -0.3347015372   -0.0000000000
 C    2.4102947785   -0.2421519083    0.0000000000
 H    2.3828393065   -2.3097869505   -0.0000000000
 H    3.3899746043    0.4676861595   -1.6647932340
 H    3.3899746043    0.4676861595    1.6647932340
units bohr
0 2
}

basis {

assign 6-31g_2dfp_

[ 6-31g_2dfp_ ]

spherical

!----------------------------------------------------------------------
! Basis Set Exchange
! Version v0.8.13
! https://www.basissetexchange.org
!----------------------------------------------------------------------
!   Basis set: 6-31G(2df,p)
! Description: 6-31G(2df,p)
!        Role: orbital
!     Version: 0  (Data from the original Basis Set Exchange)
!----------------------------------------------------------------------

****
H     0
S    3   1.00
     18.7311370              0.03349460
      2.8253937              0.23472695
      0.6401217              0.81375733
S    1   1.00
      0.1612778              1.00000000
P    1   1.00
      1.5000000              1.0000000
P    1   1.00
      0.3750000              1.0000000
****
B     0
S    6   1.00
   2068.8823000              0.0018663
    310.6495700              0.0142515
     70.6830330              0.0695516
     19.8610800              0.2325729
      6.2993048              0.4670787
      2.1270270              0.3634314
SP   3   1.00
      4.7279710             -0.1303938              0.0745976
      1.1903377             -0.1307889              0.3078467
      0.3594117              1.1309444              0.7434568
SP   1   1.00
      0.1267512              1.0000000              1.0000000
D    1   1.00
      0.8020000              1.0000000
D    1   1.00
      0.2005000              1.0000000
F    1   1.00
      0.5000000              1.0000000
****
C     0
S    6   1.00
   3047.5249000              0.0018347
    457.3695100              0.0140373
    103.9486900              0.0688426
     29.2101550              0.2321844
      9.2866630              0.4679413
      3.1639270              0.3623120
SP   3   1.00
      7.8682724             -0.1193324              0.0689991
      1.8812885             -0.1608542              0.3164240
      0.5442493              1.1434564              0.7443083
SP   1   1.00
      0.1687144              1.0000000              1.0000000
D    1   1.00
      1.2520000              1.0000000
D    1   1.00
      0.3130000              1.0000000
F    1   1.00
      0.8000000              1.0000000
****
N     0
S    6   1.00
   4173.5110000              0.0018348
    627.4579000              0.0139950
    142.9021000              0.0685870
     40.2343300              0.2322410
     12.8202100              0.4690700
      4.3904370              0.3604550
SP   3   1.00
     11.6263580             -0.1149610              0.0675800
      2.7162800             -0.1691180              0.3239070
      0.7722180              1.1458520              0.7408950
SP   1   1.00
      0.2120313              1.0000000              1.0000000
D    1   1.00
      1.8260000              1.0000000
D    1   1.00
      0.4565000              1.0000000
F    1   1.00
      1.0000000              1.0000000
****
O     0
S    6   1.00
   5484.6717000              0.0018311
    825.2349500              0.0139501
    188.0469600              0.0684451
     52.9645000              0.2327143
     16.8975700              0.4701930
      5.7996353              0.3585209
SP   3   1.00
     15.5396160             -0.1107775              0.0708743
      3.5999336             -0.1480263              0.3397528
      1.0137618              1.1307670              0.7271586
SP   1   1.00
      0.2700058              1.0000000              1.0000000
D    1   1.00
      2.5840000              1.0000000
D    1   1.00
      0.6460000              1.0000000
F    1   1.00
      1.4000000              1.0000000
****
F     0
S    6   1.00
   7001.7130900              0.0018196169
   1051.3660900              0.0139160796
    239.2856900              0.0684053245
     67.3974453              0.233185760
     21.5199573              0.471267439
      7.40310130             0.356618546
SP   3   1.00
     20.8479528             -0.108506975            0.0716287243
      4.80830834            -0.146451658            0.3459121030
      1.34406986             1.128688580            0.7224699570
SP   1   1.00
      0.358151393            1.0000000              1.0000000
D    1   1.00
      3.5000000              1.0000000
D    1   1.00
      0.8750000              1.0000000
F    1   1.00
      1.8500000              1.0000000
****
Al     0
S    6   1.00
  13983.1000000              0.00194267
   2098.7500000              0.0148599
    477.7050000              0.0728494
    134.3600000              0.2468300
     42.8709000              0.4872580
     14.5189000              0.3234960
SP   6   1.00
    239.6680000             -0.00292619             0.00460285
     57.4419000             -0.0374080              0.0331990
     18.2859000             -0.1144870              0.1362820
      6.5991400              0.1156350              0.3304760
      2.4904900              0.6125950              0.4491460
      0.9445400              0.3937990              0.2657040
SP   3   1.00
      1.2779000             -0.2276060             -0.0175130
      0.3975900              0.00144583             0.2445330
      0.1600950              1.0927900              0.8049340
SP   1   1.00
      0.0556577              1.0000000              1.0000000
D    1   1.00
      0.6500000              1.0000000
D    1   1.00
      0.1625000              1.0000000
F    1   1.00
      0.2500000              1.0000000
****
Si     0
S    6   1.00
  16115.9000000              0.00195948
   2425.5800000              0.01492880
    553.8670000              0.07284780
    156.3400000              0.24613000
     50.0683000              0.48591400
     17.0178000              0.32500200
SP   6   1.00
    292.7180000             -0.00278094             0.00443826
     69.8731000             -0.03571460             0.03266790
     22.3363000             -0.11498500             0.13472100
      8.1503900              0.09356340             0.32867800
      3.1345800              0.60301700             0.44964000
      1.2254300              0.41895900             0.26137200
SP   3   1.00
      1.7273800             -0.24463000            -0.01779510
      0.5729220              0.00431572             0.25353900
      0.2221920              1.09818000             0.80066900
SP   1   1.00
      0.0778369              1.00000000             1.00000000
D    1   1.00
      0.9000000              1.0000000
D    1   1.00
      0.2250000              1.0000000
F    1   1.00
      0.3200000              1.0000000
****
P     0
S    6   1.00
  19413.3000000              0.0018516
   2909.4200000              0.0142062
    661.3640000              0.0699995
    185.7590000              0.2400790
     59.1943000              0.4847620
     20.0310000              0.3352000
SP   6   1.00
    339.4780000             -0.00278217             0.00456462
     81.0101000             -0.0360499              0.03369360
     25.8780000             -0.1166310              0.13975500
      9.4522100              0.0968328              0.33936200
      3.6656600              0.6144180              0.45092100
      1.4674600              0.4037980              0.23858600
SP   3   1.00
      2.1562300             -0.2529230             -0.01776530
      0.7489970              0.0328517              0.27405800
      0.2831450              1.0812500              0.78542100
SP   1   1.00
      0.0998317              1.0000000              1.00000000
D    1   1.00
      1.1000000              1.0000000
D    1   1.00
      0.2750000              1.0000000
F    1   1.00
      0.4500000              1.0000000
****
S     0
S    6   1.00
  21917.1000000              0.0018690
   3301.4900000              0.0142300
    754.1460000              0.0696960
    212.7110000              0.2384870
     67.9896000              0.4833070
     23.0515000              0.3380740
SP   6   1.00
    423.7350000             -0.0023767              0.0040610
    100.7100000             -0.0316930              0.0306810
     32.1599000             -0.1133170              0.1304520
     11.8079000              0.0560900              0.3272050
      4.6311000              0.5922550              0.4528510
      1.8702500              0.4550060              0.2560420
SP   3   1.00
      2.6158400             -0.2503740             -0.0145110
      0.9221670              0.0669570              0.3102630
      0.3412870              1.0545100              0.7544830
SP   1   1.00
      0.1171670              1.0000000              1.0000000
D    1   1.00
      1.3000000              1.0000000
D    1   1.00
      0.3250000              1.0000000
F    1   1.00
      0.5500000              1.0000000
****
Cl     0
S    6   1.00
  25180.1000000              0.0018330
   3780.3500000              0.0140340
    860.4740000              0.0690970
    242.1450000              0.2374520
     77.3349000              0.4830340
     26.2470000              0.3398560
SP   6   1.00
    491.7650000             -0.0022974              0.0039894
    116.9840000             -0.0307140              0.0303180
     37.4153000             -0.1125280              0.1298800
     13.7834000              0.0450160              0.3279510
      5.4521500              0.5893530              0.4535270
      2.2258800              0.4652060              0.2521540
SP   3   1.00
      3.1864900             -0.2518300             -0.0142990
      1.1442700              0.0615890              0.3235720
      0.4203770              1.0601800              0.7435070
SP   1   1.00
      0.1426570              1.0000000              1.0000000
D    1   1.00
      1.5000000              1.0000000
D    1   1.00
      0.3750000              1.0000000
F    1   1.00
      0.7000000              1.0000000
****
}

set {
reference uhf
freeze_core true
e_convergence 10
d_convergence 10
dft_spherical_points 1202
dft_radial_points 99
}

e = energy('b3lyp')

print_out('Grab this energy {0}'.format(e))
--------------------------------------------------------------------------

    Molecular point group: cs

    Geometry (in Bohr), charge = 0, multiplicity = 2:

       Center              X                  Y                   Z               Mass
    ------------   -----------------  -----------------  -----------------  -----------------
         C           -0.254449444635     0.805096981856     0.000000000000    12.000000000000
         O           -2.194500195135    -0.335238280144     0.000000000000    15.994914619570
         C            2.410042614265    -0.242688651244     0.000000000000    12.000000000000
         H            2.382587142265    -2.310323693444     0.000000000000     1.007825032230
         H            3.389722440065     0.467149416556    -1.664793234000     1.007825032230
         H            3.389722440065     0.467149416556     1.664793234000     1.007825032230

  Charge       = 0
  Multiplicity = 2
  Basis Set: ANONYMOUSDCAB872D
    Blend: 6-31G_2DFP_
  Basis Set: (ANONYMOUSDCAB872D AUX)
    Blend: DEF2-UNIVERSAL-JKFIT

    Orbital Energies [Eh]
    ---------------------

    Alpha Occupied:

       1Ap   -19.186834     2Ap   -10.272194     3Ap   -10.210675
       4Ap    -1.078891     5Ap    -0.762745     6Ap    -0.544219
       7Ap    -0.465967     8Ap    -0.457085     1App   -0.456631
       2App   -0.386623     9Ap    -0.385201    10Ap    -0.192864

    Alpha Virtual:

       3App   -0.020063    11Ap     0.091595    12Ap     0.136058
       4App    0.141379    13Ap     0.218135    14Ap     0.268061
      15Ap     0.428119     5App    0.431141    16Ap     0.443959
       6App    0.493625    17Ap     0.506133    18Ap     0.529619
       7App    0.563058    19Ap     0.577158    20Ap     0.606106
       8App    0.616298    21Ap     0.643624    22Ap     0.716863
       9App    0.765684    23Ap     0.785035    10App    0.832008
      11App    0.918202    24Ap     0.928241    25Ap     0.936038
      12App    1.022918    26Ap     1.084565    27Ap     1.106527
      13App    1.154081    28Ap     1.223441    29Ap     1.306450
      14App    1.317525    30Ap     1.327435    31Ap     1.402311
      15App    1.406847    32Ap     1.467698    33Ap     1.559691
      34Ap     1.628858    16App    1.652538    35Ap     1.718971
      17App    1.813468    36Ap     1.834013    37Ap     1.900421
      18App    2.064442    38Ap     2.165962    39Ap     2.489453
      19App    2.680886    40Ap     2.744467    41Ap     2.783903
      20App    2.840716    21App    2.894654    42Ap     2.973210
      43Ap     3.029410    22App    3.056874    23App    3.105276
      44Ap     3.116046    45Ap     3.182016    24App    3.314885
      46Ap     3.366568    25App    3.392906    26App    3.439070
      27App    3.466465    47Ap     3.485043    48Ap     3.570542
      49Ap     3.734983    50Ap     3.762412    51Ap     3.944031
      28App    3.984301    52Ap     4.055074    53Ap     4.110518
      29App    4.119571    54Ap     4.188497    30App    4.392918
      55Ap     4.435182    31App    4.446781    56Ap     4.532817
      57Ap     4.919023    58Ap     5.037030    32App    5.042067
      33App    5.198436    59Ap     5.205959    60Ap     5.468002
      34App    5.477133    61Ap     5.828036    35App    5.924047
      62Ap     6.099736    63Ap     6.770354    36App    6.772424
      37App    7.072159    64Ap     7.134836    65Ap     7.527057

    Beta Occupied:

       1Ap   -19.178754     2Ap   -10.262100     3Ap   -10.207347
       4Ap    -1.062878     5Ap    -0.750990     6Ap    -0.524478
       1App   -0.452181     7Ap    -0.446661     8Ap    -0.438384
       2App   -0.381379     9Ap    -0.346775

    Beta Virtual:

      10Ap    -0.053268     3App   -0.003765    11Ap     0.094296
      12Ap     0.141805     4App    0.144462    13Ap     0.228433
      14Ap     0.273811     5App    0.433117    15Ap     0.435164
      16Ap     0.466129     6App    0.500324    17Ap     0.527241
      18Ap     0.538711     7App    0.569422    19Ap     0.581390
       8App    0.623460    20Ap     0.625067    21Ap     0.649079
      22Ap     0.738648     9App    0.776913    23Ap     0.795116
      10App    0.832800    11App    0.923032    24Ap     0.944158
      25Ap     0.951887    12App    1.027087    26Ap     1.090689
      27Ap     1.108671    13App    1.160273    28Ap     1.232632
      29Ap     1.311954    14App    1.320374    30Ap     1.334249
      15App    1.412283    31Ap     1.412636    32Ap     1.479970
      33Ap     1.571147    34Ap     1.641944    16App    1.666904
      35Ap     1.725222    17App    1.816642    36Ap     1.848099
      37Ap     1.907063    18App    2.071156    38Ap     2.187444
      39Ap     2.502095    19App    2.695127    40Ap     2.758908
      41Ap     2.804990    20App    2.856119    21App    2.896320
      42Ap     2.982613    43Ap     3.046141    22App    3.065436
      23App    3.123894    44Ap     3.124465    45Ap     3.216735
      24App    3.358796    46Ap     3.378003    25App    3.398989
      26App    3.446576    27App    3.482889    47Ap     3.508321
      48Ap     3.583578    49Ap     3.760830    50Ap     3.771696
      51Ap     3.952744    28App    3.993542    52Ap     4.071384
      29App    4.122433    53Ap     4.125064    54Ap     4.200339
      30App    4.395105    55Ap     4.441475    31App    4.451016
      56Ap     4.543678    57Ap     4.922934    58Ap     5.054537
      32App    5.060095    33App    5.200640    59Ap     5.211670
      60Ap     5.480695    34App    5.490990    61Ap     5.841291
      35App    5.929640    62Ap     6.122981    63Ap     6.799670
      36App    6.802087    37App    7.076474    64Ap     7.164281
      65Ap     7.538760

    Final Occupation by Irrep:
             Ap   App
    DOCC [     9,    2 ]
    SOCC [     1,    0 ]

  @DF-UKS Final Energy:  -153.18835796894066

   => Energetics <=

    Nuclear Repulsion Energy =             62.7282198196891940
    One-Electron Energy =                -331.4627135344151156
    Two-Electron Energy =                 132.1243381700306543
    DFT Exchange-Correlation Energy =     -16.5782024242453652
    Empirical Dispersion Energy =           0.0000000000000000
    VV10 Nonlocal Energy =                  0.0000000000000000
    Total Energy =                       -153.1883579689406645

  UHF NO Occupations:
  HONO-2 :    8 Ap 1.9997887
  HONO-1 :    9 Ap 1.9991950
  HONO-0 :   10 Ap 1.0000000
  LUNO+0 :   11 Ap 0.0008050
  LUNO+1 :   12 Ap 0.0002113
  LUNO+2 :    3App 0.0001827
  LUNO+3 :   13 Ap 0.0000619

Computation Completed

Properties will be evaluated at   0.000000,   0.000000,   0.000000 [a0]

Properties computed using the SCF density matrix

  Nuclear Dipole Moment: [e a0]
     X:     4.5396      Y:    -0.6835      Z:     0.0000

  Electronic Dipole Moment: [e a0]
     X:    -3.5997      Y:     0.6346      Z:     0.0000

  Dipole Moment: [e a0]
     X:     0.9399      Y:    -0.0489      Z:     0.0000     Total:     0.9412

  Dipole Moment: [D]
     X:     2.3889      Y:    -0.1243      Z:     0.0000     Total:     2.3922

*** tstop() called on n027 at Tue Mar 15 10:29:40 2022
Module time:
	user time   =      67.14 seconds =       1.12 minutes
	system time =       0.43 seconds =       0.01 minutes
	total time  =         67 seconds =       1.12 minutes
Total time:
	user time   =      67.14 seconds =       1.12 minutes
	system time =       0.43 seconds =       0.01 minutes
	total time  =         67 seconds =       1.12 minutes
Grab this energy -153.18835796894066
    Psi4 stopped on: Tuesday, 15 March 2022 10:29AM
    Psi4 wall time for execution: 0:01:07.62

*** Psi4 exiting successfully. Buy a developer a beer!
