                               Psi4 1.4a2.dev629

  ==> Input File <==

--------------------------------------------------------------------------
import os
memory 14 GB

molecule {
 C   -0.2656830715    0.8036819794    0.0000000004
 O   -2.1876565060   -0.3350231518    0.0000000098
 C    2.4107872002   -0.2407966869    0.0000000114
 H    2.3864674402   -2.3094472725    0.0000000345
 H    3.3913412709    0.4758597949   -1.6592501555
 H    3.3913416162    0.4758599568    1.6592499195
units bohr
0 2
}

basis {

assign 6-31g_2dfp_

[ 6-31g_2dfp_ ]

spherical

!----------------------------------------------------------------------
! Basis Set Exchange
! Version v0.8.13
! https://www.basissetexchange.org
!----------------------------------------------------------------------
!   Basis set: 6-31G(2df,p)
! Description: 6-31G(2df,p)
!        Role: orbital
!     Version: 0  (Data from the original Basis Set Exchange)
!----------------------------------------------------------------------

****
H     0
S    3   1.00
     18.7311370              0.03349460
      2.8253937              0.23472695
      0.6401217              0.81375733
S    1   1.00
      0.1612778              1.00000000
P    1   1.00
      1.5000000              1.0000000
P    1   1.00
      0.3750000              1.0000000
****
B     0
S    6   1.00
   2068.8823000              0.0018663
    310.6495700              0.0142515
     70.6830330              0.0695516
     19.8610800              0.2325729
      6.2993048              0.4670787
      2.1270270              0.3634314
SP   3   1.00
      4.7279710             -0.1303938              0.0745976
      1.1903377             -0.1307889              0.3078467
      0.3594117              1.1309444              0.7434568
SP   1   1.00
      0.1267512              1.0000000              1.0000000
D    1   1.00
      0.8020000              1.0000000
D    1   1.00
      0.2005000              1.0000000
F    1   1.00
      0.5000000              1.0000000
****
C     0
S    6   1.00
   3047.5249000              0.0018347
    457.3695100              0.0140373
    103.9486900              0.0688426
     29.2101550              0.2321844
      9.2866630              0.4679413
      3.1639270              0.3623120
SP   3   1.00
      7.8682724             -0.1193324              0.0689991
      1.8812885             -0.1608542              0.3164240
      0.5442493              1.1434564              0.7443083
SP   1   1.00
      0.1687144              1.0000000              1.0000000
D    1   1.00
      1.2520000              1.0000000
D    1   1.00
      0.3130000              1.0000000
F    1   1.00
      0.8000000              1.0000000
****
N     0
S    6   1.00
   4173.5110000              0.0018348
    627.4579000              0.0139950
    142.9021000              0.0685870
     40.2343300              0.2322410
     12.8202100              0.4690700
      4.3904370              0.3604550
SP   3   1.00
     11.6263580             -0.1149610              0.0675800
      2.7162800             -0.1691180              0.3239070
      0.7722180              1.1458520              0.7408950
SP   1   1.00
      0.2120313              1.0000000              1.0000000
D    1   1.00
      1.8260000              1.0000000
D    1   1.00
      0.4565000              1.0000000
F    1   1.00
      1.0000000              1.0000000
****
O     0
S    6   1.00
   5484.6717000              0.0018311
    825.2349500              0.0139501
    188.0469600              0.0684451
     52.9645000              0.2327143
     16.8975700              0.4701930
      5.7996353              0.3585209
SP   3   1.00
     15.5396160             -0.1107775              0.0708743
      3.5999336             -0.1480263              0.3397528
      1.0137618              1.1307670              0.7271586
SP   1   1.00
      0.2700058              1.0000000              1.0000000
D    1   1.00
      2.5840000              1.0000000
D    1   1.00
      0.6460000              1.0000000
F    1   1.00
      1.4000000              1.0000000
****
F     0
S    6   1.00
   7001.7130900              0.0018196169
   1051.3660900              0.0139160796
    239.2856900              0.0684053245
     67.3974453              0.233185760
     21.5199573              0.471267439
      7.40310130             0.356618546
SP   3   1.00
     20.8479528             -0.108506975            0.0716287243
      4.80830834            -0.146451658            0.3459121030
      1.34406986             1.128688580            0.7224699570
SP   1   1.00
      0.358151393            1.0000000              1.0000000
D    1   1.00
      3.5000000              1.0000000
D    1   1.00
      0.8750000              1.0000000
F    1   1.00
      1.8500000              1.0000000
****
Al     0
S    6   1.00
  13983.1000000              0.00194267
   2098.7500000              0.0148599
    477.7050000              0.0728494
    134.3600000              0.2468300
     42.8709000              0.4872580
     14.5189000              0.3234960
SP   6   1.00
    239.6680000             -0.00292619             0.00460285
     57.4419000             -0.0374080              0.0331990
     18.2859000             -0.1144870              0.1362820
      6.5991400              0.1156350              0.3304760
      2.4904900              0.6125950              0.4491460
      0.9445400              0.3937990              0.2657040
SP   3   1.00
      1.2779000             -0.2276060             -0.0175130
      0.3975900              0.00144583             0.2445330
      0.1600950              1.0927900              0.8049340
SP   1   1.00
      0.0556577              1.0000000              1.0000000
D    1   1.00
      0.6500000              1.0000000
D    1   1.00
      0.1625000              1.0000000
F    1   1.00
      0.2500000              1.0000000
****
Si     0
S    6   1.00
  16115.9000000              0.00195948
   2425.5800000              0.01492880
    553.8670000              0.07284780
    156.3400000              0.24613000
     50.0683000              0.48591400
     17.0178000              0.32500200
SP   6   1.00
    292.7180000             -0.00278094             0.00443826
     69.8731000             -0.03571460             0.03266790
     22.3363000             -0.11498500             0.13472100
      8.1503900              0.09356340             0.32867800
      3.1345800              0.60301700             0.44964000
      1.2254300              0.41895900             0.26137200
SP   3   1.00
      1.7273800             -0.24463000            -0.01779510
      0.5729220              0.00431572             0.25353900
      0.2221920              1.09818000             0.80066900
SP   1   1.00
      0.0778369              1.00000000             1.00000000
D    1   1.00
      0.9000000              1.0000000
D    1   1.00
      0.2250000              1.0000000
F    1   1.00
      0.3200000              1.0000000
****
P     0
S    6   1.00
  19413.3000000              0.0018516
   2909.4200000              0.0142062
    661.3640000              0.0699995
    185.7590000              0.2400790
     59.1943000              0.4847620
     20.0310000              0.3352000
SP   6   1.00
    339.4780000             -0.00278217             0.00456462
     81.0101000             -0.0360499              0.03369360
     25.8780000             -0.1166310              0.13975500
      9.4522100              0.0968328              0.33936200
      3.6656600              0.6144180              0.45092100
      1.4674600              0.4037980              0.23858600
SP   3   1.00
      2.1562300             -0.2529230             -0.01776530
      0.7489970              0.0328517              0.27405800
      0.2831450              1.0812500              0.78542100
SP   1   1.00
      0.0998317              1.0000000              1.00000000
D    1   1.00
      1.1000000              1.0000000
D    1   1.00
      0.2750000              1.0000000
F    1   1.00
      0.4500000              1.0000000
****
S     0
S    6   1.00
  21917.1000000              0.0018690
   3301.4900000              0.0142300
    754.1460000              0.0696960
    212.7110000              0.2384870
     67.9896000              0.4833070
     23.0515000              0.3380740
SP   6   1.00
    423.7350000             -0.0023767              0.0040610
    100.7100000             -0.0316930              0.0306810
     32.1599000             -0.1133170              0.1304520
     11.8079000              0.0560900              0.3272050
      4.6311000              0.5922550              0.4528510
      1.8702500              0.4550060              0.2560420
SP   3   1.00
      2.6158400             -0.2503740             -0.0145110
      0.9221670              0.0669570              0.3102630
      0.3412870              1.0545100              0.7544830
SP   1   1.00
      0.1171670              1.0000000              1.0000000
D    1   1.00
      1.3000000              1.0000000
D    1   1.00
      0.3250000              1.0000000
F    1   1.00
      0.5500000              1.0000000
****
Cl     0
S    6   1.00
  25180.1000000              0.0018330
   3780.3500000              0.0140340
    860.4740000              0.0690970
    242.1450000              0.2374520
     77.3349000              0.4830340
     26.2470000              0.3398560
SP   6   1.00
    491.7650000             -0.0022974              0.0039894
    116.9840000             -0.0307140              0.0303180
     37.4153000             -0.1125280              0.1298800
     13.7834000              0.0450160              0.3279510
      5.4521500              0.5893530              0.4535270
      2.2258800              0.4652060              0.2521540
SP   3   1.00
      3.1864900             -0.2518300             -0.0142990
      1.1442700              0.0615890              0.3235720
      0.4203770              1.0601800              0.7435070
SP   1   1.00
      0.1426570              1.0000000              1.0000000
D    1   1.00
      1.5000000              1.0000000
D    1   1.00
      0.3750000              1.0000000
F    1   1.00
      0.7000000              1.0000000
****
}

set {
reference uhf
freeze_core true
e_convergence 10
d_convergence 10
dft_spherical_points 1202
dft_radial_points 99
}

e = energy('b3lyp')

print_out('Grab this energy {0}'.format(e))
--------------------------------------------------------------------------

    Molecular point group: c1

    Geometry (in Bohr), charge = 0, multiplicity = 2:

       Center              X                  Y                   Z               Mass
    ------------   -----------------  -----------------  -----------------  -----------------
         C           -0.265468506010     0.803040276650    -0.000000001815    12.000000000000
         O           -2.187441940510    -0.335664854550     0.000000007585    15.994914619570
         C            2.411001765690    -0.241438389650     0.000000009185    12.000000000000
         H            2.386682005690    -2.310088975250     0.000000032285     1.007825032230
         H            3.391555836390     0.475218092150    -1.659250157715     1.007825032230
         H            3.391556181690     0.475218254050     1.659249917285     1.007825032230

  Charge       = 0
  Multiplicity = 2
  Basis Set: ANONYMOUS79CF66BB
    Blend: 6-31G_2DFP_
  Basis Set: (ANONYMOUS79CF66BB AUX)
    Blend: DEF2-UNIVERSAL-JKFIT

    Orbital Energies [Eh]
    ---------------------

    Alpha Occupied:

       1A    -19.186998     2A    -10.270972     3A    -10.210051
       4A     -1.083865     5A     -0.761217     6A     -0.543680
       7A     -0.467249     8A     -0.457264     9A     -0.456358
      10A     -0.388684    11A     -0.386936    12A     -0.191167

    Alpha Virtual:

      13A     -0.017612    14A      0.092218    15A      0.136727
      16A      0.141917    17A      0.217632    18A      0.268320
      19A      0.428394    20A      0.431795    21A      0.443736
      22A      0.493819    23A      0.506172    24A      0.530588
      25A      0.563299    26A      0.577490    27A      0.610942
      28A      0.616214    29A      0.644202    30A      0.718533
      31A      0.766441    32A      0.785605    33A      0.832824
      34A      0.916317    35A      0.926208    36A      0.934867
      37A      1.023618    38A      1.084837    39A      1.109624
      40A      1.153239    41A      1.220494    42A      1.306082
      43A      1.316406    44A      1.327033    45A      1.404597
      46A      1.408152    47A      1.468325    48A      1.559467
      49A      1.632330    50A      1.655315    51A      1.721906
      52A      1.815426    53A      1.834088    54A      1.901301
      55A      2.066885    56A      2.167163    57A      2.502023
      58A      2.680176    59A      2.743661    60A      2.783295
      61A      2.845299    62A      2.894668    63A      2.972994
      64A      3.031663    65A      3.059013    66A      3.104368
      67A      3.114560    68A      3.183264    69A      3.313473
      70A      3.372889    71A      3.392818    72A      3.439902
      73A      3.466215    74A      3.487670    75A      3.569599
      76A      3.744763    77A      3.759794    78A      3.942551
      79A      3.979803    80A      4.057205    81A      4.109342
      82A      4.119562    83A      4.190433    84A      4.389709
      85A      4.431795    86A      4.449784    87A      4.530279
      88A      4.919629    89A      5.037061    90A      5.042506
      91A      5.203089    92A      5.203913    93A      5.479707
      94A      5.488851    95A      5.824887    96A      5.937203
      97A      6.108831    98A      6.770974    99A      6.773293
     100A      7.069778   101A      7.135142   102A      7.532870

    Beta Occupied:

       1A    -19.178956     2A    -10.260948     3A    -10.206623
       4A     -1.068044     5A     -0.749407     6A     -0.524067
       7A     -0.451737     8A     -0.446256     9A     -0.439705
      10A     -0.383574    11A     -0.349084

    Beta Virtual:

      12A     -0.051916    13A     -0.001357    14A      0.095015
      15A      0.142374    16A      0.145052    17A      0.228239
      18A      0.273922    19A      0.433801    20A      0.435844
      21A      0.465520    22A      0.500525    23A      0.527746
      24A      0.539492    25A      0.569774    26A      0.581621
      27A      0.623350    28A      0.628989    29A      0.650239
      30A      0.740762    31A      0.777511    32A      0.795456
      33A      0.833609    34A      0.921164    35A      0.942595
      36A      0.950096    37A      1.027824    38A      1.091037
      39A      1.111635    40A      1.159446    41A      1.229801
      42A      1.311701    43A      1.319259    44A      1.333820
      45A      1.413677    46A      1.415009    47A      1.480605
      48A      1.570538    49A      1.645707    50A      1.669691
      51A      1.728122    52A      1.818600    53A      1.848296
      54A      1.907953    55A      2.073581    56A      2.188489
      57A      2.514731    58A      2.694452    59A      2.758070
      60A      2.804381    61A      2.860766    62A      2.896321
      63A      2.982550    64A      3.048632    65A      3.067485
      66A      3.123044    67A      3.123047    68A      3.217955
      69A      3.356796    70A      3.384409    71A      3.399334
      72A      3.449336    73A      3.480697    74A      3.510582
      75A      3.582821    76A      3.769304    77A      3.770477
      78A      3.951246    79A      3.989170    80A      4.073692
      81A      4.122433    82A      4.124744    83A      4.201347
      84A      4.391945    85A      4.437927    86A      4.453970
      87A      4.541148    88A      4.923549    89A      5.054479
      90A      5.060465    91A      5.206092    92A      5.208806
      93A      5.492276    94A      5.502719    95A      5.838102
      96A      5.942782    97A      6.131967    98A      6.800181
      99A      6.802836   100A      7.074056   101A      7.164411
     102A      7.544486

    Final Occupation by Irrep:
              A
    DOCC [    11 ]
    SOCC [     1 ]

  @DF-UKS Final Energy:  -153.18843705847138

   => Energetics <=

    Nuclear Repulsion Energy =             62.8531435233726441
    One-Electron Energy =                -331.6983957831887437
    Two-Electron Energy =                 132.2398819969574504
    DFT Exchange-Correlation Energy =     -16.5830667956127122
    Empirical Dispersion Energy =           0.0000000000000000
    VV10 Nonlocal Energy =                  0.0000000000000000
    Total Energy =                       -153.1884370584713793

  UHF NO Occupations:
  HONO-2 :   10  A 1.9997794
  HONO-1 :   11  A 1.9992097
  HONO-0 :   12  A 1.0000000
  LUNO+0 :   13  A 0.0007903
  LUNO+1 :   14  A 0.0002206
  LUNO+2 :   15  A 0.0001774
  LUNO+3 :   16  A 0.0000611

Computation Completed

Properties will be evaluated at   0.000000,   0.000000,   0.000000 [a0]

Properties computed using the SCF density matrix

  Nuclear Dipole Moment: [e a0]
     X:     4.5435      Y:    -0.6754      Z:    -0.0000

  Electronic Dipole Moment: [e a0]
     X:    -3.6208      Y:     0.6268      Z:     0.0000

  Dipole Moment: [e a0]
     X:     0.9227      Y:    -0.0485      Z:    -0.0000     Total:     0.9240

  Dipole Moment: [D]
     X:     2.3453      Y:    -0.1234      Z:    -0.0000     Total:     2.3485

*** tstop() called on n082 at Thu Nov  4 14:53:47 2021
Module time:
	user time   =      44.06 seconds =       0.73 minutes
	system time =       0.57 seconds =       0.01 minutes
	total time  =         45 seconds =       0.75 minutes
Total time:
	user time   =      44.06 seconds =       0.73 minutes
	system time =       0.57 seconds =       0.01 minutes
	total time  =         45 seconds =       0.75 minutes
Grab this energy -153.18843705847138
    Psi4 stopped on: Thursday, 04 November 2021 02:53PM
    Psi4 wall time for execution: 0:00:44.67

*** Psi4 exiting successfully. Buy a developer a beer!
