                               Psi4 1.4a2.dev629

  ==> Input File <==

--------------------------------------------------------------------------
import os
memory 14 GB

molecule {
 C   -0.2607599106    0.8063396805    0.0000000008
 O   -2.1907150177   -0.3370664760    0.0000000097
 C    2.4105759502   -0.2429174313    0.0000000102
 H    2.3865780551   -2.3096133296    0.0000000349
 H    3.3904592639    0.4766960073   -1.6592847615
 H    3.3904596091    0.4766961692    1.6592845259
units bohr
0 2
}

basis {

assign 6-31g_2dfp_

[ 6-31g_2dfp_ ]

spherical

!----------------------------------------------------------------------
! Basis Set Exchange
! Version v0.8.13
! https://www.basissetexchange.org
!----------------------------------------------------------------------
!   Basis set: 6-31G(2df,p)
! Description: 6-31G(2df,p)
!        Role: orbital
!     Version: 0  (Data from the original Basis Set Exchange)
!----------------------------------------------------------------------

****
H     0
S    3   1.00
     18.7311370              0.03349460
      2.8253937              0.23472695
      0.6401217              0.81375733
S    1   1.00
      0.1612778              1.00000000
P    1   1.00
      1.5000000              1.0000000
P    1   1.00
      0.3750000              1.0000000
****
B     0
S    6   1.00
   2068.8823000              0.0018663
    310.6495700              0.0142515
     70.6830330              0.0695516
     19.8610800              0.2325729
      6.2993048              0.4670787
      2.1270270              0.3634314
SP   3   1.00
      4.7279710             -0.1303938              0.0745976
      1.1903377             -0.1307889              0.3078467
      0.3594117              1.1309444              0.7434568
SP   1   1.00
      0.1267512              1.0000000              1.0000000
D    1   1.00
      0.8020000              1.0000000
D    1   1.00
      0.2005000              1.0000000
F    1   1.00
      0.5000000              1.0000000
****
C     0
S    6   1.00
   3047.5249000              0.0018347
    457.3695100              0.0140373
    103.9486900              0.0688426
     29.2101550              0.2321844
      9.2866630              0.4679413
      3.1639270              0.3623120
SP   3   1.00
      7.8682724             -0.1193324              0.0689991
      1.8812885             -0.1608542              0.3164240
      0.5442493              1.1434564              0.7443083
SP   1   1.00
      0.1687144              1.0000000              1.0000000
D    1   1.00
      1.2520000              1.0000000
D    1   1.00
      0.3130000              1.0000000
F    1   1.00
      0.8000000              1.0000000
****
N     0
S    6   1.00
   4173.5110000              0.0018348
    627.4579000              0.0139950
    142.9021000              0.0685870
     40.2343300              0.2322410
     12.8202100              0.4690700
      4.3904370              0.3604550
SP   3   1.00
     11.6263580             -0.1149610              0.0675800
      2.7162800             -0.1691180              0.3239070
      0.7722180              1.1458520              0.7408950
SP   1   1.00
      0.2120313              1.0000000              1.0000000
D    1   1.00
      1.8260000              1.0000000
D    1   1.00
      0.4565000              1.0000000
F    1   1.00
      1.0000000              1.0000000
****
O     0
S    6   1.00
   5484.6717000              0.0018311
    825.2349500              0.0139501
    188.0469600              0.0684451
     52.9645000              0.2327143
     16.8975700              0.4701930
      5.7996353              0.3585209
SP   3   1.00
     15.5396160             -0.1107775              0.0708743
      3.5999336             -0.1480263              0.3397528
      1.0137618              1.1307670              0.7271586
SP   1   1.00
      0.2700058              1.0000000              1.0000000
D    1   1.00
      2.5840000              1.0000000
D    1   1.00
      0.6460000              1.0000000
F    1   1.00
      1.4000000              1.0000000
****
F     0
S    6   1.00
   7001.7130900              0.0018196169
   1051.3660900              0.0139160796
    239.2856900              0.0684053245
     67.3974453              0.233185760
     21.5199573              0.471267439
      7.40310130             0.356618546
SP   3   1.00
     20.8479528             -0.108506975            0.0716287243
      4.80830834            -0.146451658            0.3459121030
      1.34406986             1.128688580            0.7224699570
SP   1   1.00
      0.358151393            1.0000000              1.0000000
D    1   1.00
      3.5000000              1.0000000
D    1   1.00
      0.8750000              1.0000000
F    1   1.00
      1.8500000              1.0000000
****
Al     0
S    6   1.00
  13983.1000000              0.00194267
   2098.7500000              0.0148599
    477.7050000              0.0728494
    134.3600000              0.2468300
     42.8709000              0.4872580
     14.5189000              0.3234960
SP   6   1.00
    239.6680000             -0.00292619             0.00460285
     57.4419000             -0.0374080              0.0331990
     18.2859000             -0.1144870              0.1362820
      6.5991400              0.1156350              0.3304760
      2.4904900              0.6125950              0.4491460
      0.9445400              0.3937990              0.2657040
SP   3   1.00
      1.2779000             -0.2276060             -0.0175130
      0.3975900              0.00144583             0.2445330
      0.1600950              1.0927900              0.8049340
SP   1   1.00
      0.0556577              1.0000000              1.0000000
D    1   1.00
      0.6500000              1.0000000
D    1   1.00
      0.1625000              1.0000000
F    1   1.00
      0.2500000              1.0000000
****
Si     0
S    6   1.00
  16115.9000000              0.00195948
   2425.5800000              0.01492880
    553.8670000              0.07284780
    156.3400000              0.24613000
     50.0683000              0.48591400
     17.0178000              0.32500200
SP   6   1.00
    292.7180000             -0.00278094             0.00443826
     69.8731000             -0.03571460             0.03266790
     22.3363000             -0.11498500             0.13472100
      8.1503900              0.09356340             0.32867800
      3.1345800              0.60301700             0.44964000
      1.2254300              0.41895900             0.26137200
SP   3   1.00
      1.7273800             -0.24463000            -0.01779510
      0.5729220              0.00431572             0.25353900
      0.2221920              1.09818000             0.80066900
SP   1   1.00
      0.0778369              1.00000000             1.00000000
D    1   1.00
      0.9000000              1.0000000
D    1   1.00
      0.2250000              1.0000000
F    1   1.00
      0.3200000              1.0000000
****
P     0
S    6   1.00
  19413.3000000              0.0018516
   2909.4200000              0.0142062
    661.3640000              0.0699995
    185.7590000              0.2400790
     59.1943000              0.4847620
     20.0310000              0.3352000
SP   6   1.00
    339.4780000             -0.00278217             0.00456462
     81.0101000             -0.0360499              0.03369360
     25.8780000             -0.1166310              0.13975500
      9.4522100              0.0968328              0.33936200
      3.6656600              0.6144180              0.45092100
      1.4674600              0.4037980              0.23858600
SP   3   1.00
      2.1562300             -0.2529230             -0.01776530
      0.7489970              0.0328517              0.27405800
      0.2831450              1.0812500              0.78542100
SP   1   1.00
      0.0998317              1.0000000              1.00000000
D    1   1.00
      1.1000000              1.0000000
D    1   1.00
      0.2750000              1.0000000
F    1   1.00
      0.4500000              1.0000000
****
S     0
S    6   1.00
  21917.1000000              0.0018690
   3301.4900000              0.0142300
    754.1460000              0.0696960
    212.7110000              0.2384870
     67.9896000              0.4833070
     23.0515000              0.3380740
SP   6   1.00
    423.7350000             -0.0023767              0.0040610
    100.7100000             -0.0316930              0.0306810
     32.1599000             -0.1133170              0.1304520
     11.8079000              0.0560900              0.3272050
      4.6311000              0.5922550              0.4528510
      1.8702500              0.4550060              0.2560420
SP   3   1.00
      2.6158400             -0.2503740             -0.0145110
      0.9221670              0.0669570              0.3102630
      0.3412870              1.0545100              0.7544830
SP   1   1.00
      0.1171670              1.0000000              1.0000000
D    1   1.00
      1.3000000              1.0000000
D    1   1.00
      0.3250000              1.0000000
F    1   1.00
      0.5500000              1.0000000
****
Cl     0
S    6   1.00
  25180.1000000              0.0018330
   3780.3500000              0.0140340
    860.4740000              0.0690970
    242.1450000              0.2374520
     77.3349000              0.4830340
     26.2470000              0.3398560
SP   6   1.00
    491.7650000             -0.0022974              0.0039894
    116.9840000             -0.0307140              0.0303180
     37.4153000             -0.1125280              0.1298800
     13.7834000              0.0450160              0.3279510
      5.4521500              0.5893530              0.4535270
      2.2258800              0.4652060              0.2521540
SP   3   1.00
      3.1864900             -0.2518300             -0.0142990
      1.1442700              0.0615890              0.3235720
      0.4203770              1.0601800              0.7435070
SP   1   1.00
      0.1426570              1.0000000              1.0000000
D    1   1.00
      1.5000000              1.0000000
D    1   1.00
      0.3750000              1.0000000
F    1   1.00
      0.7000000              1.0000000
****
}

set {
reference uhf
freeze_core true
e_convergence 10
d_convergence 10
dft_spherical_points 1202
dft_radial_points 99
}

e = energy('b3lyp')

print_out('Grab this energy {0}'.format(e))
--------------------------------------------------------------------------

    Molecular point group: c1

    Geometry (in Bohr), charge = 0, multiplicity = 2:

       Center              X                  Y                   Z               Mass
    ------------   -----------------  -----------------  -----------------  -----------------
         C           -0.260683796601     0.806272642697    -0.000000001173    12.000000000000
         O           -2.190638903701    -0.337133513803     0.000000007727    15.994914619570
         C            2.410652064199    -0.242984469103     0.000000008227    12.000000000000
         H            2.386654169099    -2.309680367403     0.000000032927     1.007825032230
         H            3.390535377899     0.476628969497    -1.659284763473     1.007825032230
         H            3.390535723099     0.476629131397     1.659284523927     1.007825032230

  Charge       = 0
  Multiplicity = 2
  Basis Set: ANONYMOUS68F62E2C
    Blend: 6-31G_2DFP_
  Basis Set: (ANONYMOUS68F62E2C AUX)
    Blend: DEF2-UNIVERSAL-JKFIT

    Orbital Energies [Eh]
    ---------------------

    Alpha Occupied:

       1A    -19.186971     2A    -10.271750     3A    -10.210343
       4A     -1.081124     5A     -0.761865     6A     -0.543956
       7A     -0.466670     8A     -0.457183     9A     -0.456109
      10A     -0.387434    11A     -0.386182    12A     -0.192448

    Alpha Virtual:

      13A     -0.018935    14A      0.091987    15A      0.136680
      16A      0.141466    17A      0.217463    18A      0.268054
      19A      0.428093    20A      0.431637    21A      0.443635
      22A      0.493953    23A      0.506150    24A      0.530430
      25A      0.563217    26A      0.577401    27A      0.608091
      28A      0.616051    29A      0.643859    30A      0.717553
      31A      0.766164    32A      0.785262    33A      0.832551
      34A      0.917403    35A      0.927108    36A      0.935355
      37A      1.023356    38A      1.084597    39A      1.109060
      40A      1.152815    41A      1.219520    42A      1.306420
      43A      1.315662    44A      1.327492    45A      1.404922
      46A      1.408126    47A      1.467615    48A      1.560327
      49A      1.630018    50A      1.653758    51A      1.720922
      52A      1.814156    53A      1.833489    54A      1.901591
      55A      2.065286    56A      2.165137    57A      2.495045
      58A      2.679834    59A      2.743465    60A      2.783291
      61A      2.844480    62A      2.893926    63A      2.972023
      64A      3.031962    65A      3.058556    66A      3.105637
      67A      3.113885    68A      3.183765    69A      3.313732
      70A      3.370433    71A      3.392718    72A      3.439490
      73A      3.465310    74A      3.486329    75A      3.570307
      76A      3.738696    77A      3.760106    78A      3.941584
      79A      3.983144    80A      4.055023    81A      4.110870
      82A      4.118850    83A      4.188524    84A      4.387780
      85A      4.433605    86A      4.451371    87A      4.531282
      88A      4.920201    89A      5.036940    90A      5.042133
      91A      5.203058    92A      5.203077    93A      5.472921
      94A      5.482015    95A      5.826456    96A      5.929665
      97A      6.102927    98A      6.770510    99A      6.772626
     100A      7.070607   101A      7.135034   102A      7.529441

    Beta Occupied:

       1A    -19.178896     2A    -10.261701     3A    -10.206954
       4A     -1.065182     5A     -0.750082     6A     -0.524252
       7A     -0.451563     8A     -0.446859     9A     -0.438833
      10A     -0.382256    11A     -0.347862

    Beta Virtual:

      12A     -0.053061    13A     -0.002649    14A      0.094743
      15A      0.142335    16A      0.144571    17A      0.227960
      18A      0.273751    19A      0.433614    20A      0.435437
      21A      0.465532    22A      0.500645    23A      0.527568
      24A      0.539397    25A      0.569632    26A      0.581565
      27A      0.623199    28A      0.626647    29A      0.649477
      30A      0.739459    31A      0.777306    32A      0.795247
      33A      0.833323    34A      0.922245    35A      0.943246
      36A      0.950948    37A      1.027551    38A      1.090775
      39A      1.111078    40A      1.159035    41A      1.228766
      42A      1.312110    43A      1.318484    44A      1.334273
      45A      1.413630    46A      1.415382    47A      1.479939
      48A      1.571430    49A      1.643254    50A      1.668164
      51A      1.727193    52A      1.817283    53A      1.847609
      54A      1.908229    55A      2.072015    56A      2.186535
      57A      2.507716    58A      2.694128    59A      2.757811
      60A      2.804440    61A      2.859911    62A      2.895552
      63A      2.981559    64A      3.048739    65A      3.067040
      66A      3.122289    67A      3.124137    68A      3.218450
      69A      3.357317    70A      3.381990    71A      3.399186
      72A      3.447794    73A      3.480934    74A      3.509207
      75A      3.583567    76A      3.764434    77A      3.769598
      78A      3.950251    79A      3.992458    80A      4.071522
      81A      4.121709    82A      4.126128    83A      4.199620
      84A      4.390035    85A      4.439765    86A      4.455511
      87A      4.542137    88A      4.924099    89A      5.054431
      90A      5.060169    91A      5.205284    92A      5.208788
      93A      5.485570    94A      5.495879    95A      5.839700
      96A      5.935252    97A      6.126139    98A      6.799836
      99A      6.802294   100A      7.074909   101A      7.164438
     102A      7.541116

    Final Occupation by Irrep:
              A
    DOCC [    11 ]
    SOCC [     1 ]

  @DF-UKS Final Energy:  -153.18842120206389

   => Energetics <=

    Nuclear Repulsion Energy =             62.7740618759681652
    One-Electron Energy =                -331.5485464704023570
    Two-Electron Energy =                 132.1662395067172042
    DFT Exchange-Correlation Energy =     -16.5801761143469193
    Empirical Dispersion Energy =           0.0000000000000000
    VV10 Nonlocal Energy =                  0.0000000000000000
    Total Energy =                       -153.1884212020638927

  UHF NO Occupations:
  HONO-2 :   10  A 1.9997827
  HONO-1 :   11  A 1.9992007
  HONO-0 :   12  A 1.0000000
  LUNO+0 :   13  A 0.0007993
  LUNO+1 :   14  A 0.0002173
  LUNO+2 :   15  A 0.0001792
  LUNO+3 :   16  A 0.0000617

Computation Completed

Properties will be evaluated at   0.000000,   0.000000,   0.000000 [a0]

Properties computed using the SCF density matrix

  Nuclear Dipole Moment: [e a0]
     X:     4.5424      Y:    -0.6738      Z:    -0.0000

  Electronic Dipole Moment: [e a0]
     X:    -3.6111      Y:     0.6259      Z:     0.0000

  Dipole Moment: [e a0]
     X:     0.9313      Y:    -0.0479      Z:    -0.0000     Total:     0.9326

  Dipole Moment: [D]
     X:     2.3672      Y:    -0.1217      Z:    -0.0000     Total:     2.3703

*** tstop() called on n077 at Thu Nov  4 14:50:47 2021
Module time:
	user time   =      44.11 seconds =       0.74 minutes
	system time =       0.51 seconds =       0.01 minutes
	total time  =         45 seconds =       0.75 minutes
Total time:
	user time   =      44.11 seconds =       0.74 minutes
	system time =       0.51 seconds =       0.01 minutes
	total time  =         45 seconds =       0.75 minutes
Grab this energy -153.1884212020639
    Psi4 stopped on: Thursday, 04 November 2021 02:50PM
    Psi4 wall time for execution: 0:00:44.66

*** Psi4 exiting successfully. Buy a developer a beer!
