                               Psi4 1.4a2.dev629

  ==> Input File <==

--------------------------------------------------------------------------
import os
memory 14 GB

molecule {
 C   -0.2582073020    0.8015014320    0.0000000001
 O   -2.2056410220   -0.3313024673    0.0000000102
 C    2.4132818162   -0.2424628256    0.0000000099
 H    2.3965915196   -2.3077520962    0.0000000296
 H    3.3902862943    0.4750752031   -1.6650985069
 H    3.3902866439    0.4750753740    1.6650982772
units bohr
0 2
}

basis {

assign 6-31g_2dfp_

[ 6-31g_2dfp_ ]

spherical

!----------------------------------------------------------------------
! Basis Set Exchange
! Version v0.8.13
! https://www.basissetexchange.org
!----------------------------------------------------------------------
!   Basis set: 6-31G(2df,p)
! Description: 6-31G(2df,p)
!        Role: orbital
!     Version: 0  (Data from the original Basis Set Exchange)
!----------------------------------------------------------------------

****
H     0
S    3   1.00
     18.7311370              0.03349460
      2.8253937              0.23472695
      0.6401217              0.81375733
S    1   1.00
      0.1612778              1.00000000
P    1   1.00
      1.5000000              1.0000000
P    1   1.00
      0.3750000              1.0000000
****
B     0
S    6   1.00
   2068.8823000              0.0018663
    310.6495700              0.0142515
     70.6830330              0.0695516
     19.8610800              0.2325729
      6.2993048              0.4670787
      2.1270270              0.3634314
SP   3   1.00
      4.7279710             -0.1303938              0.0745976
      1.1903377             -0.1307889              0.3078467
      0.3594117              1.1309444              0.7434568
SP   1   1.00
      0.1267512              1.0000000              1.0000000
D    1   1.00
      0.8020000              1.0000000
D    1   1.00
      0.2005000              1.0000000
F    1   1.00
      0.5000000              1.0000000
****
C     0
S    6   1.00
   3047.5249000              0.0018347
    457.3695100              0.0140373
    103.9486900              0.0688426
     29.2101550              0.2321844
      9.2866630              0.4679413
      3.1639270              0.3623120
SP   3   1.00
      7.8682724             -0.1193324              0.0689991
      1.8812885             -0.1608542              0.3164240
      0.5442493              1.1434564              0.7443083
SP   1   1.00
      0.1687144              1.0000000              1.0000000
D    1   1.00
      1.2520000              1.0000000
D    1   1.00
      0.3130000              1.0000000
F    1   1.00
      0.8000000              1.0000000
****
N     0
S    6   1.00
   4173.5110000              0.0018348
    627.4579000              0.0139950
    142.9021000              0.0685870
     40.2343300              0.2322410
     12.8202100              0.4690700
      4.3904370              0.3604550
SP   3   1.00
     11.6263580             -0.1149610              0.0675800
      2.7162800             -0.1691180              0.3239070
      0.7722180              1.1458520              0.7408950
SP   1   1.00
      0.2120313              1.0000000              1.0000000
D    1   1.00
      1.8260000              1.0000000
D    1   1.00
      0.4565000              1.0000000
F    1   1.00
      1.0000000              1.0000000
****
O     0
S    6   1.00
   5484.6717000              0.0018311
    825.2349500              0.0139501
    188.0469600              0.0684451
     52.9645000              0.2327143
     16.8975700              0.4701930
      5.7996353              0.3585209
SP   3   1.00
     15.5396160             -0.1107775              0.0708743
      3.5999336             -0.1480263              0.3397528
      1.0137618              1.1307670              0.7271586
SP   1   1.00
      0.2700058              1.0000000              1.0000000
D    1   1.00
      2.5840000              1.0000000
D    1   1.00
      0.6460000              1.0000000
F    1   1.00
      1.4000000              1.0000000
****
F     0
S    6   1.00
   7001.7130900              0.0018196169
   1051.3660900              0.0139160796
    239.2856900              0.0684053245
     67.3974453              0.233185760
     21.5199573              0.471267439
      7.40310130             0.356618546
SP   3   1.00
     20.8479528             -0.108506975            0.0716287243
      4.80830834            -0.146451658            0.3459121030
      1.34406986             1.128688580            0.7224699570
SP   1   1.00
      0.358151393            1.0000000              1.0000000
D    1   1.00
      3.5000000              1.0000000
D    1   1.00
      0.8750000              1.0000000
F    1   1.00
      1.8500000              1.0000000
****
Al     0
S    6   1.00
  13983.1000000              0.00194267
   2098.7500000              0.0148599
    477.7050000              0.0728494
    134.3600000              0.2468300
     42.8709000              0.4872580
     14.5189000              0.3234960
SP   6   1.00
    239.6680000             -0.00292619             0.00460285
     57.4419000             -0.0374080              0.0331990
     18.2859000             -0.1144870              0.1362820
      6.5991400              0.1156350              0.3304760
      2.4904900              0.6125950              0.4491460
      0.9445400              0.3937990              0.2657040
SP   3   1.00
      1.2779000             -0.2276060             -0.0175130
      0.3975900              0.00144583             0.2445330
      0.1600950              1.0927900              0.8049340
SP   1   1.00
      0.0556577              1.0000000              1.0000000
D    1   1.00
      0.6500000              1.0000000
D    1   1.00
      0.1625000              1.0000000
F    1   1.00
      0.2500000              1.0000000
****
Si     0
S    6   1.00
  16115.9000000              0.00195948
   2425.5800000              0.01492880
    553.8670000              0.07284780
    156.3400000              0.24613000
     50.0683000              0.48591400
     17.0178000              0.32500200
SP   6   1.00
    292.7180000             -0.00278094             0.00443826
     69.8731000             -0.03571460             0.03266790
     22.3363000             -0.11498500             0.13472100
      8.1503900              0.09356340             0.32867800
      3.1345800              0.60301700             0.44964000
      1.2254300              0.41895900             0.26137200
SP   3   1.00
      1.7273800             -0.24463000            -0.01779510
      0.5729220              0.00431572             0.25353900
      0.2221920              1.09818000             0.80066900
SP   1   1.00
      0.0778369              1.00000000             1.00000000
D    1   1.00
      0.9000000              1.0000000
D    1   1.00
      0.2250000              1.0000000
F    1   1.00
      0.3200000              1.0000000
****
P     0
S    6   1.00
  19413.3000000              0.0018516
   2909.4200000              0.0142062
    661.3640000              0.0699995
    185.7590000              0.2400790
     59.1943000              0.4847620
     20.0310000              0.3352000
SP   6   1.00
    339.4780000             -0.00278217             0.00456462
     81.0101000             -0.0360499              0.03369360
     25.8780000             -0.1166310              0.13975500
      9.4522100              0.0968328              0.33936200
      3.6656600              0.6144180              0.45092100
      1.4674600              0.4037980              0.23858600
SP   3   1.00
      2.1562300             -0.2529230             -0.01776530
      0.7489970              0.0328517              0.27405800
      0.2831450              1.0812500              0.78542100
SP   1   1.00
      0.0998317              1.0000000              1.00000000
D    1   1.00
      1.1000000              1.0000000
D    1   1.00
      0.2750000              1.0000000
F    1   1.00
      0.4500000              1.0000000
****
S     0
S    6   1.00
  21917.1000000              0.0018690
   3301.4900000              0.0142300
    754.1460000              0.0696960
    212.7110000              0.2384870
     67.9896000              0.4833070
     23.0515000              0.3380740
SP   6   1.00
    423.7350000             -0.0023767              0.0040610
    100.7100000             -0.0316930              0.0306810
     32.1599000             -0.1133170              0.1304520
     11.8079000              0.0560900              0.3272050
      4.6311000              0.5922550              0.4528510
      1.8702500              0.4550060              0.2560420
SP   3   1.00
      2.6158400             -0.2503740             -0.0145110
      0.9221670              0.0669570              0.3102630
      0.3412870              1.0545100              0.7544830
SP   1   1.00
      0.1171670              1.0000000              1.0000000
D    1   1.00
      1.3000000              1.0000000
D    1   1.00
      0.3250000              1.0000000
F    1   1.00
      0.5500000              1.0000000
****
Cl     0
S    6   1.00
  25180.1000000              0.0018330
   3780.3500000              0.0140340
    860.4740000              0.0690970
    242.1450000              0.2374520
     77.3349000              0.4830340
     26.2470000              0.3398560
SP   6   1.00
    491.7650000             -0.0022974              0.0039894
    116.9840000             -0.0307140              0.0303180
     37.4153000             -0.1125280              0.1298800
     13.7834000              0.0450160              0.3279510
      5.4521500              0.5893530              0.4535270
      2.2258800              0.4652060              0.2521540
SP   3   1.00
      3.1864900             -0.2518300             -0.0142990
      1.1442700              0.0615890              0.3235720
      0.4203770              1.0601800              0.7435070
SP   1   1.00
      0.1426570              1.0000000              1.0000000
D    1   1.00
      1.5000000              1.0000000
D    1   1.00
      0.3750000              1.0000000
F    1   1.00
      0.7000000              1.0000000
****
}

set {
reference uhf
freeze_core true
e_convergence 10
d_convergence 10
dft_spherical_points 1202
dft_radial_points 99
}

e = energy('b3lyp')

print_out('Grab this energy {0}'.format(e))
--------------------------------------------------------------------------

    Molecular point group: c1

    Geometry (in Bohr), charge = 0, multiplicity = 2:

       Center              X                  Y                   Z               Mass
    ------------   -----------------  -----------------  -----------------  -----------------
         C           -0.254274807233     0.800546403125    -0.000000001794    12.000000000000
         O           -2.201708527233    -0.332257496175     0.000000008306    15.994914619570
         C            2.417214310967    -0.243417854475     0.000000008006    12.000000000000
         H            2.400524014367    -2.308707125075     0.000000027706     1.007825032230
         H            3.394218789067     0.474120174225    -1.665098508794     1.007825032230
         H            3.394219138667     0.474120345125     1.665098275306     1.007825032230

  Charge       = 0
  Multiplicity = 2
  Basis Set: ANONYMOUSFB0AE07D
    Blend: 6-31G_2DFP_
  Basis Set: (ANONYMOUSFB0AE07D AUX)
    Blend: DEF2-UNIVERSAL-JKFIT

    Orbital Energies [Eh]
    ---------------------

    Alpha Occupied:

       1A    -19.186931     2A    -10.272636     3A    -10.211120
       4A     -1.078047     5A     -0.762463     6A     -0.544246
       7A     -0.465491     8A     -0.457106     9A     -0.456106
      10A     -0.386367    11A     -0.385496    12A     -0.192653

    Alpha Virtual:

      13A     -0.020450    14A      0.091303    15A      0.136253
      16A      0.141010    17A      0.216835    18A      0.267634
      19A      0.427474    20A      0.431199    21A      0.443655
      22A      0.493498    23A      0.506336    24A      0.529677
      25A      0.563287    26A      0.576828    27A      0.605478
      28A      0.615798    29A      0.643387    30A      0.717057
      31A      0.764268    32A      0.784460    33A      0.831957
      34A      0.918536    35A      0.927173    36A      0.934415
      37A      1.022671    38A      1.084993    39A      1.106092
      40A      1.152269    41A      1.221663    42A      1.306247
      43A      1.316686    44A      1.326574    45A      1.401661
      46A      1.407406    47A      1.467370    48A      1.560528
      49A      1.629991    50A      1.652176    51A      1.719569
      52A      1.812444    53A      1.830849    54A      1.899904
      55A      2.064952    56A      2.168011    57A      2.486650
      58A      2.680527    59A      2.743566    60A      2.783958
      61A      2.840074    62A      2.894242    63A      2.974706
      64A      3.026816    65A      3.055114    66A      3.105542
      67A      3.113865    68A      3.180745    69A      3.313873
      70A      3.363549    71A      3.393208    72A      3.438804
      73A      3.464377    74A      3.482805    75A      3.569888
      76A      3.732465    77A      3.762696    78A      3.941660
      79A      3.982522    80A      4.051450    81A      4.107476
      82A      4.118848    83A      4.185544    84A      4.389054
      85A      4.432057    86A      4.446735    87A      4.533134
      88A      4.918716    89A      5.036816    90A      5.041827
      91A      5.197068    92A      5.205302    93A      5.465079
      94A      5.474602    95A      5.828760    96A      5.921838
      97A      6.097964    98A      6.769996    99A      6.772146
     100A      7.072561   101A      7.134501   102A      7.525872

    Beta Occupied:

       1A    -19.178868     2A    -10.262525     3A    -10.207798
       4A     -1.062042     5A     -0.750731     6A     -0.524428
       7A     -0.451669     8A     -0.446866     9A     -0.437983
      10A     -0.381124    11A     -0.346925

    Beta Virtual:

      12A     -0.053026    13A     -0.004154    14A      0.093977
      15A      0.141996    16A      0.144090    17A      0.227222
      18A      0.273410    19A      0.433187    20A      0.434826
      21A      0.465234    22A      0.500178    23A      0.527368
      24A      0.539117    25A      0.569567    26A      0.581113
      27A      0.623115    28A      0.624436    29A      0.648876
      30A      0.738876    31A      0.775478    32A      0.794586
      33A      0.832741    34A      0.923362    35A      0.940806
      36A      0.952462    37A      1.026833    38A      1.091013
      39A      1.108246    40A      1.158450    41A      1.230959
      42A      1.311757    43A      1.319510    44A      1.333357
      45A      1.411866    46A      1.412828    47A      1.479525
      48A      1.571804    49A      1.643274    50A      1.666452
      51A      1.725831    52A      1.815647    53A      1.844964
      54A      1.906525    55A      2.071657    56A      2.189422
      57A      2.499293    58A      2.694729    59A      2.757959
      60A      2.805254    61A      2.855793    62A      2.895889
      63A      2.984057    64A      3.043641    65A      3.063770
      66A      3.122252    67A      3.123972    68A      3.215575
      69A      3.357916    70A      3.375259    71A      3.399301
      72A      3.446535    73A      3.480482    74A      3.505736
      75A      3.583010    76A      3.758192    77A      3.772122
      78A      3.950245    79A      3.991752    80A      4.067740
      81A      4.121710    82A      4.122515    83A      4.196971
      84A      4.391289    85A      4.438259    86A      4.450909
      87A      4.544021    88A      4.922588    89A      5.054311
      90A      5.059788    91A      5.199255    92A      5.211001
      93A      5.477807    94A      5.488433    95A      5.841994
      96A      5.927432    97A      6.121139    98A      6.799223
      99A      6.801712   100A      7.076881   101A      7.163891
     102A      7.537569

    Final Occupation by Irrep:
              A
    DOCC [    11 ]
    SOCC [     1 ]

  @DF-UKS Final Energy:  -153.18832065328829

   => Energetics <=

    Nuclear Repulsion Energy =             62.6300679659187978
    One-Electron Energy =                -331.2699677750959495
    Two-Electron Energy =                 132.0277273575772483
    DFT Exchange-Correlation Energy =     -16.5761482016883654
    Empirical Dispersion Energy =           0.0000000000000000
    VV10 Nonlocal Energy =                  0.0000000000000000
    Total Energy =                       -153.1883206532882866

  UHF NO Occupations:
  HONO-2 :   10  A 1.9997880
  HONO-1 :   11  A 1.9991950
  HONO-0 :   12  A 1.0000000
  LUNO+0 :   13  A 0.0008050
  LUNO+1 :   14  A 0.0002120
  LUNO+2 :   15  A 0.0001848
  LUNO+3 :   16  A 0.0000618

Computation Completed

Properties will be evaluated at   0.000000,   0.000000,   0.000000 [a0]

Properties computed using the SCF density matrix

  Nuclear Dipole Moment: [e a0]
     X:     4.5529      Y:    -0.6758      Z:    -0.0000

  Electronic Dipole Moment: [e a0]
     X:    -3.6089      Y:     0.6261      Z:     0.0000

  Dipole Moment: [e a0]
     X:     0.9440      Y:    -0.0496      Z:    -0.0000     Total:     0.9453

  Dipole Moment: [D]
     X:     2.3994      Y:    -0.1261      Z:    -0.0000     Total:     2.4028

*** tstop() called on n031 at Thu Nov  4 14:55:20 2021
Module time:
	user time   =      62.24 seconds =       1.04 minutes
	system time =       0.43 seconds =       0.01 minutes
	total time  =         62 seconds =       1.03 minutes
Total time:
	user time   =      62.24 seconds =       1.04 minutes
	system time =       0.43 seconds =       0.01 minutes
	total time  =         62 seconds =       1.03 minutes
Grab this energy -153.1883206532883
    Psi4 stopped on: Thursday, 04 November 2021 02:55PM
    Psi4 wall time for execution: 0:01:02.72

*** Psi4 exiting successfully. Buy a developer a beer!
