                               Psi4 1.4a2.dev629

  ==> Input File <==

--------------------------------------------------------------------------
import os
memory 14 GB

molecule {
 C   -0.2661334323    0.8054394228    0.0000000000
 O   -2.2021909060   -0.3310409178    0.0000000103
 C    2.4137623223   -0.2432459312    0.0000000097
 H    2.4001959112   -2.3070491409    0.0000000291
 H    3.3904818524    0.4730155078   -1.6652893150
 H    3.3904822023    0.4730156793    1.6652890860
units bohr
0 2
}

basis {

assign 6-31g_2dfp_

[ 6-31g_2dfp_ ]

spherical

!----------------------------------------------------------------------
! Basis Set Exchange
! Version v0.8.13
! https://www.basissetexchange.org
!----------------------------------------------------------------------
!   Basis set: 6-31G(2df,p)
! Description: 6-31G(2df,p)
!        Role: orbital
!     Version: 0  (Data from the original Basis Set Exchange)
!----------------------------------------------------------------------

****
H     0
S    3   1.00
     18.7311370              0.03349460
      2.8253937              0.23472695
      0.6401217              0.81375733
S    1   1.00
      0.1612778              1.00000000
P    1   1.00
      1.5000000              1.0000000
P    1   1.00
      0.3750000              1.0000000
****
B     0
S    6   1.00
   2068.8823000              0.0018663
    310.6495700              0.0142515
     70.6830330              0.0695516
     19.8610800              0.2325729
      6.2993048              0.4670787
      2.1270270              0.3634314
SP   3   1.00
      4.7279710             -0.1303938              0.0745976
      1.1903377             -0.1307889              0.3078467
      0.3594117              1.1309444              0.7434568
SP   1   1.00
      0.1267512              1.0000000              1.0000000
D    1   1.00
      0.8020000              1.0000000
D    1   1.00
      0.2005000              1.0000000
F    1   1.00
      0.5000000              1.0000000
****
C     0
S    6   1.00
   3047.5249000              0.0018347
    457.3695100              0.0140373
    103.9486900              0.0688426
     29.2101550              0.2321844
      9.2866630              0.4679413
      3.1639270              0.3623120
SP   3   1.00
      7.8682724             -0.1193324              0.0689991
      1.8812885             -0.1608542              0.3164240
      0.5442493              1.1434564              0.7443083
SP   1   1.00
      0.1687144              1.0000000              1.0000000
D    1   1.00
      1.2520000              1.0000000
D    1   1.00
      0.3130000              1.0000000
F    1   1.00
      0.8000000              1.0000000
****
N     0
S    6   1.00
   4173.5110000              0.0018348
    627.4579000              0.0139950
    142.9021000              0.0685870
     40.2343300              0.2322410
     12.8202100              0.4690700
      4.3904370              0.3604550
SP   3   1.00
     11.6263580             -0.1149610              0.0675800
      2.7162800             -0.1691180              0.3239070
      0.7722180              1.1458520              0.7408950
SP   1   1.00
      0.2120313              1.0000000              1.0000000
D    1   1.00
      1.8260000              1.0000000
D    1   1.00
      0.4565000              1.0000000
F    1   1.00
      1.0000000              1.0000000
****
O     0
S    6   1.00
   5484.6717000              0.0018311
    825.2349500              0.0139501
    188.0469600              0.0684451
     52.9645000              0.2327143
     16.8975700              0.4701930
      5.7996353              0.3585209
SP   3   1.00
     15.5396160             -0.1107775              0.0708743
      3.5999336             -0.1480263              0.3397528
      1.0137618              1.1307670              0.7271586
SP   1   1.00
      0.2700058              1.0000000              1.0000000
D    1   1.00
      2.5840000              1.0000000
D    1   1.00
      0.6460000              1.0000000
F    1   1.00
      1.4000000              1.0000000
****
F     0
S    6   1.00
   7001.7130900              0.0018196169
   1051.3660900              0.0139160796
    239.2856900              0.0684053245
     67.3974453              0.233185760
     21.5199573              0.471267439
      7.40310130             0.356618546
SP   3   1.00
     20.8479528             -0.108506975            0.0716287243
      4.80830834            -0.146451658            0.3459121030
      1.34406986             1.128688580            0.7224699570
SP   1   1.00
      0.358151393            1.0000000              1.0000000
D    1   1.00
      3.5000000              1.0000000
D    1   1.00
      0.8750000              1.0000000
F    1   1.00
      1.8500000              1.0000000
****
Al     0
S    6   1.00
  13983.1000000              0.00194267
   2098.7500000              0.0148599
    477.7050000              0.0728494
    134.3600000              0.2468300
     42.8709000              0.4872580
     14.5189000              0.3234960
SP   6   1.00
    239.6680000             -0.00292619             0.00460285
     57.4419000             -0.0374080              0.0331990
     18.2859000             -0.1144870              0.1362820
      6.5991400              0.1156350              0.3304760
      2.4904900              0.6125950              0.4491460
      0.9445400              0.3937990              0.2657040
SP   3   1.00
      1.2779000             -0.2276060             -0.0175130
      0.3975900              0.00144583             0.2445330
      0.1600950              1.0927900              0.8049340
SP   1   1.00
      0.0556577              1.0000000              1.0000000
D    1   1.00
      0.6500000              1.0000000
D    1   1.00
      0.1625000              1.0000000
F    1   1.00
      0.2500000              1.0000000
****
Si     0
S    6   1.00
  16115.9000000              0.00195948
   2425.5800000              0.01492880
    553.8670000              0.07284780
    156.3400000              0.24613000
     50.0683000              0.48591400
     17.0178000              0.32500200
SP   6   1.00
    292.7180000             -0.00278094             0.00443826
     69.8731000             -0.03571460             0.03266790
     22.3363000             -0.11498500             0.13472100
      8.1503900              0.09356340             0.32867800
      3.1345800              0.60301700             0.44964000
      1.2254300              0.41895900             0.26137200
SP   3   1.00
      1.7273800             -0.24463000            -0.01779510
      0.5729220              0.00431572             0.25353900
      0.2221920              1.09818000             0.80066900
SP   1   1.00
      0.0778369              1.00000000             1.00000000
D    1   1.00
      0.9000000              1.0000000
D    1   1.00
      0.2250000              1.0000000
F    1   1.00
      0.3200000              1.0000000
****
P     0
S    6   1.00
  19413.3000000              0.0018516
   2909.4200000              0.0142062
    661.3640000              0.0699995
    185.7590000              0.2400790
     59.1943000              0.4847620
     20.0310000              0.3352000
SP   6   1.00
    339.4780000             -0.00278217             0.00456462
     81.0101000             -0.0360499              0.03369360
     25.8780000             -0.1166310              0.13975500
      9.4522100              0.0968328              0.33936200
      3.6656600              0.6144180              0.45092100
      1.4674600              0.4037980              0.23858600
SP   3   1.00
      2.1562300             -0.2529230             -0.01776530
      0.7489970              0.0328517              0.27405800
      0.2831450              1.0812500              0.78542100
SP   1   1.00
      0.0998317              1.0000000              1.00000000
D    1   1.00
      1.1000000              1.0000000
D    1   1.00
      0.2750000              1.0000000
F    1   1.00
      0.4500000              1.0000000
****
S     0
S    6   1.00
  21917.1000000              0.0018690
   3301.4900000              0.0142300
    754.1460000              0.0696960
    212.7110000              0.2384870
     67.9896000              0.4833070
     23.0515000              0.3380740
SP   6   1.00
    423.7350000             -0.0023767              0.0040610
    100.7100000             -0.0316930              0.0306810
     32.1599000             -0.1133170              0.1304520
     11.8079000              0.0560900              0.3272050
      4.6311000              0.5922550              0.4528510
      1.8702500              0.4550060              0.2560420
SP   3   1.00
      2.6158400             -0.2503740             -0.0145110
      0.9221670              0.0669570              0.3102630
      0.3412870              1.0545100              0.7544830
SP   1   1.00
      0.1171670              1.0000000              1.0000000
D    1   1.00
      1.3000000              1.0000000
D    1   1.00
      0.3250000              1.0000000
F    1   1.00
      0.5500000              1.0000000
****
Cl     0
S    6   1.00
  25180.1000000              0.0018330
   3780.3500000              0.0140340
    860.4740000              0.0690970
    242.1450000              0.2374520
     77.3349000              0.4830340
     26.2470000              0.3398560
SP   6   1.00
    491.7650000             -0.0022974              0.0039894
    116.9840000             -0.0307140              0.0303180
     37.4153000             -0.1125280              0.1298800
     13.7834000              0.0450160              0.3279510
      5.4521500              0.5893530              0.4535270
      2.2258800              0.4652060              0.2521540
SP   3   1.00
      3.1864900             -0.2518300             -0.0142990
      1.1442700              0.0615890              0.3235720
      0.4203770              1.0601800              0.7435070
SP   1   1.00
      0.1426570              1.0000000              1.0000000
D    1   1.00
      1.5000000              1.0000000
D    1   1.00
      0.3750000              1.0000000
F    1   1.00
      0.7000000              1.0000000
****
}

set {
reference uhf
freeze_core true
e_convergence 10
d_convergence 10
dft_spherical_points 1202
dft_radial_points 99
}

e = energy('b3lyp')

print_out('Grab this energy {0}'.format(e))
--------------------------------------------------------------------------

    Molecular point group: c1

    Geometry (in Bohr), charge = 0, multiplicity = 2:

       Center              X                  Y                   Z               Mass
    ------------   -----------------  -----------------  -----------------  -----------------
         C           -0.261500390472     0.803587128449    -0.000000001852    12.000000000000
         O           -2.197557864172    -0.332893212151     0.000000008448    15.994914619570
         C            2.418395364128    -0.245098225551     0.000000007848    12.000000000000
         H            2.404828953028    -2.308901435251     0.000000027248     1.007825032230
         H            3.395114894228     0.471163213449    -1.665289316852     1.007825032230
         H            3.395115244128     0.471163384949     1.665289084148     1.007825032230

  Charge       = 0
  Multiplicity = 2
  Basis Set: ANONYMOUS119BDF03
    Blend: 6-31G_2DFP_
  Basis Set: (ANONYMOUS119BDF03 AUX)
    Blend: DEF2-UNIVERSAL-JKFIT

    Orbital Energies [Eh]
    ---------------------

    Alpha Occupied:

       1A    -19.187229     2A    -10.272310     3A    -10.210775
       4A     -1.080652     5A     -0.761174     6A     -0.544087
       7A     -0.465630     8A     -0.457243     9A     -0.455950
      10A     -0.387648    11A     -0.386179    12A     -0.192368

    Alpha Virtual:

      13A     -0.019367    14A      0.091695    15A      0.136834
      16A      0.141352    17A      0.215885    18A      0.267812
      19A      0.427742    20A      0.431793    21A      0.443327
      22A      0.493248    23A      0.506516    24A      0.530061
      25A      0.563544    26A      0.577151    27A      0.607192
      28A      0.615165    29A      0.643602    30A      0.718009
      31A      0.765069    32A      0.784728    33A      0.832635
      34A      0.917338    35A      0.926090    36A      0.933920
      37A      1.022158    38A      1.086052    39A      1.107009
      40A      1.151404    41A      1.220157    42A      1.305161
      43A      1.317310    44A      1.325881    45A      1.402078
      46A      1.407052    47A      1.466865    48A      1.559592
      49A      1.630222    50A      1.653229    51A      1.720866
      52A      1.813354    53A      1.830707    54A      1.900530
      55A      2.064749    56A      2.166222    57A      2.492933
      58A      2.679866    59A      2.742395    60A      2.783609
      61A      2.841775    62A      2.895184    63A      2.973796
      64A      3.029381    65A      3.056359    66A      3.105421
      67A      3.111811    68A      3.181851    69A      3.313257
      70A      3.366517    71A      3.394683    72A      3.438007
      73A      3.463352    74A      3.484264    75A      3.570479
      76A      3.735785    77A      3.759104    78A      3.940753
      79A      3.977425    80A      4.049775    81A      4.103664
      82A      4.120990    83A      4.186307    84A      4.389042
      85A      4.427300    86A      4.445532    87A      4.531517
      88A      4.918360    89A      5.036785    90A      5.041779
      91A      5.197943    92A      5.207210    93A      5.470254
      94A      5.478981    95A      5.826463    96A      5.927474
      97A      6.100545    98A      6.769993    99A      6.772254
     100A      7.070683   101A      7.134535   102A      7.528370

    Beta Occupied:

       1A    -19.179173     2A    -10.262251     3A    -10.207376
       4A     -1.064731     5A     -0.749402     6A     -0.524271
       7A     -0.451433     8A     -0.446353     9A     -0.438342
      10A     -0.382453    11A     -0.348011

    Beta Virtual:

      12A     -0.052989    13A     -0.003075    14A      0.094394
      15A      0.142513    16A      0.144446    17A      0.226549
      18A      0.273516    19A      0.433787    20A      0.435657
      21A      0.464394    22A      0.499923    23A      0.527883
      24A      0.539232    25A      0.569963    26A      0.581363
      27A      0.622401    28A      0.625842    29A      0.649252
      30A      0.739938    31A      0.776175    32A      0.794747
      33A      0.833397    34A      0.922164    35A      0.940349
      36A      0.951326    37A      1.026333    38A      1.092024
      39A      1.109189    40A      1.157640    41A      1.229483
      42A      1.310698    43A      1.320178    44A      1.332663
      45A      1.412299    46A      1.412542    47A      1.479064
      48A      1.570848    49A      1.643560    50A      1.667524
      51A      1.727048    52A      1.816512    53A      1.844865
      54A      1.907157    55A      2.071441    56A      2.187541
      57A      2.505627    58A      2.694091    59A      2.756780
      60A      2.804893    61A      2.857335    62A      2.896844
      63A      2.983290    64A      3.046176    65A      3.064984
      66A      3.120258    67A      3.123919    68A      3.216601
      69A      3.357065    70A      3.378178    71A      3.400871
      72A      3.447072    73A      3.478290    74A      3.507184
      75A      3.583656    76A      3.760837    77A      3.769218
      78A      3.949368    79A      3.986747    80A      4.066242
      81A      4.119367    82A      4.123823    83A      4.197090
      84A      4.391305    85A      4.433425    86A      4.449689
      87A      4.542385    88A      4.922246    89A      5.054280
      90A      5.059744    91A      5.200100    92A      5.212855
      93A      5.482932    94A      5.492847    95A      5.839670
      96A      5.933061    97A      6.123687    98A      6.799226
      99A      6.801817   100A      7.074986   101A      7.163873
     102A      7.540034

    Final Occupation by Irrep:
              A
    DOCC [    11 ]
    SOCC [     1 ]

  @DF-UKS Final Energy:  -153.18839502253030

   => Energetics <=

    Nuclear Repulsion Energy =             62.6667285956371245
    One-Electron Energy =                -331.3367909620939145
    Two-Electron Energy =                 132.0595859732400470
    DFT Exchange-Correlation Energy =     -16.5779186293135403
    Empirical Dispersion Energy =           0.0000000000000000
    VV10 Nonlocal Energy =                  0.0000000000000000
    Total Energy =                       -153.1883950225303010

  UHF NO Occupations:
  HONO-2 :   10  A 1.9997800
  HONO-1 :   11  A 1.9992015
  HONO-0 :   12  A 1.0000000
  LUNO+0 :   13  A 0.0007985
  LUNO+1 :   14  A 0.0002200
  LUNO+2 :   15  A 0.0001812
  LUNO+3 :   16  A 0.0000616

Computation Completed

Properties will be evaluated at   0.000000,   0.000000,   0.000000 [a0]

Properties computed using the SCF density matrix

  Nuclear Dipole Moment: [e a0]
     X:     4.5560      Y:    -0.6788      Z:    -0.0000

  Electronic Dipole Moment: [e a0]
     X:    -3.6235      Y:     0.6282      Z:     0.0000

  Dipole Moment: [e a0]
     X:     0.9324      Y:    -0.0505      Z:    -0.0000     Total:     0.9338

  Dipole Moment: [D]
     X:     2.3700      Y:    -0.1285      Z:    -0.0000     Total:     2.3735

*** tstop() called on n081 at Thu Nov  4 14:56:47 2021
Module time:
	user time   =      44.08 seconds =       0.73 minutes
	system time =       0.51 seconds =       0.01 minutes
	total time  =         45 seconds =       0.75 minutes
Total time:
	user time   =      44.08 seconds =       0.73 minutes
	system time =       0.51 seconds =       0.01 minutes
	total time  =         45 seconds =       0.75 minutes
Grab this energy -153.1883950225303
    Psi4 stopped on: Thursday, 04 November 2021 02:56PM
    Psi4 wall time for execution: 0:00:44.63

*** Psi4 exiting successfully. Buy a developer a beer!
