                               Psi4 1.4a2.dev629

  ==> Input File <==

--------------------------------------------------------------------------
import os
memory 14 GB

molecule {
 C   -0.2579023416    0.8029683099    0.0000000000
 O   -2.1911552716   -0.3325196614    0.0000000000
 C    2.4088883574   -0.2469985664    0.0000000000
 H    2.3831864317   -2.3038482294    0.0000000000
 H    3.3908104032    0.4673818975   -1.6688979227
 H    3.3908104032    0.4673818975    1.6688979227
units bohr
0 2
}

basis {

assign 6-31g_2dfp_

[ 6-31g_2dfp_ ]

spherical

!----------------------------------------------------------------------
! Basis Set Exchange
! Version v0.8.13
! https://www.basissetexchange.org
!----------------------------------------------------------------------
!   Basis set: 6-31G(2df,p)
! Description: 6-31G(2df,p)
!        Role: orbital
!     Version: 0  (Data from the original Basis Set Exchange)
!----------------------------------------------------------------------

****
H     0
S    3   1.00
     18.7311370              0.03349460
      2.8253937              0.23472695
      0.6401217              0.81375733
S    1   1.00
      0.1612778              1.00000000
P    1   1.00
      1.5000000              1.0000000
P    1   1.00
      0.3750000              1.0000000
****
B     0
S    6   1.00
   2068.8823000              0.0018663
    310.6495700              0.0142515
     70.6830330              0.0695516
     19.8610800              0.2325729
      6.2993048              0.4670787
      2.1270270              0.3634314
SP   3   1.00
      4.7279710             -0.1303938              0.0745976
      1.1903377             -0.1307889              0.3078467
      0.3594117              1.1309444              0.7434568
SP   1   1.00
      0.1267512              1.0000000              1.0000000
D    1   1.00
      0.8020000              1.0000000
D    1   1.00
      0.2005000              1.0000000
F    1   1.00
      0.5000000              1.0000000
****
C     0
S    6   1.00
   3047.5249000              0.0018347
    457.3695100              0.0140373
    103.9486900              0.0688426
     29.2101550              0.2321844
      9.2866630              0.4679413
      3.1639270              0.3623120
SP   3   1.00
      7.8682724             -0.1193324              0.0689991
      1.8812885             -0.1608542              0.3164240
      0.5442493              1.1434564              0.7443083
SP   1   1.00
      0.1687144              1.0000000              1.0000000
D    1   1.00
      1.2520000              1.0000000
D    1   1.00
      0.3130000              1.0000000
F    1   1.00
      0.8000000              1.0000000
****
N     0
S    6   1.00
   4173.5110000              0.0018348
    627.4579000              0.0139950
    142.9021000              0.0685870
     40.2343300              0.2322410
     12.8202100              0.4690700
      4.3904370              0.3604550
SP   3   1.00
     11.6263580             -0.1149610              0.0675800
      2.7162800             -0.1691180              0.3239070
      0.7722180              1.1458520              0.7408950
SP   1   1.00
      0.2120313              1.0000000              1.0000000
D    1   1.00
      1.8260000              1.0000000
D    1   1.00
      0.4565000              1.0000000
F    1   1.00
      1.0000000              1.0000000
****
O     0
S    6   1.00
   5484.6717000              0.0018311
    825.2349500              0.0139501
    188.0469600              0.0684451
     52.9645000              0.2327143
     16.8975700              0.4701930
      5.7996353              0.3585209
SP   3   1.00
     15.5396160             -0.1107775              0.0708743
      3.5999336             -0.1480263              0.3397528
      1.0137618              1.1307670              0.7271586
SP   1   1.00
      0.2700058              1.0000000              1.0000000
D    1   1.00
      2.5840000              1.0000000
D    1   1.00
      0.6460000              1.0000000
F    1   1.00
      1.4000000              1.0000000
****
F     0
S    6   1.00
   7001.7130900              0.0018196169
   1051.3660900              0.0139160796
    239.2856900              0.0684053245
     67.3974453              0.233185760
     21.5199573              0.471267439
      7.40310130             0.356618546
SP   3   1.00
     20.8479528             -0.108506975            0.0716287243
      4.80830834            -0.146451658            0.3459121030
      1.34406986             1.128688580            0.7224699570
SP   1   1.00
      0.358151393            1.0000000              1.0000000
D    1   1.00
      3.5000000              1.0000000
D    1   1.00
      0.8750000              1.0000000
F    1   1.00
      1.8500000              1.0000000
****
Al     0
S    6   1.00
  13983.1000000              0.00194267
   2098.7500000              0.0148599
    477.7050000              0.0728494
    134.3600000              0.2468300
     42.8709000              0.4872580
     14.5189000              0.3234960
SP   6   1.00
    239.6680000             -0.00292619             0.00460285
     57.4419000             -0.0374080              0.0331990
     18.2859000             -0.1144870              0.1362820
      6.5991400              0.1156350              0.3304760
      2.4904900              0.6125950              0.4491460
      0.9445400              0.3937990              0.2657040
SP   3   1.00
      1.2779000             -0.2276060             -0.0175130
      0.3975900              0.00144583             0.2445330
      0.1600950              1.0927900              0.8049340
SP   1   1.00
      0.0556577              1.0000000              1.0000000
D    1   1.00
      0.6500000              1.0000000
D    1   1.00
      0.1625000              1.0000000
F    1   1.00
      0.2500000              1.0000000
****
Si     0
S    6   1.00
  16115.9000000              0.00195948
   2425.5800000              0.01492880
    553.8670000              0.07284780
    156.3400000              0.24613000
     50.0683000              0.48591400
     17.0178000              0.32500200
SP   6   1.00
    292.7180000             -0.00278094             0.00443826
     69.8731000             -0.03571460             0.03266790
     22.3363000             -0.11498500             0.13472100
      8.1503900              0.09356340             0.32867800
      3.1345800              0.60301700             0.44964000
      1.2254300              0.41895900             0.26137200
SP   3   1.00
      1.7273800             -0.24463000            -0.01779510
      0.5729220              0.00431572             0.25353900
      0.2221920              1.09818000             0.80066900
SP   1   1.00
      0.0778369              1.00000000             1.00000000
D    1   1.00
      0.9000000              1.0000000
D    1   1.00
      0.2250000              1.0000000
F    1   1.00
      0.3200000              1.0000000
****
P     0
S    6   1.00
  19413.3000000              0.0018516
   2909.4200000              0.0142062
    661.3640000              0.0699995
    185.7590000              0.2400790
     59.1943000              0.4847620
     20.0310000              0.3352000
SP   6   1.00
    339.4780000             -0.00278217             0.00456462
     81.0101000             -0.0360499              0.03369360
     25.8780000             -0.1166310              0.13975500
      9.4522100              0.0968328              0.33936200
      3.6656600              0.6144180              0.45092100
      1.4674600              0.4037980              0.23858600
SP   3   1.00
      2.1562300             -0.2529230             -0.01776530
      0.7489970              0.0328517              0.27405800
      0.2831450              1.0812500              0.78542100
SP   1   1.00
      0.0998317              1.0000000              1.00000000
D    1   1.00
      1.1000000              1.0000000
D    1   1.00
      0.2750000              1.0000000
F    1   1.00
      0.4500000              1.0000000
****
S     0
S    6   1.00
  21917.1000000              0.0018690
   3301.4900000              0.0142300
    754.1460000              0.0696960
    212.7110000              0.2384870
     67.9896000              0.4833070
     23.0515000              0.3380740
SP   6   1.00
    423.7350000             -0.0023767              0.0040610
    100.7100000             -0.0316930              0.0306810
     32.1599000             -0.1133170              0.1304520
     11.8079000              0.0560900              0.3272050
      4.6311000              0.5922550              0.4528510
      1.8702500              0.4550060              0.2560420
SP   3   1.00
      2.6158400             -0.2503740             -0.0145110
      0.9221670              0.0669570              0.3102630
      0.3412870              1.0545100              0.7544830
SP   1   1.00
      0.1171670              1.0000000              1.0000000
D    1   1.00
      1.3000000              1.0000000
D    1   1.00
      0.3250000              1.0000000
F    1   1.00
      0.5500000              1.0000000
****
Cl     0
S    6   1.00
  25180.1000000              0.0018330
   3780.3500000              0.0140340
    860.4740000              0.0690970
    242.1450000              0.2374520
     77.3349000              0.4830340
     26.2470000              0.3398560
SP   6   1.00
    491.7650000             -0.0022974              0.0039894
    116.9840000             -0.0307140              0.0303180
     37.4153000             -0.1125280              0.1298800
     13.7834000              0.0450160              0.3279510
      5.4521500              0.5893530              0.4535270
      2.2258800              0.4652060              0.2521540
SP   3   1.00
      3.1864900             -0.2518300             -0.0142990
      1.1442700              0.0615890              0.3235720
      0.4203770              1.0601800              0.7435070
SP   1   1.00
      0.1426570              1.0000000              1.0000000
D    1   1.00
      1.5000000              1.0000000
D    1   1.00
      0.3750000              1.0000000
F    1   1.00
      0.7000000              1.0000000
****
}

set {
reference uhf
freeze_core true
e_convergence 10
d_convergence 10
dft_spherical_points 1202
dft_radial_points 99
}

e = energy('b3lyp')

print_out('Grab this energy {0}'.format(e))
--------------------------------------------------------------------------

    Molecular point group: cs

    Geometry (in Bohr), charge = 0, multiplicity = 2:

       Center              X                  Y                   Z               Mass
    ------------   -----------------  -----------------  -----------------  -----------------
         C           -0.257925886234     0.803590932825     0.000000000000    12.000000000000
         O           -2.191178816234    -0.331897038475     0.000000000000    15.994914619570
         C            2.408864812766    -0.246375943475     0.000000000000    12.000000000000
         H            2.383162887066    -2.303225606475     0.000000000000     1.007825032230
         H            3.390786858566     0.468004520425    -1.668897922700     1.007825032230
         H            3.390786858566     0.468004520425     1.668897922700     1.007825032230

  Charge       = 0
  Multiplicity = 2
  Basis Set: ANONYMOUS979C16EE
    Blend: 6-31G_2DFP_
  Basis Set: (ANONYMOUS979C16EE AUX)
    Blend: DEF2-UNIVERSAL-JKFIT

    Orbital Energies [Eh]
    ---------------------

    Alpha Occupied:

       1Ap   -19.186803     2Ap   -10.271426     3Ap   -10.210435
       4Ap    -1.081335     5Ap    -0.762070     6Ap    -0.543902
       7Ap    -0.466512     8Ap    -0.457743     1App   -0.456219
       2App   -0.387406     9Ap    -0.386032    10Ap    -0.191919

    Alpha Virtual:

       3App   -0.018805    11Ap     0.091437    12Ap     0.137529
       4App    0.140745    13Ap     0.218108    14Ap     0.268310
      15Ap     0.427901     5App    0.432038    16Ap     0.443660
       6App    0.493303    17Ap     0.506383    18Ap     0.530336
       7App    0.562576    19Ap     0.577681    20Ap     0.608789
       8App    0.615432    21Ap     0.644447    22Ap     0.717754
       9App    0.766143    23Ap     0.785387    10App    0.831981
      11App    0.917237    24Ap     0.926906    25Ap     0.936133
      12App    1.023159    26Ap     1.086337    27Ap     1.106627
      13App    1.153334    28Ap     1.222703    29Ap     1.306535
      14App    1.316912    30Ap     1.327861    31Ap     1.402948
      15App    1.407069    32Ap     1.468504    33Ap     1.560127
      34Ap     1.630938    16App    1.653869    35Ap     1.719902
      17App    1.811816    36Ap     1.835462    37Ap     1.901873
      18App    2.065208    38Ap     2.167185    39Ap     2.495791
      19App    2.680168    40Ap     2.744444    41Ap     2.784809
      20App    2.840015    21App    2.894740    42Ap     2.974551
      43Ap     3.031507    22App    3.058575    23App    3.104796
      44Ap     3.115373    45Ap     3.181195    24App    3.314791
      46Ap     3.368454    25App    3.393771    26App    3.441308
      27App    3.465638    47Ap     3.485201    48Ap     3.571058
      49Ap     3.740004    50Ap     3.764082    51Ap     3.943176
      28App    3.982460    52Ap     4.055772    53Ap     4.109887
      29App    4.120145    54Ap     4.189534    30App    4.387494
      55Ap     4.435233    31App    4.447929    56Ap     4.534498
      57Ap     4.918340    58Ap     5.037114    32App    5.042306
      33App    5.192782    59Ap     5.212348    60Ap     5.474180
      34App    5.482464    61Ap     5.826843    35App    5.930885
      62Ap     6.105140    63Ap     6.770795    36App    6.772962
      37App    7.071332    64Ap     7.135217    65Ap     7.530222

    Beta Occupied:

       1Ap   -19.178737     2Ap   -10.261357     3Ap   -10.207063
       4Ap    -1.065408     5Ap    -0.750263     6Ap    -0.524156
       1App   -0.451665     7Ap    -0.447296     8Ap    -0.438818
       2App   -0.382247     9Ap    -0.347847

    Beta Virtual:

      10Ap    -0.052359     3App   -0.002538    11Ap     0.094076
      12Ap     0.143261     4App    0.143881    13Ap     0.228479
      14Ap     0.273993     5App    0.434010    15Ap     0.434941
      16Ap     0.465838     6App    0.499986    17Ap     0.527718
      18Ap     0.539210     7App    0.568873    19Ap     0.581913
       8App    0.622708    20Ap     0.627440    21Ap     0.650214
      22Ap     0.739743     9App    0.777278    23Ap     0.795376
      10App    0.832757    11App    0.922086    24Ap     0.943612
      25Ap     0.951085    12App    1.027352    26Ap     1.092378
      27Ap     1.108775    13App    1.159538    28Ap     1.231972
      29Ap     1.312057    14App    1.319699    30Ap     1.334653
      15App    1.412606    31Ap     1.413295    32Ap     1.480859
      33Ap     1.571226    34Ap     1.644298    16App    1.668248
      35Ap     1.726132    17App    1.814977    36Ap     1.849584
      37Ap     1.908575    18App    2.071921    38Ap     2.188613
      39Ap     2.508472    19App    2.694432    40Ap     2.759003
      41Ap     2.805894    20App    2.855293    21App    2.896382
      42Ap     2.984015    43Ap     3.048169    22App    3.067282
      23App    3.123562    44Ap     3.123805    45Ap     3.215922
      24App    3.358480    46Ap     3.379877    25App    3.399912
      26App    3.449215    27App    3.481705    47Ap     3.508280
      48Ap     3.584440    49Ap     3.765722    50Ap     3.773438
      51Ap     3.951878    28App    3.991725    52Ap     4.072077
      29App    4.122901    53Ap     4.123849    54Ap     4.201908
      30App    4.389777    55Ap     4.441452    31App    4.452119
      56Ap     4.545426    57Ap     4.922170    58Ap     5.054660
      32App    5.060312    33App    5.194906    59Ap     5.218078
      60Ap     5.486823    34App    5.496391    61Ap     5.840095
      35App    5.936477    62Ap     6.128341    63Ap     6.800076
      36App    6.802584    37App    7.075634    64Ap     7.164596
      65Ap     7.541887

    Final Occupation by Irrep:
             Ap   App
    DOCC [     9,    2 ]
    SOCC [     1,    0 ]

  @DF-UKS Final Energy:  -153.18842981670258

   => Energetics <=

    Nuclear Repulsion Energy =             62.8022972001535820
    One-Electron Energy =                -331.6045038873593285
    Two-Electron Energy =                 132.1944783463506496
    DFT Exchange-Correlation Energy =     -16.5807014758474764
    Empirical Dispersion Energy =           0.0000000000000000
    VV10 Nonlocal Energy =                  0.0000000000000000
    Total Energy =                       -153.1884298167025804

  UHF NO Occupations:
  HONO-2 :    8 Ap 1.9997862
  HONO-1 :    9 Ap 1.9992020
  HONO-0 :   10 Ap 1.0000000
  LUNO+0 :   11 Ap 0.0007980
  LUNO+1 :   12 Ap 0.0002138
  LUNO+2 :    3App 0.0001803
  LUNO+3 :   13 Ap 0.0000615

Computation Completed

Properties will be evaluated at   0.000000,   0.000000,   0.000000 [a0]

Properties computed using the SCF density matrix

  Nuclear Dipole Moment: [e a0]
     X:     4.5409      Y:    -0.6791      Z:     0.0000

  Electronic Dipole Moment: [e a0]
     X:    -3.6093      Y:     0.6274      Z:     0.0000

  Dipole Moment: [e a0]
     X:     0.9316      Y:    -0.0517      Z:     0.0000     Total:     0.9331

  Dipole Moment: [D]
     X:     2.3680      Y:    -0.1315      Z:     0.0000     Total:     2.3717

*** tstop() called on n040 at Tue Mar 15 10:34:21 2022
Module time:
	user time   =      62.39 seconds =       1.04 minutes
	system time =       0.38 seconds =       0.01 minutes
	total time  =         63 seconds =       1.05 minutes
Total time:
	user time   =      62.39 seconds =       1.04 minutes
	system time =       0.38 seconds =       0.01 minutes
	total time  =         63 seconds =       1.05 minutes
Grab this energy -153.18842981670258
    Psi4 stopped on: Tuesday, 15 March 2022 10:34AM
    Psi4 wall time for execution: 0:01:02.81

*** Psi4 exiting successfully. Buy a developer a beer!
