                               Psi4 1.4a2.dev629

  ==> Input File <==

--------------------------------------------------------------------------
import os
memory 14 GB

molecule {
 C   -0.2624622307    0.8040562366   -0.0000000005
 O   -2.1956020216   -0.3403492635    0.0000000097
 C    2.4107495277   -0.2422796613    0.0000000088
 H    2.3826624530   -2.2977838085    0.0000000263
 H    3.3956249322    0.4732454698   -1.6691499010
 H    3.3956252894    0.4732456468    1.6691496768
units bohr
0 2
}

basis {

assign 6-31g_2dfp_

[ 6-31g_2dfp_ ]

spherical

!----------------------------------------------------------------------
! Basis Set Exchange
! Version v0.8.13
! https://www.basissetexchange.org
!----------------------------------------------------------------------
!   Basis set: 6-31G(2df,p)
! Description: 6-31G(2df,p)
!        Role: orbital
!     Version: 0  (Data from the original Basis Set Exchange)
!----------------------------------------------------------------------

****
H     0
S    3   1.00
     18.7311370              0.03349460
      2.8253937              0.23472695
      0.6401217              0.81375733
S    1   1.00
      0.1612778              1.00000000
P    1   1.00
      1.5000000              1.0000000
P    1   1.00
      0.3750000              1.0000000
****
B     0
S    6   1.00
   2068.8823000              0.0018663
    310.6495700              0.0142515
     70.6830330              0.0695516
     19.8610800              0.2325729
      6.2993048              0.4670787
      2.1270270              0.3634314
SP   3   1.00
      4.7279710             -0.1303938              0.0745976
      1.1903377             -0.1307889              0.3078467
      0.3594117              1.1309444              0.7434568
SP   1   1.00
      0.1267512              1.0000000              1.0000000
D    1   1.00
      0.8020000              1.0000000
D    1   1.00
      0.2005000              1.0000000
F    1   1.00
      0.5000000              1.0000000
****
C     0
S    6   1.00
   3047.5249000              0.0018347
    457.3695100              0.0140373
    103.9486900              0.0688426
     29.2101550              0.2321844
      9.2866630              0.4679413
      3.1639270              0.3623120
SP   3   1.00
      7.8682724             -0.1193324              0.0689991
      1.8812885             -0.1608542              0.3164240
      0.5442493              1.1434564              0.7443083
SP   1   1.00
      0.1687144              1.0000000              1.0000000
D    1   1.00
      1.2520000              1.0000000
D    1   1.00
      0.3130000              1.0000000
F    1   1.00
      0.8000000              1.0000000
****
N     0
S    6   1.00
   4173.5110000              0.0018348
    627.4579000              0.0139950
    142.9021000              0.0685870
     40.2343300              0.2322410
     12.8202100              0.4690700
      4.3904370              0.3604550
SP   3   1.00
     11.6263580             -0.1149610              0.0675800
      2.7162800             -0.1691180              0.3239070
      0.7722180              1.1458520              0.7408950
SP   1   1.00
      0.2120313              1.0000000              1.0000000
D    1   1.00
      1.8260000              1.0000000
D    1   1.00
      0.4565000              1.0000000
F    1   1.00
      1.0000000              1.0000000
****
O     0
S    6   1.00
   5484.6717000              0.0018311
    825.2349500              0.0139501
    188.0469600              0.0684451
     52.9645000              0.2327143
     16.8975700              0.4701930
      5.7996353              0.3585209
SP   3   1.00
     15.5396160             -0.1107775              0.0708743
      3.5999336             -0.1480263              0.3397528
      1.0137618              1.1307670              0.7271586
SP   1   1.00
      0.2700058              1.0000000              1.0000000
D    1   1.00
      2.5840000              1.0000000
D    1   1.00
      0.6460000              1.0000000
F    1   1.00
      1.4000000              1.0000000
****
F     0
S    6   1.00
   7001.7130900              0.0018196169
   1051.3660900              0.0139160796
    239.2856900              0.0684053245
     67.3974453              0.233185760
     21.5199573              0.471267439
      7.40310130             0.356618546
SP   3   1.00
     20.8479528             -0.108506975            0.0716287243
      4.80830834            -0.146451658            0.3459121030
      1.34406986             1.128688580            0.7224699570
SP   1   1.00
      0.358151393            1.0000000              1.0000000
D    1   1.00
      3.5000000              1.0000000
D    1   1.00
      0.8750000              1.0000000
F    1   1.00
      1.8500000              1.0000000
****
Al     0
S    6   1.00
  13983.1000000              0.00194267
   2098.7500000              0.0148599
    477.7050000              0.0728494
    134.3600000              0.2468300
     42.8709000              0.4872580
     14.5189000              0.3234960
SP   6   1.00
    239.6680000             -0.00292619             0.00460285
     57.4419000             -0.0374080              0.0331990
     18.2859000             -0.1144870              0.1362820
      6.5991400              0.1156350              0.3304760
      2.4904900              0.6125950              0.4491460
      0.9445400              0.3937990              0.2657040
SP   3   1.00
      1.2779000             -0.2276060             -0.0175130
      0.3975900              0.00144583             0.2445330
      0.1600950              1.0927900              0.8049340
SP   1   1.00
      0.0556577              1.0000000              1.0000000
D    1   1.00
      0.6500000              1.0000000
D    1   1.00
      0.1625000              1.0000000
F    1   1.00
      0.2500000              1.0000000
****
Si     0
S    6   1.00
  16115.9000000              0.00195948
   2425.5800000              0.01492880
    553.8670000              0.07284780
    156.3400000              0.24613000
     50.0683000              0.48591400
     17.0178000              0.32500200
SP   6   1.00
    292.7180000             -0.00278094             0.00443826
     69.8731000             -0.03571460             0.03266790
     22.3363000             -0.11498500             0.13472100
      8.1503900              0.09356340             0.32867800
      3.1345800              0.60301700             0.44964000
      1.2254300              0.41895900             0.26137200
SP   3   1.00
      1.7273800             -0.24463000            -0.01779510
      0.5729220              0.00431572             0.25353900
      0.2221920              1.09818000             0.80066900
SP   1   1.00
      0.0778369              1.00000000             1.00000000
D    1   1.00
      0.9000000              1.0000000
D    1   1.00
      0.2250000              1.0000000
F    1   1.00
      0.3200000              1.0000000
****
P     0
S    6   1.00
  19413.3000000              0.0018516
   2909.4200000              0.0142062
    661.3640000              0.0699995
    185.7590000              0.2400790
     59.1943000              0.4847620
     20.0310000              0.3352000
SP   6   1.00
    339.4780000             -0.00278217             0.00456462
     81.0101000             -0.0360499              0.03369360
     25.8780000             -0.1166310              0.13975500
      9.4522100              0.0968328              0.33936200
      3.6656600              0.6144180              0.45092100
      1.4674600              0.4037980              0.23858600
SP   3   1.00
      2.1562300             -0.2529230             -0.01776530
      0.7489970              0.0328517              0.27405800
      0.2831450              1.0812500              0.78542100
SP   1   1.00
      0.0998317              1.0000000              1.00000000
D    1   1.00
      1.1000000              1.0000000
D    1   1.00
      0.2750000              1.0000000
F    1   1.00
      0.4500000              1.0000000
****
S     0
S    6   1.00
  21917.1000000              0.0018690
   3301.4900000              0.0142300
    754.1460000              0.0696960
    212.7110000              0.2384870
     67.9896000              0.4833070
     23.0515000              0.3380740
SP   6   1.00
    423.7350000             -0.0023767              0.0040610
    100.7100000             -0.0316930              0.0306810
     32.1599000             -0.1133170              0.1304520
     11.8079000              0.0560900              0.3272050
      4.6311000              0.5922550              0.4528510
      1.8702500              0.4550060              0.2560420
SP   3   1.00
      2.6158400             -0.2503740             -0.0145110
      0.9221670              0.0669570              0.3102630
      0.3412870              1.0545100              0.7544830
SP   1   1.00
      0.1171670              1.0000000              1.0000000
D    1   1.00
      1.3000000              1.0000000
D    1   1.00
      0.3250000              1.0000000
F    1   1.00
      0.5500000              1.0000000
****
Cl     0
S    6   1.00
  25180.1000000              0.0018330
   3780.3500000              0.0140340
    860.4740000              0.0690970
    242.1450000              0.2374520
     77.3349000              0.4830340
     26.2470000              0.3398560
SP   6   1.00
    491.7650000             -0.0022974              0.0039894
    116.9840000             -0.0307140              0.0303180
     37.4153000             -0.1125280              0.1298800
     13.7834000              0.0450160              0.3279510
      5.4521500              0.5893530              0.4535270
      2.2258800              0.4652060              0.2521540
SP   3   1.00
      3.1864900             -0.2518300             -0.0142990
      1.1442700              0.0615890              0.3235720
      0.4203770              1.0601800              0.7435070
SP   1   1.00
      0.1426570              1.0000000              1.0000000
D    1   1.00
      1.5000000              1.0000000
D    1   1.00
      0.3750000              1.0000000
F    1   1.00
      0.7000000              1.0000000
****
}

set {
reference uhf
freeze_core true
e_convergence 10
d_convergence 10
dft_spherical_points 1202
dft_radial_points 99
}

e = energy('b3lyp')

print_out('Grab this energy {0}'.format(e))
--------------------------------------------------------------------------

    Molecular point group: c1

    Geometry (in Bohr), charge = 0, multiplicity = 2:

       Center              X                  Y                   Z               Mass
    ------------   -----------------  -----------------  -----------------  -----------------
         C           -0.260292914886     0.805553389518    -0.000000001786    12.000000000000
         O           -2.193432705786    -0.338852110582     0.000000008414    15.994914619570
         C            2.412918843514    -0.240782508382     0.000000007514    12.000000000000
         H            2.384831768814    -2.296286655582     0.000000025014     1.007825032230
         H            3.397794248014     0.474742622718    -1.669149902286     1.007825032230
         H            3.397794605214     0.474742799718     1.669149675514     1.007825032230

  Charge       = 0
  Multiplicity = 2
  Basis Set: ANONYMOUSCE47A4BD
    Blend: 6-31G_2DFP_
  Basis Set: (ANONYMOUSCE47A4BD AUX)
    Blend: DEF2-UNIVERSAL-JKFIT

    Orbital Energies [Eh]
    ---------------------

    Alpha Occupied:

       1A    -19.186980     2A    -10.272099     3A    -10.210884
       4A     -1.080135     5A     -0.761652     6A     -0.544056
       7A     -0.466231     8A     -0.457353     9A     -0.455539
      10A     -0.386935    11A     -0.385988    12A     -0.192548

    Alpha Virtual:

      13A     -0.019657    14A      0.091255    15A      0.137546
      16A      0.140441    17A      0.217113    18A      0.267943
      19A      0.427590    20A      0.432329    21A      0.443063
      22A      0.493048    23A      0.506462    24A      0.530276
      25A      0.562210    26A      0.577444    27A      0.606900
      28A      0.615075    29A      0.643879    30A      0.717395
      31A      0.766040    32A      0.784874    33A      0.831776
      34A      0.917319    35A      0.927350    36A      0.936254
      37A      1.021325    38A      1.083843    39A      1.106913
      40A      1.153788    41A      1.220813    42A      1.305706
      43A      1.316040    44A      1.327656    45A      1.403263
      46A      1.405745    47A      1.467414    48A      1.560087
      49A      1.629164    50A      1.652785    51A      1.719032
      52A      1.810313    53A      1.833878    54A      1.900880
      55A      2.063593    56A      2.165279    57A      2.492273
      58A      2.679168    59A      2.743314    60A      2.784323
      61A      2.839150    62A      2.894654    63A      2.973039
      64A      3.031431    65A      3.057766    66A      3.106291
      67A      3.113758    68A      3.182015    69A      3.315043
      70A      3.367494    71A      3.393162    72A      3.440065
      73A      3.465433    74A      3.484636    75A      3.570695
      76A      3.735907    77A      3.760293    78A      3.941974
      79A      3.977964    80A      4.051258    81A      4.108740
      82A      4.118887    83A      4.189478    84A      4.384939
      85A      4.432038    86A      4.446607    87A      4.530919
      88A      4.916924    89A      5.036703    90A      5.041954
      91A      5.190503    92A      5.211089    93A      5.470107
      94A      5.477978    95A      5.827007    96A      5.926385
      97A      6.100701    98A      6.770315    99A      6.772450
     100A      7.071122   101A      7.134913   102A      7.528222

    Beta Occupied:

       1A    -19.178918     2A    -10.262020     3A    -10.207506
       4A     -1.064185     5A     -0.749851     6A     -0.524251
       7A     -0.451007     8A     -0.447220     9A     -0.438447
      10A     -0.381767    11A     -0.347580

    Beta Virtual:

      12A     -0.052981    13A     -0.003389    14A      0.093886
      15A      0.143223    16A      0.143586    17A      0.227599
      18A      0.273679    19A      0.434304    20A      0.434661
      21A      0.465133    22A      0.499703    23A      0.527797
      24A      0.539173    25A      0.568500    26A      0.581677
      27A      0.622372    28A      0.625835    29A      0.649431
      30A      0.739216    31A      0.777230    32A      0.794931
      33A      0.832544    34A      0.922158    35A      0.943872
      36A      0.951381    37A      1.025477    38A      1.089861
      39A      1.109096    40A      1.159985    41A      1.230122
      42A      1.311183    43A      1.318806    44A      1.334468
      45A      1.411274    46A      1.413637    47A      1.479710
      48A      1.571271    49A      1.642451    50A      1.667133
      51A      1.725212    52A      1.813501    53A      1.847984
      54A      1.907506    55A      2.070293    56A      2.186688
      57A      2.504938    58A      2.693386    59A      2.757889
      60A      2.805451    61A      2.854579    62A      2.896266
      63A      2.982393    64A      3.048035    65A      3.066423
      66A      3.122301    67A      3.125048    68A      3.216863
      69A      3.358832    70A      3.379173    71A      3.399314
      72A      3.447922    73A      3.481599    74A      3.507207
      75A      3.584277    76A      3.761382    77A      3.769918
      78A      3.950685    79A      3.987209    80A      4.067602
      81A      4.121626    82A      4.122760    83A      4.201896
      84A      4.387231    85A      4.438250    86A      4.450781
      87A      4.541786    88A      4.920711    89A      5.054254
      90A      5.059944    91A      5.192617    92A      5.216794
      93A      5.482788    94A      5.491891    95A      5.840242
      96A      5.931971    97A      6.123899    98A      6.799577
      99A      6.802050   100A      7.075422   101A      7.164283
     102A      7.539894

    Final Occupation by Irrep:
              A
    DOCC [    11 ]
    SOCC [     1 ]

  @DF-UKS Final Energy:  -153.18838045876709

   => Energetics <=

    Nuclear Repulsion Energy =             62.7107738965291617
    One-Electron Energy =                -331.4268175507961587
    Two-Electron Energy =                 132.1055029687320257
    DFT Exchange-Correlation Energy =     -16.5778397732321530
    Empirical Dispersion Energy =           0.0000000000000000
    VV10 Nonlocal Energy =                  0.0000000000000000
    Total Energy =                       -153.1883804587670852

  UHF NO Occupations:
  HONO-2 :   10  A 1.9997847
  HONO-1 :   11  A 1.9991999
  HONO-0 :   12  A 1.0000000
  LUNO+0 :   13  A 0.0008001
  LUNO+1 :   14  A 0.0002153
  LUNO+2 :   15  A 0.0001820
  LUNO+3 :   16  A 0.0000617

Computation Completed

Properties will be evaluated at   0.000000,   0.000000,   0.000000 [a0]

Properties computed using the SCF density matrix

  Nuclear Dipole Moment: [e a0]
     X:     4.5487      Y:    -0.6690      Z:    -0.0000

  Electronic Dipole Moment: [e a0]
     X:    -3.6136      Y:     0.6198      Z:     0.0000

  Dipole Moment: [e a0]
     X:     0.9352      Y:    -0.0492      Z:    -0.0000     Total:     0.9365

  Dipole Moment: [D]
     X:     2.3769      Y:    -0.1251      Z:    -0.0000     Total:     2.3802

*** tstop() called on n071 at Thu Nov  4 14:57:44 2021
Module time:
	user time   =      52.01 seconds =       0.87 minutes
	system time =       0.61 seconds =       0.01 minutes
	total time  =         52 seconds =       0.87 minutes
Total time:
	user time   =      52.01 seconds =       0.87 minutes
	system time =       0.61 seconds =       0.01 minutes
	total time  =         52 seconds =       0.87 minutes
Grab this energy -153.18838045876709
    Psi4 stopped on: Thursday, 04 November 2021 02:57PM
    Psi4 wall time for execution: 0:00:52.72

*** Psi4 exiting successfully. Buy a developer a beer!
