                               Psi4 1.4a2.dev629

  ==> Input File <==

--------------------------------------------------------------------------
import os
memory 14 GB

molecule {
 C   -0.2590573613    0.8044611181   -0.0010368480
 O   -2.1911991425   -0.3328330400   -0.0040728516
 C    2.4123610023   -0.2460217345    0.0007935974
 H    2.3820081429   -2.3089041808    0.0033250996
 H    3.3835361703    0.4709007169   -1.6639393161
 H    3.3969891705    0.4667627681    1.6649303187
units bohr
0 2
}

basis {

assign 6-31g_2dfp_

[ 6-31g_2dfp_ ]

spherical

!----------------------------------------------------------------------
! Basis Set Exchange
! Version v0.8.13
! https://www.basissetexchange.org
!----------------------------------------------------------------------
!   Basis set: 6-31G(2df,p)
! Description: 6-31G(2df,p)
!        Role: orbital
!     Version: 0  (Data from the original Basis Set Exchange)
!----------------------------------------------------------------------

****
H     0
S    3   1.00
     18.7311370              0.03349460
      2.8253937              0.23472695
      0.6401217              0.81375733
S    1   1.00
      0.1612778              1.00000000
P    1   1.00
      1.5000000              1.0000000
P    1   1.00
      0.3750000              1.0000000
****
B     0
S    6   1.00
   2068.8823000              0.0018663
    310.6495700              0.0142515
     70.6830330              0.0695516
     19.8610800              0.2325729
      6.2993048              0.4670787
      2.1270270              0.3634314
SP   3   1.00
      4.7279710             -0.1303938              0.0745976
      1.1903377             -0.1307889              0.3078467
      0.3594117              1.1309444              0.7434568
SP   1   1.00
      0.1267512              1.0000000              1.0000000
D    1   1.00
      0.8020000              1.0000000
D    1   1.00
      0.2005000              1.0000000
F    1   1.00
      0.5000000              1.0000000
****
C     0
S    6   1.00
   3047.5249000              0.0018347
    457.3695100              0.0140373
    103.9486900              0.0688426
     29.2101550              0.2321844
      9.2866630              0.4679413
      3.1639270              0.3623120
SP   3   1.00
      7.8682724             -0.1193324              0.0689991
      1.8812885             -0.1608542              0.3164240
      0.5442493              1.1434564              0.7443083
SP   1   1.00
      0.1687144              1.0000000              1.0000000
D    1   1.00
      1.2520000              1.0000000
D    1   1.00
      0.3130000              1.0000000
F    1   1.00
      0.8000000              1.0000000
****
N     0
S    6   1.00
   4173.5110000              0.0018348
    627.4579000              0.0139950
    142.9021000              0.0685870
     40.2343300              0.2322410
     12.8202100              0.4690700
      4.3904370              0.3604550
SP   3   1.00
     11.6263580             -0.1149610              0.0675800
      2.7162800             -0.1691180              0.3239070
      0.7722180              1.1458520              0.7408950
SP   1   1.00
      0.2120313              1.0000000              1.0000000
D    1   1.00
      1.8260000              1.0000000
D    1   1.00
      0.4565000              1.0000000
F    1   1.00
      1.0000000              1.0000000
****
O     0
S    6   1.00
   5484.6717000              0.0018311
    825.2349500              0.0139501
    188.0469600              0.0684451
     52.9645000              0.2327143
     16.8975700              0.4701930
      5.7996353              0.3585209
SP   3   1.00
     15.5396160             -0.1107775              0.0708743
      3.5999336             -0.1480263              0.3397528
      1.0137618              1.1307670              0.7271586
SP   1   1.00
      0.2700058              1.0000000              1.0000000
D    1   1.00
      2.5840000              1.0000000
D    1   1.00
      0.6460000              1.0000000
F    1   1.00
      1.4000000              1.0000000
****
F     0
S    6   1.00
   7001.7130900              0.0018196169
   1051.3660900              0.0139160796
    239.2856900              0.0684053245
     67.3974453              0.233185760
     21.5199573              0.471267439
      7.40310130             0.356618546
SP   3   1.00
     20.8479528             -0.108506975            0.0716287243
      4.80830834            -0.146451658            0.3459121030
      1.34406986             1.128688580            0.7224699570
SP   1   1.00
      0.358151393            1.0000000              1.0000000
D    1   1.00
      3.5000000              1.0000000
D    1   1.00
      0.8750000              1.0000000
F    1   1.00
      1.8500000              1.0000000
****
Al     0
S    6   1.00
  13983.1000000              0.00194267
   2098.7500000              0.0148599
    477.7050000              0.0728494
    134.3600000              0.2468300
     42.8709000              0.4872580
     14.5189000              0.3234960
SP   6   1.00
    239.6680000             -0.00292619             0.00460285
     57.4419000             -0.0374080              0.0331990
     18.2859000             -0.1144870              0.1362820
      6.5991400              0.1156350              0.3304760
      2.4904900              0.6125950              0.4491460
      0.9445400              0.3937990              0.2657040
SP   3   1.00
      1.2779000             -0.2276060             -0.0175130
      0.3975900              0.00144583             0.2445330
      0.1600950              1.0927900              0.8049340
SP   1   1.00
      0.0556577              1.0000000              1.0000000
D    1   1.00
      0.6500000              1.0000000
D    1   1.00
      0.1625000              1.0000000
F    1   1.00
      0.2500000              1.0000000
****
Si     0
S    6   1.00
  16115.9000000              0.00195948
   2425.5800000              0.01492880
    553.8670000              0.07284780
    156.3400000              0.24613000
     50.0683000              0.48591400
     17.0178000              0.32500200
SP   6   1.00
    292.7180000             -0.00278094             0.00443826
     69.8731000             -0.03571460             0.03266790
     22.3363000             -0.11498500             0.13472100
      8.1503900              0.09356340             0.32867800
      3.1345800              0.60301700             0.44964000
      1.2254300              0.41895900             0.26137200
SP   3   1.00
      1.7273800             -0.24463000            -0.01779510
      0.5729220              0.00431572             0.25353900
      0.2221920              1.09818000             0.80066900
SP   1   1.00
      0.0778369              1.00000000             1.00000000
D    1   1.00
      0.9000000              1.0000000
D    1   1.00
      0.2250000              1.0000000
F    1   1.00
      0.3200000              1.0000000
****
P     0
S    6   1.00
  19413.3000000              0.0018516
   2909.4200000              0.0142062
    661.3640000              0.0699995
    185.7590000              0.2400790
     59.1943000              0.4847620
     20.0310000              0.3352000
SP   6   1.00
    339.4780000             -0.00278217             0.00456462
     81.0101000             -0.0360499              0.03369360
     25.8780000             -0.1166310              0.13975500
      9.4522100              0.0968328              0.33936200
      3.6656600              0.6144180              0.45092100
      1.4674600              0.4037980              0.23858600
SP   3   1.00
      2.1562300             -0.2529230             -0.01776530
      0.7489970              0.0328517              0.27405800
      0.2831450              1.0812500              0.78542100
SP   1   1.00
      0.0998317              1.0000000              1.00000000
D    1   1.00
      1.1000000              1.0000000
D    1   1.00
      0.2750000              1.0000000
F    1   1.00
      0.4500000              1.0000000
****
S     0
S    6   1.00
  21917.1000000              0.0018690
   3301.4900000              0.0142300
    754.1460000              0.0696960
    212.7110000              0.2384870
     67.9896000              0.4833070
     23.0515000              0.3380740
SP   6   1.00
    423.7350000             -0.0023767              0.0040610
    100.7100000             -0.0316930              0.0306810
     32.1599000             -0.1133170              0.1304520
     11.8079000              0.0560900              0.3272050
      4.6311000              0.5922550              0.4528510
      1.8702500              0.4550060              0.2560420
SP   3   1.00
      2.6158400             -0.2503740             -0.0145110
      0.9221670              0.0669570              0.3102630
      0.3412870              1.0545100              0.7544830
SP   1   1.00
      0.1171670              1.0000000              1.0000000
D    1   1.00
      1.3000000              1.0000000
D    1   1.00
      0.3250000              1.0000000
F    1   1.00
      0.5500000              1.0000000
****
Cl     0
S    6   1.00
  25180.1000000              0.0018330
   3780.3500000              0.0140340
    860.4740000              0.0690970
    242.1450000              0.2374520
     77.3349000              0.4830340
     26.2470000              0.3398560
SP   6   1.00
    491.7650000             -0.0022974              0.0039894
    116.9840000             -0.0307140              0.0303180
     37.4153000             -0.1125280              0.1298800
     13.7834000              0.0450160              0.3279510
      5.4521500              0.5893530              0.4535270
      2.2258800              0.4652060              0.2521540
SP   3   1.00
      3.1864900             -0.2518300             -0.0142990
      1.1442700              0.0615890              0.3235720
      0.4203770              1.0601800              0.7435070
SP   1   1.00
      0.1426570              1.0000000              1.0000000
D    1   1.00
      1.5000000              1.0000000
D    1   1.00
      0.3750000              1.0000000
F    1   1.00
      0.7000000              1.0000000
****
}

set {
reference uhf
freeze_core true
e_convergence 10
d_convergence 10
dft_spherical_points 1202
dft_radial_points 99
}

e = energy('b3lyp')

print_out('Grab this energy {0}'.format(e))
--------------------------------------------------------------------------

    Molecular point group: c1

    Geometry (in Bohr), charge = 0, multiplicity = 2:

       Center              X                  Y                   Z               Mass
    ------------   -----------------  -----------------  -----------------  -----------------
         C           -0.259657827680     0.804561869259     0.000444240562    12.000000000000
         O           -2.191799608880    -0.332732288841    -0.002591763038    15.994914619570
         C            2.411760535920    -0.245920983341     0.002274685962    12.000000000000
         H            2.381407676520    -2.308803429641     0.004806188162     1.007825032230
         H            3.382935703920     0.471001468059    -1.662458227538     1.007825032230
         H            3.396388704120     0.466863519259     1.666411407262     1.007825032230

  Charge       = 0
  Multiplicity = 2
  Basis Set: ANONYMOUS9F24A6A9
    Blend: 6-31G_2DFP_
  Basis Set: (ANONYMOUS9F24A6A9 AUX)
    Blend: DEF2-UNIVERSAL-JKFIT

    Orbital Energies [Eh]
    ---------------------

    Alpha Occupied:

       1A    -19.186910     2A    -10.271573     3A    -10.210329
       4A     -1.081398     5A     -0.761849     6A     -0.543785
       7A     -0.466562     8A     -0.457368     9A     -0.456300
      10A     -0.387712    11A     -0.386212    12A     -0.191974

    Alpha Virtual:

      13A     -0.018742    14A      0.091825    15A      0.136983
      16A      0.141384    17A      0.217319    18A      0.268149
      19A      0.427992    20A      0.431709    21A      0.443630
      22A      0.493649    23A      0.506355    24A      0.530434
      25A      0.563329    26A      0.577650    27A      0.608538
      28A      0.615869    29A      0.643996    30A      0.717731
      31A      0.766184    32A      0.785371    33A      0.832180
      34A      0.917250    35A      0.927083    36A      0.935708
      37A      1.023308    38A      1.085334    39A      1.106832
      40A      1.153457    41A      1.221845    42A      1.305847
      43A      1.316370    44A      1.327027    45A      1.404049
      46A      1.408480    47A      1.468366    48A      1.559752
      49A      1.630639    50A      1.653957    51A      1.721407
      52A      1.813508    53A      1.834297    54A      1.900394
      55A      2.065669    56A      2.166594    57A      2.495795
      58A      2.680298    59A      2.743672    60A      2.784337
      61A      2.842319    62A      2.894651    63A      2.973274
      64A      3.031326    65A      3.058270    66A      3.104900
      67A      3.114334    68A      3.182206    69A      3.313969
      70A      3.369853    71A      3.393075    72A      3.440429
      73A      3.465461    74A      3.485690    75A      3.571925
      76A      3.739689    77A      3.760462    78A      3.941782
      79A      3.982399    80A      4.055280    81A      4.109871
      82A      4.118958    83A      4.188243    84A      4.391208
      85A      4.434318    86A      4.449697    87A      4.530577
      88A      4.921543    89A      5.037100    90A      5.042217
      91A      5.198965    92A      5.207301    93A      5.473885
      94A      5.482413    95A      5.826500    96A      5.930693
      97A      6.104039    98A      6.770629    99A      6.772813
     100A      7.070792   101A      7.135002   102A      7.529989

    Beta Occupied:

       1A    -19.178853     2A    -10.261518     3A    -10.206941
       4A     -1.065489     5A     -0.750055     6A     -0.524056
       7A     -0.451914     8A     -0.446837     9A     -0.438774
      10A     -0.382529    11A     -0.348014

    Beta Virtual:

      12A     -0.052560    13A     -0.002462    14A      0.094543
      15A      0.142634    16A      0.144496    17A      0.227831
      18A      0.273833    19A      0.433607    20A      0.435406
      21A      0.465483    22A      0.500341    23A      0.527761
      24A      0.539423    25A      0.569740    26A      0.581836
      27A      0.623043    28A      0.627085    29A      0.649702
      30A      0.739715    31A      0.777334    32A      0.795341
      33A      0.832954    34A      0.922091    35A      0.943479
      36A      0.950987    37A      1.027502    38A      1.091531
      39A      1.108901    40A      1.159659    41A      1.231118
      42A      1.311355    43A      1.319199    44A      1.333818
      45A      1.413942    46A      1.414453    47A      1.480649
      48A      1.570941    49A      1.643957    50A      1.668326
      51A      1.727647    52A      1.816660    53A      1.848394
      54A      1.907042    55A      2.072381    56A      2.187984
      57A      2.508473    58A      2.694584    59A      2.758125
      60A      2.805440    61A      2.857692    62A      2.896286
      63A      2.982713    64A      3.048173    65A      3.066904
      66A      3.122163    67A      3.124114    68A      3.216909
      69A      3.357559    70A      3.381373    71A      3.399458
      72A      3.448755    73A      3.481075    74A      3.508840
      75A      3.585049    76A      3.765407    77A      3.769911
      78A      3.950488    79A      3.991713    80A      4.071657
      81A      4.121774    82A      4.124376    83A      4.200080
      84A      4.393537    85A      4.440478    86A      4.453815
      87A      4.541422    88A      4.925457    89A      5.054575
      90A      5.060203    91A      5.201126    92A      5.212993
      93A      5.486515    94A      5.496295    95A      5.839731
      96A      5.936278    97A      6.127214    98A      6.799880
      99A      6.802404   100A      7.075086   101A      7.164345
     102A      7.541643

    Final Occupation by Irrep:
              A
    DOCC [    11 ]
    SOCC [     1 ]

  @DF-UKS Final Energy:  -153.18841898677695

   => Energetics <=

    Nuclear Repulsion Energy =             62.7812874240468304
    One-Electron Energy =                -331.5621752561000903
    Two-Electron Energy =                 132.1731384310664907
    DFT Exchange-Correlation Energy =     -16.5806695857901580
    Empirical Dispersion Energy =           0.0000000000000000
    VV10 Nonlocal Energy =                  0.0000000000000000
    Total Energy =                       -153.1884189867769521

  UHF NO Occupations:
  HONO-2 :   10  A 1.9997830
  HONO-1 :   11  A 1.9992034
  HONO-0 :   12  A 1.0000000
  LUNO+0 :   13  A 0.0007966
  LUNO+1 :   14  A 0.0002170
  LUNO+2 :   15  A 0.0001799
  LUNO+3 :   16  A 0.0000615

Computation Completed

Properties will be evaluated at   0.000000,   0.000000,   0.000000 [a0]

Properties computed using the SCF density matrix

  Nuclear Dipole Moment: [e a0]
     X:     4.5390      Y:    -0.6810      Z:     0.0043

  Electronic Dipole Moment: [e a0]
     X:    -3.6086      Y:     0.6305      Z:    -0.0034

  Dipole Moment: [e a0]
     X:     0.9304      Y:    -0.0505      Z:     0.0010     Total:     0.9318

  Dipole Moment: [D]
     X:     2.3648      Y:    -0.1284      Z:     0.0025     Total:     2.3683

*** tstop() called on n054 at Tue Mar 15 10:27:23 2022
Module time:
	user time   =      50.50 seconds =       0.84 minutes
	system time =       0.55 seconds =       0.01 minutes
	total time  =         51 seconds =       0.85 minutes
Total time:
	user time   =      50.50 seconds =       0.84 minutes
	system time =       0.55 seconds =       0.01 minutes
	total time  =         51 seconds =       0.85 minutes
Grab this energy -153.18841898677695
    Psi4 stopped on: Tuesday, 15 March 2022 10:27AM
    Psi4 wall time for execution: 0:00:51.09

*** Psi4 exiting successfully. Buy a developer a beer!
