                               Psi4 1.4a2.dev629

  ==> Input File <==

--------------------------------------------------------------------------
import os
memory 14 GB

molecule {
 C   -0.2573239393    0.8084430482   -0.0004760478
 O   -2.1786463270   -0.3438654420    0.0000920732
 C    2.4071584750   -0.2398155210   -0.0015374187
 H    2.3771525194   -2.3023981491   -0.0043190301
 H    3.3870060383    0.4700175564   -1.6605247464
 H    3.3912511836    0.4777531274    1.6667649899
units bohr
0 2
}

basis {

assign 6-31g_2dfp_

[ 6-31g_2dfp_ ]

spherical

!----------------------------------------------------------------------
! Basis Set Exchange
! Version v0.8.13
! https://www.basissetexchange.org
!----------------------------------------------------------------------
!   Basis set: 6-31G(2df,p)
! Description: 6-31G(2df,p)
!        Role: orbital
!     Version: 0  (Data from the original Basis Set Exchange)
!----------------------------------------------------------------------

****
H     0
S    3   1.00
     18.7311370              0.03349460
      2.8253937              0.23472695
      0.6401217              0.81375733
S    1   1.00
      0.1612778              1.00000000
P    1   1.00
      1.5000000              1.0000000
P    1   1.00
      0.3750000              1.0000000
****
B     0
S    6   1.00
   2068.8823000              0.0018663
    310.6495700              0.0142515
     70.6830330              0.0695516
     19.8610800              0.2325729
      6.2993048              0.4670787
      2.1270270              0.3634314
SP   3   1.00
      4.7279710             -0.1303938              0.0745976
      1.1903377             -0.1307889              0.3078467
      0.3594117              1.1309444              0.7434568
SP   1   1.00
      0.1267512              1.0000000              1.0000000
D    1   1.00
      0.8020000              1.0000000
D    1   1.00
      0.2005000              1.0000000
F    1   1.00
      0.5000000              1.0000000
****
C     0
S    6   1.00
   3047.5249000              0.0018347
    457.3695100              0.0140373
    103.9486900              0.0688426
     29.2101550              0.2321844
      9.2866630              0.4679413
      3.1639270              0.3623120
SP   3   1.00
      7.8682724             -0.1193324              0.0689991
      1.8812885             -0.1608542              0.3164240
      0.5442493              1.1434564              0.7443083
SP   1   1.00
      0.1687144              1.0000000              1.0000000
D    1   1.00
      1.2520000              1.0000000
D    1   1.00
      0.3130000              1.0000000
F    1   1.00
      0.8000000              1.0000000
****
N     0
S    6   1.00
   4173.5110000              0.0018348
    627.4579000              0.0139950
    142.9021000              0.0685870
     40.2343300              0.2322410
     12.8202100              0.4690700
      4.3904370              0.3604550
SP   3   1.00
     11.6263580             -0.1149610              0.0675800
      2.7162800             -0.1691180              0.3239070
      0.7722180              1.1458520              0.7408950
SP   1   1.00
      0.2120313              1.0000000              1.0000000
D    1   1.00
      1.8260000              1.0000000
D    1   1.00
      0.4565000              1.0000000
F    1   1.00
      1.0000000              1.0000000
****
O     0
S    6   1.00
   5484.6717000              0.0018311
    825.2349500              0.0139501
    188.0469600              0.0684451
     52.9645000              0.2327143
     16.8975700              0.4701930
      5.7996353              0.3585209
SP   3   1.00
     15.5396160             -0.1107775              0.0708743
      3.5999336             -0.1480263              0.3397528
      1.0137618              1.1307670              0.7271586
SP   1   1.00
      0.2700058              1.0000000              1.0000000
D    1   1.00
      2.5840000              1.0000000
D    1   1.00
      0.6460000              1.0000000
F    1   1.00
      1.4000000              1.0000000
****
F     0
S    6   1.00
   7001.7130900              0.0018196169
   1051.3660900              0.0139160796
    239.2856900              0.0684053245
     67.3974453              0.233185760
     21.5199573              0.471267439
      7.40310130             0.356618546
SP   3   1.00
     20.8479528             -0.108506975            0.0716287243
      4.80830834            -0.146451658            0.3459121030
      1.34406986             1.128688580            0.7224699570
SP   1   1.00
      0.358151393            1.0000000              1.0000000
D    1   1.00
      3.5000000              1.0000000
D    1   1.00
      0.8750000              1.0000000
F    1   1.00
      1.8500000              1.0000000
****
Al     0
S    6   1.00
  13983.1000000              0.00194267
   2098.7500000              0.0148599
    477.7050000              0.0728494
    134.3600000              0.2468300
     42.8709000              0.4872580
     14.5189000              0.3234960
SP   6   1.00
    239.6680000             -0.00292619             0.00460285
     57.4419000             -0.0374080              0.0331990
     18.2859000             -0.1144870              0.1362820
      6.5991400              0.1156350              0.3304760
      2.4904900              0.6125950              0.4491460
      0.9445400              0.3937990              0.2657040
SP   3   1.00
      1.2779000             -0.2276060             -0.0175130
      0.3975900              0.00144583             0.2445330
      0.1600950              1.0927900              0.8049340
SP   1   1.00
      0.0556577              1.0000000              1.0000000
D    1   1.00
      0.6500000              1.0000000
D    1   1.00
      0.1625000              1.0000000
F    1   1.00
      0.2500000              1.0000000
****
Si     0
S    6   1.00
  16115.9000000              0.00195948
   2425.5800000              0.01492880
    553.8670000              0.07284780
    156.3400000              0.24613000
     50.0683000              0.48591400
     17.0178000              0.32500200
SP   6   1.00
    292.7180000             -0.00278094             0.00443826
     69.8731000             -0.03571460             0.03266790
     22.3363000             -0.11498500             0.13472100
      8.1503900              0.09356340             0.32867800
      3.1345800              0.60301700             0.44964000
      1.2254300              0.41895900             0.26137200
SP   3   1.00
      1.7273800             -0.24463000            -0.01779510
      0.5729220              0.00431572             0.25353900
      0.2221920              1.09818000             0.80066900
SP   1   1.00
      0.0778369              1.00000000             1.00000000
D    1   1.00
      0.9000000              1.0000000
D    1   1.00
      0.2250000              1.0000000
F    1   1.00
      0.3200000              1.0000000
****
P     0
S    6   1.00
  19413.3000000              0.0018516
   2909.4200000              0.0142062
    661.3640000              0.0699995
    185.7590000              0.2400790
     59.1943000              0.4847620
     20.0310000              0.3352000
SP   6   1.00
    339.4780000             -0.00278217             0.00456462
     81.0101000             -0.0360499              0.03369360
     25.8780000             -0.1166310              0.13975500
      9.4522100              0.0968328              0.33936200
      3.6656600              0.6144180              0.45092100
      1.4674600              0.4037980              0.23858600
SP   3   1.00
      2.1562300             -0.2529230             -0.01776530
      0.7489970              0.0328517              0.27405800
      0.2831450              1.0812500              0.78542100
SP   1   1.00
      0.0998317              1.0000000              1.00000000
D    1   1.00
      1.1000000              1.0000000
D    1   1.00
      0.2750000              1.0000000
F    1   1.00
      0.4500000              1.0000000
****
S     0
S    6   1.00
  21917.1000000              0.0018690
   3301.4900000              0.0142300
    754.1460000              0.0696960
    212.7110000              0.2384870
     67.9896000              0.4833070
     23.0515000              0.3380740
SP   6   1.00
    423.7350000             -0.0023767              0.0040610
    100.7100000             -0.0316930              0.0306810
     32.1599000             -0.1133170              0.1304520
     11.8079000              0.0560900              0.3272050
      4.6311000              0.5922550              0.4528510
      1.8702500              0.4550060              0.2560420
SP   3   1.00
      2.6158400             -0.2503740             -0.0145110
      0.9221670              0.0669570              0.3102630
      0.3412870              1.0545100              0.7544830
SP   1   1.00
      0.1171670              1.0000000              1.0000000
D    1   1.00
      1.3000000              1.0000000
D    1   1.00
      0.3250000              1.0000000
F    1   1.00
      0.5500000              1.0000000
****
Cl     0
S    6   1.00
  25180.1000000              0.0018330
   3780.3500000              0.0140340
    860.4740000              0.0690970
    242.1450000              0.2374520
     77.3349000              0.4830340
     26.2470000              0.3398560
SP   6   1.00
    491.7650000             -0.0022974              0.0039894
    116.9840000             -0.0307140              0.0303180
     37.4153000             -0.1125280              0.1298800
     13.7834000              0.0450160              0.3279510
      5.4521500              0.5893530              0.4535270
      2.2258800              0.4652060              0.2521540
SP   3   1.00
      3.1864900             -0.2518300             -0.0142990
      1.1442700              0.0615890              0.3235720
      0.4203770              1.0601800              0.7435070
SP   1   1.00
      0.1426570              1.0000000              1.0000000
D    1   1.00
      1.5000000              1.0000000
D    1   1.00
      0.3750000              1.0000000
F    1   1.00
      0.7000000              1.0000000
****
}

set {
reference uhf
freeze_core true
e_convergence 10
d_convergence 10
dft_spherical_points 1202
dft_radial_points 99
}

e = energy('b3lyp')

print_out('Grab this energy {0}'.format(e))
--------------------------------------------------------------------------

    Molecular point group: c1

    Geometry (in Bohr), charge = 0, multiplicity = 2:

       Center              X                  Y                   Z               Mass
    ------------   -----------------  -----------------  -----------------  -----------------
         C           -0.261457138162     0.809414621710     0.000006365610    12.000000000000
         O           -2.182779525862    -0.342893868490     0.000574486610    15.994914619570
         C            2.403025276138    -0.238843947490    -0.001055005290    12.000000000000
         H            2.373019320538    -2.301426575590    -0.003836616690     1.007825032230
         H            3.382872839438     0.470989129910    -1.660042332990     1.007825032230
         H            3.387117984738     0.478724700910     1.667247403310     1.007825032230

  Charge       = 0
  Multiplicity = 2
  Basis Set: ANONYMOUSE7F16507
    Blend: 6-31G_2DFP_
  Basis Set: (ANONYMOUSE7F16507 AUX)
    Blend: DEF2-UNIVERSAL-JKFIT

    Orbital Energies [Eh]
    ---------------------

    Alpha Occupied:

       1A    -19.186794     2A    -10.271177     3A    -10.209944
       4A     -1.082005     5A     -0.762224     6A     -0.543905
       7A     -0.467120     8A     -0.457511     9A     -0.456522
      10A     -0.387584    11A     -0.385824    12A     -0.192510

    Alpha Virtual:

      13A     -0.018503    14A      0.091979    15A      0.137089
      16A      0.141352    17A      0.218928    18A      0.268599
      19A      0.428538    20A      0.431910    21A      0.443870
      22A      0.493776    23A      0.506034    24A      0.530518
      25A      0.562593    26A      0.577925    27A      0.608958
      28A      0.616115    29A      0.644459    30A      0.717429
      31A      0.767622    32A      0.785882    33A      0.832301
      34A      0.917028    35A      0.927267    36A      0.938176
      37A      1.023489    38A      1.085244    39A      1.108354
      40A      1.154658    41A      1.222220    42A      1.306809
      43A      1.316763    44A      1.328681    45A      1.404857
      46A      1.407232    47A      1.468201    48A      1.559640
      49A      1.629296    50A      1.654084    51A      1.719883
      52A      1.813654    53A      1.837519    54A      1.902736
      55A      2.064569    56A      2.163704    57A      2.498068
      58A      2.680110    59A      2.744724    60A      2.783990
      61A      2.843097    62A      2.894495    63A      2.971574
      64A      3.034792    65A      3.060513    66A      3.105232
      67A      3.116526    68A      3.184016    69A      3.315187
      70A      3.372634    71A      3.392972    72A      3.440801
      73A      3.467127    74A      3.487977    75A      3.571493
      76A      3.741297    77A      3.761901    78A      3.944187
      79A      3.985009    80A      4.058643    81A      4.113661
      82A      4.120267    83A      4.191757    84A      4.390162
      85A      4.437779    86A      4.450548    87A      4.532703
      88A      4.919738    89A      5.037219    90A      5.042430
      91A      5.197152    92A      5.210669    93A      5.476288
      94A      5.484454    95A      5.825814    96A      5.932230
      97A      6.105426    98A      6.770995    99A      6.773001
     100A      7.070487   101A      7.135480   102A      7.530869

    Beta Occupied:

       1A    -19.178702     2A    -10.261137     3A    -10.206556
       4A     -1.066053     5A     -0.750402     6A     -0.524242
       7A     -0.451999     8A     -0.447083     9A     -0.439143
      10A     -0.382409    11A     -0.347664

    Beta Virtual:

      12A     -0.053065    13A     -0.002224    14A      0.094695
      15A      0.142764    16A      0.144492    17A      0.229276
      18A      0.274273    19A      0.433793    20A      0.435496
      21A      0.466498    22A      0.500478    23A      0.527415
      24A      0.539163    25A      0.569009    26A      0.582091
      27A      0.623181    28A      0.627562    29A      0.650107
      30A      0.739311    31A      0.778778    32A      0.795831
      33A      0.833077    34A      0.921880    35A      0.946783
      36A      0.950444    37A      1.027694    38A      1.091478
      39A      1.110396    40A      1.160884    41A      1.231364
      42A      1.312450    43A      1.319583    44A      1.335489
      45A      1.412671    46A      1.415509    47A      1.480692
      48A      1.570857    49A      1.642404    50A      1.668579
      51A      1.726127    52A      1.816795    53A      1.851525
      54A      1.909468    55A      2.071306    56A      2.185186
      57A      2.510744    58A      2.694439    59A      2.759209
      60A      2.804914    61A      2.858136    62A      2.896130
      63A      2.981149    64A      3.051360    65A      3.069017
      66A      3.123653    67A      3.125339    68A      3.218609
      69A      3.358680    70A      3.383873    71A      3.399292
      72A      3.448589    73A      3.483413    74A      3.511233
      75A      3.584780    76A      3.766720    77A      3.771615
      78A      3.953003    79A      3.994307    80A      4.075079
      81A      4.122912    82A      4.127866    83A      4.203957
      84A      4.392414    85A      4.444016    86A      4.454778
      87A      4.543562    88A      4.923625    89A      5.054767
      90A      5.060532    91A      5.199774    92A      5.215980
      93A      5.488902    94A      5.498382    95A      5.839093
      96A      5.937820    97A      6.128710    98A      6.800409
      99A      6.802765   100A      7.074788   101A      7.164944
     102A      7.542550

    Final Occupation by Irrep:
              A
    DOCC [    11 ]
    SOCC [     1 ]

  @DF-UKS Final Energy:  -153.18841954942363

   => Energetics <=

    Nuclear Repulsion Energy =             62.8834451440862097
    One-Electron Energy =                -331.7637751589321624
    Two-Electron Energy =                 132.2743002131259971
    DFT Exchange-Correlation Energy =     -16.5823897477036404
    Empirical Dispersion Energy =           0.0000000000000000
    VV10 Nonlocal Energy =                  0.0000000000000000
    Total Energy =                       -153.1884195494236280

  UHF NO Occupations:
  HONO-2 :   10  A 1.9997850
  HONO-1 :   11  A 1.9992007
  HONO-0 :   12  A 1.0000000
  LUNO+0 :   13  A 0.0007993
  LUNO+1 :   14  A 0.0002150
  LUNO+2 :   15  A 0.0001774
  LUNO+3 :   16  A 0.0000618

Computation Completed

Properties will be evaluated at   0.000000,   0.000000,   0.000000 [a0]

Properties computed using the SCF density matrix

  Nuclear Dipole Moment: [e a0]
     X:     4.5302      Y:    -0.6714      Z:     0.0017

  Electronic Dipole Moment: [e a0]
     X:    -3.6027      Y:     0.6245      Z:    -0.0027

  Dipole Moment: [e a0]
     X:     0.9275      Y:    -0.0469      Z:    -0.0010     Total:     0.9287

  Dipole Moment: [D]
     X:     2.3575      Y:    -0.1193      Z:    -0.0025     Total:     2.3605

*** tstop() called on n059 at Thu Nov  4 14:58:54 2021
Module time:
	user time   =      50.76 seconds =       0.85 minutes
	system time =       0.54 seconds =       0.01 minutes
	total time  =         51 seconds =       0.85 minutes
Total time:
	user time   =      50.76 seconds =       0.85 minutes
	system time =       0.54 seconds =       0.01 minutes
	total time  =         51 seconds =       0.85 minutes
Grab this energy -153.18841954942363
    Psi4 stopped on: Thursday, 04 November 2021 02:58PM
    Psi4 wall time for execution: 0:00:51.35

*** Psi4 exiting successfully. Buy a developer a beer!
