                               Psi4 1.4a2.dev629

  ==> Input File <==

--------------------------------------------------------------------------
import os
memory 14 GB

molecule {
 C   -0.2629313904    0.7996149750    0.0041218000
 O   -2.2025707274   -0.3293682119   -0.0027926407
 C    2.4130991745   -0.2431458965    0.0012569563
 H    2.3965276509   -2.3072539755   -0.0004466573
 H    3.3913098275    0.4739525095   -1.6658654194
 H    3.3911634149    0.4763352194    1.6637257811
units bohr
0 2
}

basis {

assign 6-31g_2dfp_

[ 6-31g_2dfp_ ]

spherical

!----------------------------------------------------------------------
! Basis Set Exchange
! Version v0.8.13
! https://www.basissetexchange.org
!----------------------------------------------------------------------
!   Basis set: 6-31G(2df,p)
! Description: 6-31G(2df,p)
!        Role: orbital
!     Version: 0  (Data from the original Basis Set Exchange)
!----------------------------------------------------------------------

****
H     0
S    3   1.00
     18.7311370              0.03349460
      2.8253937              0.23472695
      0.6401217              0.81375733
S    1   1.00
      0.1612778              1.00000000
P    1   1.00
      1.5000000              1.0000000
P    1   1.00
      0.3750000              1.0000000
****
B     0
S    6   1.00
   2068.8823000              0.0018663
    310.6495700              0.0142515
     70.6830330              0.0695516
     19.8610800              0.2325729
      6.2993048              0.4670787
      2.1270270              0.3634314
SP   3   1.00
      4.7279710             -0.1303938              0.0745976
      1.1903377             -0.1307889              0.3078467
      0.3594117              1.1309444              0.7434568
SP   1   1.00
      0.1267512              1.0000000              1.0000000
D    1   1.00
      0.8020000              1.0000000
D    1   1.00
      0.2005000              1.0000000
F    1   1.00
      0.5000000              1.0000000
****
C     0
S    6   1.00
   3047.5249000              0.0018347
    457.3695100              0.0140373
    103.9486900              0.0688426
     29.2101550              0.2321844
      9.2866630              0.4679413
      3.1639270              0.3623120
SP   3   1.00
      7.8682724             -0.1193324              0.0689991
      1.8812885             -0.1608542              0.3164240
      0.5442493              1.1434564              0.7443083
SP   1   1.00
      0.1687144              1.0000000              1.0000000
D    1   1.00
      1.2520000              1.0000000
D    1   1.00
      0.3130000              1.0000000
F    1   1.00
      0.8000000              1.0000000
****
N     0
S    6   1.00
   4173.5110000              0.0018348
    627.4579000              0.0139950
    142.9021000              0.0685870
     40.2343300              0.2322410
     12.8202100              0.4690700
      4.3904370              0.3604550
SP   3   1.00
     11.6263580             -0.1149610              0.0675800
      2.7162800             -0.1691180              0.3239070
      0.7722180              1.1458520              0.7408950
SP   1   1.00
      0.2120313              1.0000000              1.0000000
D    1   1.00
      1.8260000              1.0000000
D    1   1.00
      0.4565000              1.0000000
F    1   1.00
      1.0000000              1.0000000
****
O     0
S    6   1.00
   5484.6717000              0.0018311
    825.2349500              0.0139501
    188.0469600              0.0684451
     52.9645000              0.2327143
     16.8975700              0.4701930
      5.7996353              0.3585209
SP   3   1.00
     15.5396160             -0.1107775              0.0708743
      3.5999336             -0.1480263              0.3397528
      1.0137618              1.1307670              0.7271586
SP   1   1.00
      0.2700058              1.0000000              1.0000000
D    1   1.00
      2.5840000              1.0000000
D    1   1.00
      0.6460000              1.0000000
F    1   1.00
      1.4000000              1.0000000
****
F     0
S    6   1.00
   7001.7130900              0.0018196169
   1051.3660900              0.0139160796
    239.2856900              0.0684053245
     67.3974453              0.233185760
     21.5199573              0.471267439
      7.40310130             0.356618546
SP   3   1.00
     20.8479528             -0.108506975            0.0716287243
      4.80830834            -0.146451658            0.3459121030
      1.34406986             1.128688580            0.7224699570
SP   1   1.00
      0.358151393            1.0000000              1.0000000
D    1   1.00
      3.5000000              1.0000000
D    1   1.00
      0.8750000              1.0000000
F    1   1.00
      1.8500000              1.0000000
****
Al     0
S    6   1.00
  13983.1000000              0.00194267
   2098.7500000              0.0148599
    477.7050000              0.0728494
    134.3600000              0.2468300
     42.8709000              0.4872580
     14.5189000              0.3234960
SP   6   1.00
    239.6680000             -0.00292619             0.00460285
     57.4419000             -0.0374080              0.0331990
     18.2859000             -0.1144870              0.1362820
      6.5991400              0.1156350              0.3304760
      2.4904900              0.6125950              0.4491460
      0.9445400              0.3937990              0.2657040
SP   3   1.00
      1.2779000             -0.2276060             -0.0175130
      0.3975900              0.00144583             0.2445330
      0.1600950              1.0927900              0.8049340
SP   1   1.00
      0.0556577              1.0000000              1.0000000
D    1   1.00
      0.6500000              1.0000000
D    1   1.00
      0.1625000              1.0000000
F    1   1.00
      0.2500000              1.0000000
****
Si     0
S    6   1.00
  16115.9000000              0.00195948
   2425.5800000              0.01492880
    553.8670000              0.07284780
    156.3400000              0.24613000
     50.0683000              0.48591400
     17.0178000              0.32500200
SP   6   1.00
    292.7180000             -0.00278094             0.00443826
     69.8731000             -0.03571460             0.03266790
     22.3363000             -0.11498500             0.13472100
      8.1503900              0.09356340             0.32867800
      3.1345800              0.60301700             0.44964000
      1.2254300              0.41895900             0.26137200
SP   3   1.00
      1.7273800             -0.24463000            -0.01779510
      0.5729220              0.00431572             0.25353900
      0.2221920              1.09818000             0.80066900
SP   1   1.00
      0.0778369              1.00000000             1.00000000
D    1   1.00
      0.9000000              1.0000000
D    1   1.00
      0.2250000              1.0000000
F    1   1.00
      0.3200000              1.0000000
****
P     0
S    6   1.00
  19413.3000000              0.0018516
   2909.4200000              0.0142062
    661.3640000              0.0699995
    185.7590000              0.2400790
     59.1943000              0.4847620
     20.0310000              0.3352000
SP   6   1.00
    339.4780000             -0.00278217             0.00456462
     81.0101000             -0.0360499              0.03369360
     25.8780000             -0.1166310              0.13975500
      9.4522100              0.0968328              0.33936200
      3.6656600              0.6144180              0.45092100
      1.4674600              0.4037980              0.23858600
SP   3   1.00
      2.1562300             -0.2529230             -0.01776530
      0.7489970              0.0328517              0.27405800
      0.2831450              1.0812500              0.78542100
SP   1   1.00
      0.0998317              1.0000000              1.00000000
D    1   1.00
      1.1000000              1.0000000
D    1   1.00
      0.2750000              1.0000000
F    1   1.00
      0.4500000              1.0000000
****
S     0
S    6   1.00
  21917.1000000              0.0018690
   3301.4900000              0.0142300
    754.1460000              0.0696960
    212.7110000              0.2384870
     67.9896000              0.4833070
     23.0515000              0.3380740
SP   6   1.00
    423.7350000             -0.0023767              0.0040610
    100.7100000             -0.0316930              0.0306810
     32.1599000             -0.1133170              0.1304520
     11.8079000              0.0560900              0.3272050
      4.6311000              0.5922550              0.4528510
      1.8702500              0.4550060              0.2560420
SP   3   1.00
      2.6158400             -0.2503740             -0.0145110
      0.9221670              0.0669570              0.3102630
      0.3412870              1.0545100              0.7544830
SP   1   1.00
      0.1171670              1.0000000              1.0000000
D    1   1.00
      1.3000000              1.0000000
D    1   1.00
      0.3250000              1.0000000
F    1   1.00
      0.5500000              1.0000000
****
Cl     0
S    6   1.00
  25180.1000000              0.0018330
   3780.3500000              0.0140340
    860.4740000              0.0690970
    242.1450000              0.2374520
     77.3349000              0.4830340
     26.2470000              0.3398560
SP   6   1.00
    491.7650000             -0.0022974              0.0039894
    116.9840000             -0.0307140              0.0303180
     37.4153000             -0.1125280              0.1298800
     13.7834000              0.0450160              0.3279510
      5.4521500              0.5893530              0.4535270
      2.2258800              0.4652060              0.2521540
SP   3   1.00
      3.1864900             -0.2518300             -0.0142990
      1.1442700              0.0615890              0.3235720
      0.4203770              1.0601800              0.7435070
SP   1   1.00
      0.1426570              1.0000000              1.0000000
D    1   1.00
      1.5000000              1.0000000
D    1   1.00
      0.3750000              1.0000000
F    1   1.00
      0.7000000              1.0000000
****
}

set {
reference uhf
freeze_core true
e_convergence 10
d_convergence 10
dft_spherical_points 1202
dft_radial_points 99
}

e = energy('b3lyp')

print_out('Grab this energy {0}'.format(e))
--------------------------------------------------------------------------

    Molecular point group: c1

    Geometry (in Bohr), charge = 0, multiplicity = 2:

       Center              X                  Y                   Z               Mass
    ------------   -----------------  -----------------  -----------------  -----------------
         C           -0.258814768435     0.798642647507     0.003720332332    12.000000000000
         O           -2.198454105435    -0.330340539393    -0.003194108368    15.994914619570
         C            2.417215796465    -0.244118223993     0.000855488632    12.000000000000
         H            2.400644272865    -2.308226302993    -0.000848124968     1.007825032230
         H            3.395426449465     0.472980182007    -1.666266887068     1.007825032230
         H            3.395280036865     0.475362891907     1.663324313432     1.007825032230

  Charge       = 0
  Multiplicity = 2
  Basis Set: ANONYMOUSADC23AD3
    Blend: 6-31G_2DFP_
  Basis Set: (ANONYMOUSADC23AD3 AUX)
    Blend: DEF2-UNIVERSAL-JKFIT

    Orbital Energies [Eh]
    ---------------------

    Alpha Occupied:

       1A    -19.186970     2A    -10.271929     3A    -10.210833
       4A     -1.080616     5A     -0.761760     6A     -0.543959
       7A     -0.466037     8A     -0.457359     9A     -0.456029
      10A     -0.387453    11A     -0.386314    12A     -0.191618

    Alpha Virtual:

      13A     -0.019189    14A      0.091493    15A      0.136700
      16A      0.141173    17A      0.216795    18A      0.267851
      19A      0.427603    20A      0.431580    21A      0.443597
      22A      0.493415    23A      0.506429    24A      0.530083
      25A      0.563276    26A      0.577059    27A      0.608141
      28A      0.615671    29A      0.643752    30A      0.717942
      31A      0.764620    32A      0.784769    33A      0.832228
      34A      0.917527    35A      0.926167    36A      0.933981
      37A      1.022947    38A      1.085495    39A      1.106941
      40A      1.152120    41A      1.221315    42A      1.306082
      43A      1.316639    44A      1.326388    45A      1.402103
      46A      1.407722    47A      1.467923    48A      1.560204
      49A      1.632062    50A      1.653607    51A      1.720725
      52A      1.813034    53A      1.831465    54A      1.900150
      55A      2.066229    56A      2.169302    57A      2.493168
      58A      2.680384    59A      2.743483    60A      2.784008
      61A      2.841147    62A      2.894574    63A      2.975323
      64A      3.027578    65A      3.056042    66A      3.104754
      67A      3.113720    68A      3.180633    69A      3.313490
      70A      3.366183    71A      3.393437    72A      3.439714
      73A      3.464332    74A      3.483867    75A      3.569509
      76A      3.737750    77A      3.762421    78A      3.941660
      79A      3.979891    80A      4.052928    81A      4.106485
      82A      4.119254    83A      4.186753    84A      4.388076
      85A      4.430654    86A      4.446926    87A      4.532614
      88A      4.918469    89A      5.036871    90A      5.042086
      91A      5.197366    92A      5.205993    93A      5.471322
      94A      5.480694    95A      5.827551    96A      5.928876
      97A      6.103246    98A      6.770397    99A      6.772691
     100A      7.071585   101A      7.134622   102A      7.529115

    Beta Occupied:

       1A    -19.178931     2A    -10.261847     3A    -10.207467
       4A     -1.064714     5A     -0.749998     6A     -0.524201
       7A     -0.451529     8A     -0.446659     9A     -0.438681
      10A     -0.382274    11A     -0.348094

    Beta Virtual:

      12A     -0.052119    13A     -0.002920    14A      0.094189
      15A      0.142415    16A      0.144287    17A      0.227303
      18A      0.273545    19A      0.433559    20A      0.435102
      21A      0.465058    22A      0.500102    23A      0.527706
      24A      0.539371    25A      0.569589    26A      0.581294
      27A      0.622998    28A      0.626730    29A      0.649527
      30A      0.740017    31A      0.775751    32A      0.794778
      33A      0.833012    34A      0.922362    35A      0.940140
      36A      0.951591    37A      1.027126    38A      1.091523
      39A      1.109064    40A      1.158303    41A      1.230673
      42A      1.311588    43A      1.319468    44A      1.333161
      45A      1.412310    46A      1.413195    47A      1.480075
      48A      1.571326    49A      1.645505    50A      1.667874
      51A      1.726951    52A      1.816254    53A      1.845661
      54A      1.906778    55A      2.072918    56A      2.190640
      57A      2.505846    58A      2.694591    59A      2.757920
      60A      2.805277    61A      2.856861    62A      2.896229
      63A      2.984720    64A      3.044516    65A      3.064709
      66A      3.122088    67A      3.123364    68A      3.215461
      69A      3.357275    70A      3.377892    71A      3.399642
      72A      3.448356    73A      3.479525    74A      3.506691
      75A      3.582730    76A      3.763331    77A      3.771990
      78A      3.950246    79A      3.989175    80A      4.069234
      81A      4.121653    82A      4.122119    83A      4.198011
      84A      4.390333    85A      4.436794    86A      4.451105
      87A      4.543523    88A      4.922336    89A      5.054328
      90A      5.059999    91A      5.199520    92A      5.211692
      93A      5.483989    94A      5.494543    95A      5.840763
      96A      5.934464    97A      6.126361    98A      6.799551
      99A      6.802177   100A      7.075884   101A      7.163910
     102A      7.540763

    Final Occupation by Irrep:
              A
    DOCC [    11 ]
    SOCC [     1 ]

  @DF-UKS Final Energy:  -153.18841626244699

   => Energetics <=

    Nuclear Repulsion Energy =             62.7009743669426811
    One-Electron Energy =                -331.4045432520772465
    Two-Electron Energy =                 132.0938984521875454
    DFT Exchange-Correlation Energy =     -16.5787458294999368
    Empirical Dispersion Energy =           0.0000000000000000
    VV10 Nonlocal Energy =                  0.0000000000000000
    Total Energy =                       -153.1884162624469923

  UHF NO Occupations:
  HONO-2 :   10  A 1.9997844
  HONO-1 :   11  A 1.9992030
  HONO-0 :   12  A 1.0000000
  LUNO+0 :   13  A 0.0007970
  LUNO+1 :   14  A 0.0002156
  LUNO+2 :   15  A 0.0001825
  LUNO+3 :   16  A 0.0000613

Computation Completed

Properties will be evaluated at   0.000000,   0.000000,   0.000000 [a0]

Properties computed using the SCF density matrix

  Nuclear Dipole Moment: [e a0]
     X:     4.5541      Y:    -0.6755      Z:    -0.0019

  Electronic Dipole Moment: [e a0]
     X:    -3.6187      Y:     0.6248      Z:     0.0019

  Dipole Moment: [e a0]
     X:     0.9355      Y:    -0.0507      Z:    -0.0000     Total:     0.9368

  Dipole Moment: [D]
     X:     2.3777      Y:    -0.1288      Z:    -0.0000     Total:     2.3812

*** tstop() called on n032 at Thu Nov  4 14:54:06 2021
Module time:
	user time   =      62.33 seconds =       1.04 minutes
	system time =       0.42 seconds =       0.01 minutes
	total time  =         63 seconds =       1.05 minutes
Total time:
	user time   =      62.33 seconds =       1.04 minutes
	system time =       0.42 seconds =       0.01 minutes
	total time  =         63 seconds =       1.05 minutes
Grab this energy -153.188416262447
    Psi4 stopped on: Thursday, 04 November 2021 02:54PM
    Psi4 wall time for execution: 0:01:02.79

*** Psi4 exiting successfully. Buy a developer a beer!
