                               Psi4 1.4a2.dev629

  ==> Input File <==

--------------------------------------------------------------------------
import os
memory 14 GB

molecule {
 C   -0.2592848276    0.8025083847    0.0041408557
 O   -2.1905750162   -0.3362913663   -0.0028173352
 C    2.4093065477   -0.2428393998    0.0012612047
 H    2.3871617022   -2.2997225965   -0.0004401596
 H    3.3900506805    0.4720468789   -1.6699631377
 H    3.3899388635    0.4744327191    1.6678183921
units bohr
0 2
}

basis {

assign 6-31g_2dfp_

[ 6-31g_2dfp_ ]

spherical

!----------------------------------------------------------------------
! Basis Set Exchange
! Version v0.8.13
! https://www.basissetexchange.org
!----------------------------------------------------------------------
!   Basis set: 6-31G(2df,p)
! Description: 6-31G(2df,p)
!        Role: orbital
!     Version: 0  (Data from the original Basis Set Exchange)
!----------------------------------------------------------------------

****
H     0
S    3   1.00
     18.7311370              0.03349460
      2.8253937              0.23472695
      0.6401217              0.81375733
S    1   1.00
      0.1612778              1.00000000
P    1   1.00
      1.5000000              1.0000000
P    1   1.00
      0.3750000              1.0000000
****
B     0
S    6   1.00
   2068.8823000              0.0018663
    310.6495700              0.0142515
     70.6830330              0.0695516
     19.8610800              0.2325729
      6.2993048              0.4670787
      2.1270270              0.3634314
SP   3   1.00
      4.7279710             -0.1303938              0.0745976
      1.1903377             -0.1307889              0.3078467
      0.3594117              1.1309444              0.7434568
SP   1   1.00
      0.1267512              1.0000000              1.0000000
D    1   1.00
      0.8020000              1.0000000
D    1   1.00
      0.2005000              1.0000000
F    1   1.00
      0.5000000              1.0000000
****
C     0
S    6   1.00
   3047.5249000              0.0018347
    457.3695100              0.0140373
    103.9486900              0.0688426
     29.2101550              0.2321844
      9.2866630              0.4679413
      3.1639270              0.3623120
SP   3   1.00
      7.8682724             -0.1193324              0.0689991
      1.8812885             -0.1608542              0.3164240
      0.5442493              1.1434564              0.7443083
SP   1   1.00
      0.1687144              1.0000000              1.0000000
D    1   1.00
      1.2520000              1.0000000
D    1   1.00
      0.3130000              1.0000000
F    1   1.00
      0.8000000              1.0000000
****
N     0
S    6   1.00
   4173.5110000              0.0018348
    627.4579000              0.0139950
    142.9021000              0.0685870
     40.2343300              0.2322410
     12.8202100              0.4690700
      4.3904370              0.3604550
SP   3   1.00
     11.6263580             -0.1149610              0.0675800
      2.7162800             -0.1691180              0.3239070
      0.7722180              1.1458520              0.7408950
SP   1   1.00
      0.2120313              1.0000000              1.0000000
D    1   1.00
      1.8260000              1.0000000
D    1   1.00
      0.4565000              1.0000000
F    1   1.00
      1.0000000              1.0000000
****
O     0
S    6   1.00
   5484.6717000              0.0018311
    825.2349500              0.0139501
    188.0469600              0.0684451
     52.9645000              0.2327143
     16.8975700              0.4701930
      5.7996353              0.3585209
SP   3   1.00
     15.5396160             -0.1107775              0.0708743
      3.5999336             -0.1480263              0.3397528
      1.0137618              1.1307670              0.7271586
SP   1   1.00
      0.2700058              1.0000000              1.0000000
D    1   1.00
      2.5840000              1.0000000
D    1   1.00
      0.6460000              1.0000000
F    1   1.00
      1.4000000              1.0000000
****
F     0
S    6   1.00
   7001.7130900              0.0018196169
   1051.3660900              0.0139160796
    239.2856900              0.0684053245
     67.3974453              0.233185760
     21.5199573              0.471267439
      7.40310130             0.356618546
SP   3   1.00
     20.8479528             -0.108506975            0.0716287243
      4.80830834            -0.146451658            0.3459121030
      1.34406986             1.128688580            0.7224699570
SP   1   1.00
      0.358151393            1.0000000              1.0000000
D    1   1.00
      3.5000000              1.0000000
D    1   1.00
      0.8750000              1.0000000
F    1   1.00
      1.8500000              1.0000000
****
Al     0
S    6   1.00
  13983.1000000              0.00194267
   2098.7500000              0.0148599
    477.7050000              0.0728494
    134.3600000              0.2468300
     42.8709000              0.4872580
     14.5189000              0.3234960
SP   6   1.00
    239.6680000             -0.00292619             0.00460285
     57.4419000             -0.0374080              0.0331990
     18.2859000             -0.1144870              0.1362820
      6.5991400              0.1156350              0.3304760
      2.4904900              0.6125950              0.4491460
      0.9445400              0.3937990              0.2657040
SP   3   1.00
      1.2779000             -0.2276060             -0.0175130
      0.3975900              0.00144583             0.2445330
      0.1600950              1.0927900              0.8049340
SP   1   1.00
      0.0556577              1.0000000              1.0000000
D    1   1.00
      0.6500000              1.0000000
D    1   1.00
      0.1625000              1.0000000
F    1   1.00
      0.2500000              1.0000000
****
Si     0
S    6   1.00
  16115.9000000              0.00195948
   2425.5800000              0.01492880
    553.8670000              0.07284780
    156.3400000              0.24613000
     50.0683000              0.48591400
     17.0178000              0.32500200
SP   6   1.00
    292.7180000             -0.00278094             0.00443826
     69.8731000             -0.03571460             0.03266790
     22.3363000             -0.11498500             0.13472100
      8.1503900              0.09356340             0.32867800
      3.1345800              0.60301700             0.44964000
      1.2254300              0.41895900             0.26137200
SP   3   1.00
      1.7273800             -0.24463000            -0.01779510
      0.5729220              0.00431572             0.25353900
      0.2221920              1.09818000             0.80066900
SP   1   1.00
      0.0778369              1.00000000             1.00000000
D    1   1.00
      0.9000000              1.0000000
D    1   1.00
      0.2250000              1.0000000
F    1   1.00
      0.3200000              1.0000000
****
P     0
S    6   1.00
  19413.3000000              0.0018516
   2909.4200000              0.0142062
    661.3640000              0.0699995
    185.7590000              0.2400790
     59.1943000              0.4847620
     20.0310000              0.3352000
SP   6   1.00
    339.4780000             -0.00278217             0.00456462
     81.0101000             -0.0360499              0.03369360
     25.8780000             -0.1166310              0.13975500
      9.4522100              0.0968328              0.33936200
      3.6656600              0.6144180              0.45092100
      1.4674600              0.4037980              0.23858600
SP   3   1.00
      2.1562300             -0.2529230             -0.01776530
      0.7489970              0.0328517              0.27405800
      0.2831450              1.0812500              0.78542100
SP   1   1.00
      0.0998317              1.0000000              1.00000000
D    1   1.00
      1.1000000              1.0000000
D    1   1.00
      0.2750000              1.0000000
F    1   1.00
      0.4500000              1.0000000
****
S     0
S    6   1.00
  21917.1000000              0.0018690
   3301.4900000              0.0142300
    754.1460000              0.0696960
    212.7110000              0.2384870
     67.9896000              0.4833070
     23.0515000              0.3380740
SP   6   1.00
    423.7350000             -0.0023767              0.0040610
    100.7100000             -0.0316930              0.0306810
     32.1599000             -0.1133170              0.1304520
     11.8079000              0.0560900              0.3272050
      4.6311000              0.5922550              0.4528510
      1.8702500              0.4550060              0.2560420
SP   3   1.00
      2.6158400             -0.2503740             -0.0145110
      0.9221670              0.0669570              0.3102630
      0.3412870              1.0545100              0.7544830
SP   1   1.00
      0.1171670              1.0000000              1.0000000
D    1   1.00
      1.3000000              1.0000000
D    1   1.00
      0.3250000              1.0000000
F    1   1.00
      0.5500000              1.0000000
****
Cl     0
S    6   1.00
  25180.1000000              0.0018330
   3780.3500000              0.0140340
    860.4740000              0.0690970
    242.1450000              0.2374520
     77.3349000              0.4830340
     26.2470000              0.3398560
SP   6   1.00
    491.7650000             -0.0022974              0.0039894
    116.9840000             -0.0307140              0.0303180
     37.4153000             -0.1125280              0.1298800
     13.7834000              0.0450160              0.3279510
      5.4521500              0.5893530              0.4535270
      2.2258800              0.4652060              0.2521540
SP   3   1.00
      3.1864900             -0.2518300             -0.0142990
      1.1442700              0.0615890              0.3235720
      0.4203770              1.0601800              0.7435070
SP   1   1.00
      0.1426570              1.0000000              1.0000000
D    1   1.00
      1.5000000              1.0000000
D    1   1.00
      0.3750000              1.0000000
F    1   1.00
      0.7000000              1.0000000
****
}

set {
reference uhf
freeze_core true
e_convergence 10
d_convergence 10
dft_spherical_points 1202
dft_radial_points 99
}

e = energy('b3lyp')

print_out('Grab this energy {0}'.format(e))
--------------------------------------------------------------------------

    Molecular point group: c1

    Geometry (in Bohr), charge = 0, multiplicity = 2:

       Center              X                  Y                   Z               Mass
    ------------   -----------------  -----------------  -----------------  -----------------
         C           -0.259310044478     0.803130352217     0.003742036572    12.000000000000
         O           -2.190600233078    -0.335669398783    -0.003216154328    15.994914619570
         C            2.409281330822    -0.242217432283     0.000862385572    12.000000000000
         H            2.387136485322    -2.299100628983    -0.000838978728     1.007825032230
         H            3.390025463622     0.472668846417    -1.670361956828     1.007825032230
         H            3.389913646622     0.475054686617     1.667419572972     1.007825032230

  Charge       = 0
  Multiplicity = 2
  Basis Set: ANONYMOUS54BC6618
    Blend: 6-31G_2DFP_
  Basis Set: (ANONYMOUS54BC6618 AUX)
    Blend: DEF2-UNIVERSAL-JKFIT

    Orbital Energies [Eh]
    ---------------------

    Alpha Occupied:

       1A    -19.186803     2A    -10.271425     3A    -10.210434
       4A     -1.081335     5A     -0.762072     6A     -0.543902
       7A     -0.466515     8A     -0.457754     9A     -0.456207
      10A     -0.387409    11A     -0.386029    12A     -0.191919

    Alpha Virtual:

      13A     -0.018805    14A      0.091437    15A      0.137528
      16A      0.140748    17A      0.218110    18A      0.268309
      19A      0.427895    20A      0.432043    21A      0.443661
      22A      0.493298    23A      0.506386    24A      0.530337
      25A      0.562575    26A      0.577683    27A      0.608793
      28A      0.615434    29A      0.644448    30A      0.717755
      31A      0.766142    32A      0.785387    33A      0.831983
      34A      0.917233    35A      0.926906    36A      0.936133
      37A      1.023146    38A      1.086351    39A      1.106637
      40A      1.153335    41A      1.222704    42A      1.306530
      43A      1.316911    44A      1.327866    45A      1.402950
      46A      1.407070    47A      1.468501    48A      1.560131
      49A      1.630944    50A      1.653870    51A      1.719899
      52A      1.811834    53A      1.835465    54A      1.901872
      55A      2.065213    56A      2.167188    57A      2.495793
      58A      2.680166    59A      2.744448    60A      2.784808
      61A      2.840017    62A      2.894741    63A      2.974553
      64A      3.031506    65A      3.058582    66A      3.104792
      67A      3.115383    68A      3.181196    69A      3.314791
      70A      3.368449    71A      3.393769    72A      3.441306
      73A      3.465638    74A      3.485208    75A      3.571057
      76A      3.740007    77A      3.764084    78A      3.943181
      79A      3.982444    80A      4.055809    81A      4.109893
      82A      4.120150    83A      4.189539    84A      4.387474
      85A      4.435230    86A      4.447960    87A      4.534509
      88A      4.918338    89A      5.037113    90A      5.042307
      91A      5.192803    92A      5.212353    93A      5.474181
      94A      5.482468    95A      5.826846    96A      5.930888
      97A      6.105145    98A      6.770796    99A      6.772963
     100A      7.071334   101A      7.135217   102A      7.530223

    Beta Occupied:

       1A    -19.178736     2A    -10.261356     3A    -10.207063
       4A     -1.065408     5A     -0.750265     6A     -0.524156
       7A     -0.451672     8A     -0.447292     9A     -0.438819
      10A     -0.382245    11A     -0.347847

    Beta Virtual:

      12A     -0.052358    13A     -0.002539    14A      0.094077
      15A      0.143253    16A      0.143891    17A      0.228481
      18A      0.273993    19A      0.433978    20A      0.434971
      21A      0.465839    22A      0.499983    23A      0.527718
      24A      0.539211    25A      0.568872    26A      0.581916
      27A      0.622708    28A      0.627445    29A      0.650216
      30A      0.739743    31A      0.777277    32A      0.795376
      33A      0.832759    34A      0.922082    35A      0.943611
      36A      0.951086    37A      1.027339    38A      1.092393
      39A      1.108784    40A      1.159539    41A      1.231972
      42A      1.312049    43A      1.319704    44A      1.334657
      45A      1.412605    46A      1.413299    47A      1.480855
      48A      1.571229    49A      1.644304    50A      1.668249
      51A      1.726130    52A      1.814996    53A      1.849587
      54A      1.908574    55A      2.071926    56A      2.188616
      57A      2.508474    58A      2.694430    59A      2.759007
      60A      2.805892    61A      2.855296    62A      2.896383
      63A      2.984017    64A      3.048166    65A      3.067292
      66A      3.123377    67A      3.123996    68A      3.215920
      69A      3.358479    70A      3.379871    71A      3.399911
      72A      3.449215    73A      3.481705    74A      3.508285
      75A      3.584439    76A      3.765725    77A      3.773441
      78A      3.951883    79A      3.991711    80A      4.072112
      81A      4.122900    82A      4.123862    83A      4.201912
      84A      4.389759    85A      4.441442    86A      4.452157
      87A      4.545436    88A      4.922169    89A      5.054660
      90A      5.060312    91A      5.194928    92A      5.218083
      93A      5.486825    94A      5.496395    95A      5.840097
      96A      5.936481    97A      6.128347    98A      6.800077
      99A      6.802585   100A      7.075637   101A      7.164597
     102A      7.541888

    Final Occupation by Irrep:
              A
    DOCC [    11 ]
    SOCC [     1 ]

  @DF-UKS Final Energy:  -153.18842861734029

   => Energetics <=

    Nuclear Repulsion Energy =             62.8024082412367903
    One-Electron Energy =                -331.6047186319379989
    Two-Electron Energy =                 132.1945876149852666
    DFT Exchange-Correlation Energy =     -16.5807058416243329
    Empirical Dispersion Energy =           0.0000000000000000
    VV10 Nonlocal Energy =                  0.0000000000000000
    Total Energy =                       -153.1884286173402927

  UHF NO Occupations:
  HONO-2 :   10  A 1.9997862
  HONO-1 :   11  A 1.9992020
  HONO-0 :   12  A 1.0000000
  LUNO+0 :   13  A 0.0007980
  LUNO+1 :   14  A 0.0002138
  LUNO+2 :   15  A 0.0001803
  LUNO+3 :   16  A 0.0000615

Computation Completed

Properties will be evaluated at   0.000000,   0.000000,   0.000000 [a0]

Properties computed using the SCF density matrix

  Nuclear Dipole Moment: [e a0]
     X:     4.5421      Y:    -0.6713      Z:    -0.0019

  Electronic Dipole Moment: [e a0]
     X:    -3.6104      Y:     0.6211      Z:     0.0019

  Dipole Moment: [e a0]
     X:     0.9317      Y:    -0.0501      Z:    -0.0000     Total:     0.9331

  Dipole Moment: [D]
     X:     2.3682      Y:    -0.1274      Z:    -0.0000     Total:     2.3717

*** tstop() called on n051 at Thu Nov  4 14:52:53 2021
Module time:
	user time   =      50.62 seconds =       0.84 minutes
	system time =       0.50 seconds =       0.01 minutes
	total time  =         51 seconds =       0.85 minutes
Total time:
	user time   =      50.62 seconds =       0.84 minutes
	system time =       0.50 seconds =       0.01 minutes
	total time  =         51 seconds =       0.85 minutes
Grab this energy -153.1884286173403
    Psi4 stopped on: Thursday, 04 November 2021 02:52PM
    Psi4 wall time for execution: 0:00:51.16

*** Psi4 exiting successfully. Buy a developer a beer!
