                               Psi4 1.4a2.dev629

  ==> Input File <==

--------------------------------------------------------------------------
import os
memory 14 GB

molecule {
 C   -0.2619316938    0.8103146026   -0.0004737285
 O   -2.1907943415   -0.3345061599    0.0000996515
 C    2.4103746235   -0.2457448494   -0.0015428456
 H    2.3865286280   -2.3087738443   -0.0043223331
 H    3.3881140076    0.4626716331   -1.6616022087
 H    3.3923467585    0.4704042657    1.6678414644
units bohr
0 2
}

basis {

assign 6-31g_2dfp_

[ 6-31g_2dfp_ ]

spherical

!----------------------------------------------------------------------
! Basis Set Exchange
! Version v0.8.13
! https://www.basissetexchange.org
!----------------------------------------------------------------------
!   Basis set: 6-31G(2df,p)
! Description: 6-31G(2df,p)
!        Role: orbital
!     Version: 0  (Data from the original Basis Set Exchange)
!----------------------------------------------------------------------

****
H     0
S    3   1.00
     18.7311370              0.03349460
      2.8253937              0.23472695
      0.6401217              0.81375733
S    1   1.00
      0.1612778              1.00000000
P    1   1.00
      1.5000000              1.0000000
P    1   1.00
      0.3750000              1.0000000
****
B     0
S    6   1.00
   2068.8823000              0.0018663
    310.6495700              0.0142515
     70.6830330              0.0695516
     19.8610800              0.2325729
      6.2993048              0.4670787
      2.1270270              0.3634314
SP   3   1.00
      4.7279710             -0.1303938              0.0745976
      1.1903377             -0.1307889              0.3078467
      0.3594117              1.1309444              0.7434568
SP   1   1.00
      0.1267512              1.0000000              1.0000000
D    1   1.00
      0.8020000              1.0000000
D    1   1.00
      0.2005000              1.0000000
F    1   1.00
      0.5000000              1.0000000
****
C     0
S    6   1.00
   3047.5249000              0.0018347
    457.3695100              0.0140373
    103.9486900              0.0688426
     29.2101550              0.2321844
      9.2866630              0.4679413
      3.1639270              0.3623120
SP   3   1.00
      7.8682724             -0.1193324              0.0689991
      1.8812885             -0.1608542              0.3164240
      0.5442493              1.1434564              0.7443083
SP   1   1.00
      0.1687144              1.0000000              1.0000000
D    1   1.00
      1.2520000              1.0000000
D    1   1.00
      0.3130000              1.0000000
F    1   1.00
      0.8000000              1.0000000
****
N     0
S    6   1.00
   4173.5110000              0.0018348
    627.4579000              0.0139950
    142.9021000              0.0685870
     40.2343300              0.2322410
     12.8202100              0.4690700
      4.3904370              0.3604550
SP   3   1.00
     11.6263580             -0.1149610              0.0675800
      2.7162800             -0.1691180              0.3239070
      0.7722180              1.1458520              0.7408950
SP   1   1.00
      0.2120313              1.0000000              1.0000000
D    1   1.00
      1.8260000              1.0000000
D    1   1.00
      0.4565000              1.0000000
F    1   1.00
      1.0000000              1.0000000
****
O     0
S    6   1.00
   5484.6717000              0.0018311
    825.2349500              0.0139501
    188.0469600              0.0684451
     52.9645000              0.2327143
     16.8975700              0.4701930
      5.7996353              0.3585209
SP   3   1.00
     15.5396160             -0.1107775              0.0708743
      3.5999336             -0.1480263              0.3397528
      1.0137618              1.1307670              0.7271586
SP   1   1.00
      0.2700058              1.0000000              1.0000000
D    1   1.00
      2.5840000              1.0000000
D    1   1.00
      0.6460000              1.0000000
F    1   1.00
      1.4000000              1.0000000
****
F     0
S    6   1.00
   7001.7130900              0.0018196169
   1051.3660900              0.0139160796
    239.2856900              0.0684053245
     67.3974453              0.233185760
     21.5199573              0.471267439
      7.40310130             0.356618546
SP   3   1.00
     20.8479528             -0.108506975            0.0716287243
      4.80830834            -0.146451658            0.3459121030
      1.34406986             1.128688580            0.7224699570
SP   1   1.00
      0.358151393            1.0000000              1.0000000
D    1   1.00
      3.5000000              1.0000000
D    1   1.00
      0.8750000              1.0000000
F    1   1.00
      1.8500000              1.0000000
****
Al     0
S    6   1.00
  13983.1000000              0.00194267
   2098.7500000              0.0148599
    477.7050000              0.0728494
    134.3600000              0.2468300
     42.8709000              0.4872580
     14.5189000              0.3234960
SP   6   1.00
    239.6680000             -0.00292619             0.00460285
     57.4419000             -0.0374080              0.0331990
     18.2859000             -0.1144870              0.1362820
      6.5991400              0.1156350              0.3304760
      2.4904900              0.6125950              0.4491460
      0.9445400              0.3937990              0.2657040
SP   3   1.00
      1.2779000             -0.2276060             -0.0175130
      0.3975900              0.00144583             0.2445330
      0.1600950              1.0927900              0.8049340
SP   1   1.00
      0.0556577              1.0000000              1.0000000
D    1   1.00
      0.6500000              1.0000000
D    1   1.00
      0.1625000              1.0000000
F    1   1.00
      0.2500000              1.0000000
****
Si     0
S    6   1.00
  16115.9000000              0.00195948
   2425.5800000              0.01492880
    553.8670000              0.07284780
    156.3400000              0.24613000
     50.0683000              0.48591400
     17.0178000              0.32500200
SP   6   1.00
    292.7180000             -0.00278094             0.00443826
     69.8731000             -0.03571460             0.03266790
     22.3363000             -0.11498500             0.13472100
      8.1503900              0.09356340             0.32867800
      3.1345800              0.60301700             0.44964000
      1.2254300              0.41895900             0.26137200
SP   3   1.00
      1.7273800             -0.24463000            -0.01779510
      0.5729220              0.00431572             0.25353900
      0.2221920              1.09818000             0.80066900
SP   1   1.00
      0.0778369              1.00000000             1.00000000
D    1   1.00
      0.9000000              1.0000000
D    1   1.00
      0.2250000              1.0000000
F    1   1.00
      0.3200000              1.0000000
****
P     0
S    6   1.00
  19413.3000000              0.0018516
   2909.4200000              0.0142062
    661.3640000              0.0699995
    185.7590000              0.2400790
     59.1943000              0.4847620
     20.0310000              0.3352000
SP   6   1.00
    339.4780000             -0.00278217             0.00456462
     81.0101000             -0.0360499              0.03369360
     25.8780000             -0.1166310              0.13975500
      9.4522100              0.0968328              0.33936200
      3.6656600              0.6144180              0.45092100
      1.4674600              0.4037980              0.23858600
SP   3   1.00
      2.1562300             -0.2529230             -0.01776530
      0.7489970              0.0328517              0.27405800
      0.2831450              1.0812500              0.78542100
SP   1   1.00
      0.0998317              1.0000000              1.00000000
D    1   1.00
      1.1000000              1.0000000
D    1   1.00
      0.2750000              1.0000000
F    1   1.00
      0.4500000              1.0000000
****
S     0
S    6   1.00
  21917.1000000              0.0018690
   3301.4900000              0.0142300
    754.1460000              0.0696960
    212.7110000              0.2384870
     67.9896000              0.4833070
     23.0515000              0.3380740
SP   6   1.00
    423.7350000             -0.0023767              0.0040610
    100.7100000             -0.0316930              0.0306810
     32.1599000             -0.1133170              0.1304520
     11.8079000              0.0560900              0.3272050
      4.6311000              0.5922550              0.4528510
      1.8702500              0.4550060              0.2560420
SP   3   1.00
      2.6158400             -0.2503740             -0.0145110
      0.9221670              0.0669570              0.3102630
      0.3412870              1.0545100              0.7544830
SP   1   1.00
      0.1171670              1.0000000              1.0000000
D    1   1.00
      1.3000000              1.0000000
D    1   1.00
      0.3250000              1.0000000
F    1   1.00
      0.5500000              1.0000000
****
Cl     0
S    6   1.00
  25180.1000000              0.0018330
   3780.3500000              0.0140340
    860.4740000              0.0690970
    242.1450000              0.2374520
     77.3349000              0.4830340
     26.2470000              0.3398560
SP   6   1.00
    491.7650000             -0.0022974              0.0039894
    116.9840000             -0.0307140              0.0303180
     37.4153000             -0.1125280              0.1298800
     13.7834000              0.0450160              0.3279510
      5.4521500              0.5893530              0.4535270
      2.2258800              0.4652060              0.2521540
SP   3   1.00
      3.1864900             -0.2518300             -0.0142990
      1.1442700              0.0615890              0.3235720
      0.4203770              1.0601800              0.7435070
SP   1   1.00
      0.1426570              1.0000000              1.0000000
D    1   1.00
      1.5000000              1.0000000
D    1   1.00
      0.3750000              1.0000000
F    1   1.00
      0.7000000              1.0000000
****
}

set {
reference uhf
freeze_core true
e_convergence 10
d_convergence 10
dft_spherical_points 1202
dft_radial_points 99
}

e = energy('b3lyp')

print_out('Grab this energy {0}'.format(e))
--------------------------------------------------------------------------

    Molecular point group: c1

    Geometry (in Bohr), charge = 0, multiplicity = 2:

       Center              X                  Y                   Z               Mass
    ------------   -----------------  -----------------  -----------------  -----------------
         C           -0.261431165921     0.809431800034     0.000006834569    12.000000000000
         O           -2.190293813621    -0.335388962466     0.000580214569    15.994914619570
         C            2.410875151379    -0.246627651966    -0.001062282531    12.000000000000
         H            2.387029155879    -2.309656646866    -0.003841770031     1.007825032230
         H            3.388614535479     0.461788830534    -1.661121645631     1.007825032230
         H            3.392847286379     0.469521463134     1.668322027469     1.007825032230

  Charge       = 0
  Multiplicity = 2
  Basis Set: ANONYMOUSE0A4E532
    Blend: 6-31G_2DFP_
  Basis Set: (ANONYMOUSE0A4E532 AUX)
    Blend: DEF2-UNIVERSAL-JKFIT

    Orbital Energies [Eh]
    ---------------------

    Alpha Occupied:

       1A    -19.187142     2A    -10.271934     3A    -10.210333
       4A     -1.081344     5A     -0.761403     6A     -0.544061
       7A     -0.466175     8A     -0.457335     9A     -0.456171
      10A     -0.387721    11A     -0.385931    12A     -0.192811

    Alpha Virtual:

      13A     -0.019025    14A      0.091932    15A      0.137018
      16A      0.141453    17A      0.216970    18A      0.268179
      19A      0.428228    20A      0.431965    21A      0.443412
      22A      0.493431    23A      0.506319    24A      0.530272
      25A      0.563186    26A      0.577586    27A      0.607604
      28A      0.615396    29A      0.643958    30A      0.717752
      31A      0.766562    32A      0.785288    33A      0.832672
      34A      0.917084    35A      0.926894    36A      0.935755
      37A      1.022417    38A      1.085985    39A      1.107626
      40A      1.152699    41A      1.220633    42A      1.305482
      43A      1.317380    44A      1.327002    45A      1.403507
      46A      1.406805    47A      1.467026    48A      1.559258
      49A      1.628837    50A      1.653477    51A      1.720427
      52A      1.813625    53A      1.833834    54A      1.901737
      55A      2.063929    56A      2.163472    57A      2.495367
      58A      2.679728    59A      2.743026    60A      2.783565
      61A      2.842756    62A      2.895151    63A      2.971967
      64A      3.032983    65A      3.058629    66A      3.105586
      67A      3.113209    68A      3.183535    69A      3.314103
      70A      3.369732    71A      3.394495    72A      3.438679
      73A      3.464537    74A      3.486343    75A      3.571523
      76A      3.737758    77A      3.758599    78A      3.941987
      79A      3.979988    80A      4.052568    81A      4.107395
      82A      4.121534    83A      4.188638    84A      4.390076
      85A      4.430840    86A      4.447318    87A      4.531609
      88A      4.918986    89A      5.036955    90A      5.041947
      91A      5.196862    92A      5.210517    93A      5.472755
      94A      5.480850    95A      5.825601    96A      5.929144
      97A      6.101660    98A      6.770282    99A      6.772409
     100A      7.070135   101A      7.134979   102A      7.529251

    Beta Occupied:

       1A    -19.179060     2A    -10.261897     3A    -10.206923
       4A     -1.065398     5A     -0.749602     6A     -0.524293
       7A     -0.451670     8A     -0.446551     9A     -0.438579
      10A     -0.382521    11A     -0.347797

    Beta Virtual:

      12A     -0.053458    13A     -0.002728    14A      0.094641
      15A      0.142670    16A      0.144566    17A      0.227552
      18A      0.273873    19A      0.433876    20A      0.435895
      21A      0.465072    22A      0.500114    23A      0.527751
      24A      0.539111    25A      0.569651    26A      0.581773
      27A      0.622496    28A      0.626262    29A      0.649545
      30A      0.739584    31A      0.777680    32A      0.795276
      33A      0.833430    34A      0.921920    35A      0.943674
      36A      0.950743    37A      1.026605    38A      1.092079
      39A      1.109746    40A      1.158956    41A      1.229853
      42A      1.311080    43A      1.320247    44A      1.333800
      45A      1.412228    46A      1.414000    47A      1.479389
      48A      1.570565    49A      1.642003    50A      1.667884
      51A      1.726621    52A      1.816778    53A      1.847877
      54A      1.908406    55A      2.070645    56A      2.184863
      57A      2.508061    58A      2.694013    59A      2.757433
      60A      2.804674    61A      2.857981    62A      2.896802
      63A      2.981537    64A      3.049606    65A      3.067182
      66A      3.121396    67A      3.124465    68A      3.218161
      69A      3.357769    70A      3.381163    71A      3.400745
      72A      3.447234    73A      3.480097    74A      3.509475
      75A      3.584733    76A      3.763187    77A      3.768334
      78A      3.950712    79A      3.989320    80A      4.069099
      81A      4.122313    82A      4.124567    83A      4.199886
      84A      4.392343    85A      4.437002    86A      4.451508
      87A      4.542447    88A      4.922881    89A      5.054497
      90A      5.060008    91A      5.199464    92A      5.215759
      93A      5.485409    94A      5.494754    95A      5.838841
      96A      5.934731    97A      6.124886    98A      6.799648
      99A      6.802113   100A      7.074439   101A      7.164406
     102A      7.540932

    Final Occupation by Irrep:
              A
    DOCC [    11 ]
    SOCC [     1 ]

  @DF-UKS Final Energy:  -153.18840252309121

   => Energetics <=

    Nuclear Repulsion Energy =             62.7576397562657391
    One-Electron Energy =                -331.5157853956810641
    Two-Electron Energy =                 132.1494735546792185
    DFT Exchange-Correlation Energy =     -16.5797304383551207
    Empirical Dispersion Energy =           0.0000000000000000
    VV10 Nonlocal Energy =                  0.0000000000000000
    Total Energy =                       -153.1884025230912130

  UHF NO Occupations:
  HONO-2 :   10  A 1.9997803
  HONO-1 :   11  A 1.9992004
  HONO-0 :   12  A 1.0000000
  LUNO+0 :   13  A 0.0007996
  LUNO+1 :   14  A 0.0002197
  LUNO+2 :   15  A 0.0001786
  LUNO+3 :   16  A 0.0000618

Computation Completed

Properties will be evaluated at   0.000000,   0.000000,   0.000000 [a0]

Properties computed using the SCF density matrix

  Nuclear Dipole Moment: [e a0]
     X:     4.5428      Y:    -0.6846      Z:     0.0017

  Electronic Dipole Moment: [e a0]
     X:    -3.6145      Y:     0.6343      Z:    -0.0027

  Dipole Moment: [e a0]
     X:     0.9283      Y:    -0.0503      Z:    -0.0010     Total:     0.9297

  Dipole Moment: [D]
     X:     2.3596      Y:    -0.1278      Z:    -0.0025     Total:     2.3631

*** tstop() called on n066 at Tue Mar 15 10:33:24 2022
Module time:
	user time   =      50.78 seconds =       0.85 minutes
	system time =       0.48 seconds =       0.01 minutes
	total time  =         52 seconds =       0.87 minutes
Total time:
	user time   =      50.78 seconds =       0.85 minutes
	system time =       0.48 seconds =       0.01 minutes
	total time  =         52 seconds =       0.87 minutes
Grab this energy -153.1884025230912
    Psi4 stopped on: Tuesday, 15 March 2022 10:33AM
    Psi4 wall time for execution: 0:00:51.30

*** Psi4 exiting successfully. Buy a developer a beer!
