                               Psi4 1.4a2.dev629

  ==> Input File <==

--------------------------------------------------------------------------
import os
memory 14 GB

molecule {
 C   -0.2559341040    0.8088920881   -0.0000000000
 O   -2.1792387435   -0.3401069881   -0.0000000000
 C    2.4067449388   -0.2439691463   -0.0000000000
 H    2.3731779444   -2.3065059447    0.0000000000
 H    3.3899439732    0.4680278194   -1.6636535627
 H    3.3899439732    0.4680278194    1.6636535627
units bohr
0 2
}

basis {

assign 6-31g_2dfp_

[ 6-31g_2dfp_ ]

spherical

!----------------------------------------------------------------------
! Basis Set Exchange
! Version v0.8.13
! https://www.basissetexchange.org
!----------------------------------------------------------------------
!   Basis set: 6-31G(2df,p)
! Description: 6-31G(2df,p)
!        Role: orbital
!     Version: 0  (Data from the original Basis Set Exchange)
!----------------------------------------------------------------------

****
H     0
S    3   1.00
     18.7311370              0.03349460
      2.8253937              0.23472695
      0.6401217              0.81375733
S    1   1.00
      0.1612778              1.00000000
P    1   1.00
      1.5000000              1.0000000
P    1   1.00
      0.3750000              1.0000000
****
B     0
S    6   1.00
   2068.8823000              0.0018663
    310.6495700              0.0142515
     70.6830330              0.0695516
     19.8610800              0.2325729
      6.2993048              0.4670787
      2.1270270              0.3634314
SP   3   1.00
      4.7279710             -0.1303938              0.0745976
      1.1903377             -0.1307889              0.3078467
      0.3594117              1.1309444              0.7434568
SP   1   1.00
      0.1267512              1.0000000              1.0000000
D    1   1.00
      0.8020000              1.0000000
D    1   1.00
      0.2005000              1.0000000
F    1   1.00
      0.5000000              1.0000000
****
C     0
S    6   1.00
   3047.5249000              0.0018347
    457.3695100              0.0140373
    103.9486900              0.0688426
     29.2101550              0.2321844
      9.2866630              0.4679413
      3.1639270              0.3623120
SP   3   1.00
      7.8682724             -0.1193324              0.0689991
      1.8812885             -0.1608542              0.3164240
      0.5442493              1.1434564              0.7443083
SP   1   1.00
      0.1687144              1.0000000              1.0000000
D    1   1.00
      1.2520000              1.0000000
D    1   1.00
      0.3130000              1.0000000
F    1   1.00
      0.8000000              1.0000000
****
N     0
S    6   1.00
   4173.5110000              0.0018348
    627.4579000              0.0139950
    142.9021000              0.0685870
     40.2343300              0.2322410
     12.8202100              0.4690700
      4.3904370              0.3604550
SP   3   1.00
     11.6263580             -0.1149610              0.0675800
      2.7162800             -0.1691180              0.3239070
      0.7722180              1.1458520              0.7408950
SP   1   1.00
      0.2120313              1.0000000              1.0000000
D    1   1.00
      1.8260000              1.0000000
D    1   1.00
      0.4565000              1.0000000
F    1   1.00
      1.0000000              1.0000000
****
O     0
S    6   1.00
   5484.6717000              0.0018311
    825.2349500              0.0139501
    188.0469600              0.0684451
     52.9645000              0.2327143
     16.8975700              0.4701930
      5.7996353              0.3585209
SP   3   1.00
     15.5396160             -0.1107775              0.0708743
      3.5999336             -0.1480263              0.3397528
      1.0137618              1.1307670              0.7271586
SP   1   1.00
      0.2700058              1.0000000              1.0000000
D    1   1.00
      2.5840000              1.0000000
D    1   1.00
      0.6460000              1.0000000
F    1   1.00
      1.4000000              1.0000000
****
F     0
S    6   1.00
   7001.7130900              0.0018196169
   1051.3660900              0.0139160796
    239.2856900              0.0684053245
     67.3974453              0.233185760
     21.5199573              0.471267439
      7.40310130             0.356618546
SP   3   1.00
     20.8479528             -0.108506975            0.0716287243
      4.80830834            -0.146451658            0.3459121030
      1.34406986             1.128688580            0.7224699570
SP   1   1.00
      0.358151393            1.0000000              1.0000000
D    1   1.00
      3.5000000              1.0000000
D    1   1.00
      0.8750000              1.0000000
F    1   1.00
      1.8500000              1.0000000
****
Al     0
S    6   1.00
  13983.1000000              0.00194267
   2098.7500000              0.0148599
    477.7050000              0.0728494
    134.3600000              0.2468300
     42.8709000              0.4872580
     14.5189000              0.3234960
SP   6   1.00
    239.6680000             -0.00292619             0.00460285
     57.4419000             -0.0374080              0.0331990
     18.2859000             -0.1144870              0.1362820
      6.5991400              0.1156350              0.3304760
      2.4904900              0.6125950              0.4491460
      0.9445400              0.3937990              0.2657040
SP   3   1.00
      1.2779000             -0.2276060             -0.0175130
      0.3975900              0.00144583             0.2445330
      0.1600950              1.0927900              0.8049340
SP   1   1.00
      0.0556577              1.0000000              1.0000000
D    1   1.00
      0.6500000              1.0000000
D    1   1.00
      0.1625000              1.0000000
F    1   1.00
      0.2500000              1.0000000
****
Si     0
S    6   1.00
  16115.9000000              0.00195948
   2425.5800000              0.01492880
    553.8670000              0.07284780
    156.3400000              0.24613000
     50.0683000              0.48591400
     17.0178000              0.32500200
SP   6   1.00
    292.7180000             -0.00278094             0.00443826
     69.8731000             -0.03571460             0.03266790
     22.3363000             -0.11498500             0.13472100
      8.1503900              0.09356340             0.32867800
      3.1345800              0.60301700             0.44964000
      1.2254300              0.41895900             0.26137200
SP   3   1.00
      1.7273800             -0.24463000            -0.01779510
      0.5729220              0.00431572             0.25353900
      0.2221920              1.09818000             0.80066900
SP   1   1.00
      0.0778369              1.00000000             1.00000000
D    1   1.00
      0.9000000              1.0000000
D    1   1.00
      0.2250000              1.0000000
F    1   1.00
      0.3200000              1.0000000
****
P     0
S    6   1.00
  19413.3000000              0.0018516
   2909.4200000              0.0142062
    661.3640000              0.0699995
    185.7590000              0.2400790
     59.1943000              0.4847620
     20.0310000              0.3352000
SP   6   1.00
    339.4780000             -0.00278217             0.00456462
     81.0101000             -0.0360499              0.03369360
     25.8780000             -0.1166310              0.13975500
      9.4522100              0.0968328              0.33936200
      3.6656600              0.6144180              0.45092100
      1.4674600              0.4037980              0.23858600
SP   3   1.00
      2.1562300             -0.2529230             -0.01776530
      0.7489970              0.0328517              0.27405800
      0.2831450              1.0812500              0.78542100
SP   1   1.00
      0.0998317              1.0000000              1.00000000
D    1   1.00
      1.1000000              1.0000000
D    1   1.00
      0.2750000              1.0000000
F    1   1.00
      0.4500000              1.0000000
****
S     0
S    6   1.00
  21917.1000000              0.0018690
   3301.4900000              0.0142300
    754.1460000              0.0696960
    212.7110000              0.2384870
     67.9896000              0.4833070
     23.0515000              0.3380740
SP   6   1.00
    423.7350000             -0.0023767              0.0040610
    100.7100000             -0.0316930              0.0306810
     32.1599000             -0.1133170              0.1304520
     11.8079000              0.0560900              0.3272050
      4.6311000              0.5922550              0.4528510
      1.8702500              0.4550060              0.2560420
SP   3   1.00
      2.6158400             -0.2503740             -0.0145110
      0.9221670              0.0669570              0.3102630
      0.3412870              1.0545100              0.7544830
SP   1   1.00
      0.1171670              1.0000000              1.0000000
D    1   1.00
      1.3000000              1.0000000
D    1   1.00
      0.3250000              1.0000000
F    1   1.00
      0.5500000              1.0000000
****
Cl     0
S    6   1.00
  25180.1000000              0.0018330
   3780.3500000              0.0140340
    860.4740000              0.0690970
    242.1450000              0.2374520
     77.3349000              0.4830340
     26.2470000              0.3398560
SP   6   1.00
    491.7650000             -0.0022974              0.0039894
    116.9840000             -0.0307140              0.0303180
     37.4153000             -0.1125280              0.1298800
     13.7834000              0.0450160              0.3279510
      5.4521500              0.5893530              0.4535270
      2.2258800              0.4652060              0.2521540
SP   3   1.00
      3.1864900             -0.2518300             -0.0142990
      1.1442700              0.0615890              0.3235720
      0.4203770              1.0601800              0.7435070
SP   1   1.00
      0.1426570              1.0000000              1.0000000
D    1   1.00
      1.5000000              1.0000000
D    1   1.00
      0.3750000              1.0000000
F    1   1.00
      0.7000000              1.0000000
****
}

set {
reference uhf
freeze_core true
e_convergence 10
d_convergence 10
dft_spherical_points 1202
dft_radial_points 99
}

e = energy('b3lyp')

print_out('Grab this energy {0}'.format(e))
--------------------------------------------------------------------------

    Molecular point group: cs

    Geometry (in Bohr), charge = 0, multiplicity = 2:

       Center              X                  Y                   Z               Mass
    ------------   -----------------  -----------------  -----------------  -----------------
         C           -0.260064460976     0.809870299013     0.000000000000    12.000000000000
         O           -2.183369100476    -0.339128777187     0.000000000000    15.994914619570
         C            2.402614581824    -0.242990935387     0.000000000000    12.000000000000
         H            2.369047587424    -2.305527733787     0.000000000000     1.007825032230
         H            3.385813616224     0.469006030313    -1.663653562700     1.007825032230
         H            3.385813616224     0.469006030313     1.663653562700     1.007825032230

  Charge       = 0
  Multiplicity = 2
  Basis Set: ANONYMOUSFC5CA023
    Blend: 6-31G_2DFP_
  Basis Set: (ANONYMOUSFC5CA023 AUX)
    Blend: DEF2-UNIVERSAL-JKFIT

    Orbital Energies [Eh]
    ---------------------

    Alpha Occupied:

       1Ap   -19.186795     2Ap   -10.271177     3Ap   -10.209945
       4Ap    -1.082004     5Ap    -0.762220     6Ap    -0.543901
       7Ap    -0.467114     8Ap    -0.457475     1App   -0.456563
       2App   -0.387578     9Ap    -0.385831    10Ap    -0.192510

    Alpha Virtual:

       3App   -0.018503    11Ap     0.091988    12Ap     0.137106
       4App    0.141329    13Ap     0.218924    14Ap     0.268599
      15Ap     0.428558     5App    0.431890    16Ap     0.443872
       6App    0.493775    17Ap     0.506034    18Ap     0.530521
       7App    0.562615    19Ap     0.577906    20Ap     0.608957
       8App    0.616102    21Ap     0.644445    22Ap     0.717427
       9App    0.767624    23Ap     0.785882    10App    0.832299
      11App    0.917031    24Ap     0.927265    25Ap     0.938173
      12App    1.023490    26Ap     1.085243    27Ap     1.108379
      13App    1.154624    28Ap     1.222242    29Ap     1.306816
      14App    1.316743    30Ap     1.328685    31Ap     1.404920
      15App    1.407175    32Ap     1.468187    33Ap     1.559637
      34Ap     1.629297    16App    1.654082    35Ap     1.719926
      17App    1.813695    36Ap     1.837438    37Ap     1.902703
      18App    2.064554    38Ap     2.163699    39Ap     2.498068
      19App    2.680112    40Ap     2.744717    41Ap     2.784009
      20App    2.843076    21App    2.894479    42Ap     2.971557
      43Ap     3.034803    22App    3.060497    23App    3.105283
      44Ap     3.116467    45Ap     3.184009    24App    3.315188
      46Ap     3.372633    25App    3.392971    26App    3.440820
      27App    3.467179    47Ap     3.487913    48Ap     3.571460
      49Ap     3.741292    50Ap     3.761883    51Ap     3.944273
      28App    3.985005    52Ap     4.058639    53Ap     4.113738
      29App    4.120115    54Ap     4.191777    30App    4.390132
      55Ap     4.437818    31App    4.450512    56Ap     4.532609
      57Ap     4.919746    58Ap     5.037230    32App    5.042429
      33App    5.199073    59Ap     5.208645    60Ap     5.476290
      34App    5.484436    61Ap     5.825813    35App    5.932228
      62Ap     6.105422    63Ap     6.770994    36App    6.773000
      37App    7.070485    64Ap     7.135479    65Ap     7.530867

    Beta Occupied:

       1Ap   -19.178702     2Ap   -10.261138     3Ap   -10.206557
       4Ap    -1.066053     5Ap    -0.750397     6Ap    -0.524238
       1App   -0.451995     7Ap    -0.447082     8Ap    -0.439148
       2App   -0.382410     9Ap    -0.347664

    Beta Virtual:

      10Ap    -0.053066     3App   -0.002223    11Ap     0.094703
      12Ap     0.142796     4App    0.144455    13Ap     0.229273
      14Ap     0.274274     5App    0.433846    15Ap     0.435442
      16Ap     0.466503     6App    0.500476    17Ap     0.527416
      18Ap     0.539167     7App    0.569039    19Ap     0.582055
       8App    0.623172    20Ap     0.627558    21Ap     0.650094
      22Ap     0.739309     9App    0.778780    23Ap     0.795831
      10App    0.833074    11App    0.921882    24Ap     0.946781
      25Ap     0.950444    12App    1.027694    26Ap     1.091477
      27Ap     1.110419    13App    1.160852    28Ap     1.231390
      29Ap     1.312457    14App    1.319559    30Ap     1.335493
      15App    1.412723    31Ap     1.415462    32Ap     1.480680
      33Ap     1.570855    34Ap     1.642404    16App    1.668577
      35Ap     1.726176    17App    1.816793    36Ap     1.851479
      37Ap     1.909437    18App    2.071291    38Ap     2.185181
      39Ap     2.510744    19App    2.694440    40Ap     2.759202
      41Ap     2.804938    20App    2.858111    21App    2.896110
      42Ap     2.981132    43Ap     3.051377    22App    3.068996
      23App    3.124081    44Ap     3.124902    45Ap     3.218603
      24App    3.358688    46Ap     3.383868    25App    3.399290
      26App    3.448600    27App    3.483463    47Ap     3.511174
      48Ap     3.584751    49Ap     3.766716    50Ap     3.771596
      51Ap     3.953092    28App    3.994303    52Ap     4.075079
      29App    4.122908    53Ap     4.127797    54Ap     4.203969
      30App    4.392378    55Ap     4.444083    31App    4.454710
      56Ap     4.543476    57Ap     4.923635    58Ap     5.054779
      32App    5.060531    33App    5.201253    59Ap     5.214393
      60Ap     5.488903    34App    5.498366    61Ap     5.839092
      35App    5.937817    62Ap     6.128706    63Ap     6.800409
      36App    6.802764    37App    7.074786    64Ap     7.164943
      65Ap     7.542549

    Final Occupation by Irrep:
             Ap   App
    DOCC [     9,    2 ]
    SOCC [     1,    0 ]

  @DF-UKS Final Energy:  -153.18843339888235

   => Energetics <=

    Nuclear Repulsion Energy =             62.8832818398461413
    One-Electron Energy =                -331.7634933965155142
    Two-Electron Energy =                 132.2741591142475386
    DFT Exchange-Correlation Energy =     -16.5823809564605114
    Empirical Dispersion Energy =           0.0000000000000000
    VV10 Nonlocal Energy =                  0.0000000000000000
    Total Energy =                       -153.1884333988823528

  UHF NO Occupations:
  HONO-2 :    8 Ap 1.9997850
  HONO-1 :    9 Ap 1.9992007
  HONO-0 :   10 Ap 1.0000000
  LUNO+0 :   11 Ap 0.0007993
  LUNO+1 :   12 Ap 0.0002150
  LUNO+2 :    3App 0.0001774
  LUNO+3 :   13 Ap 0.0000618

Computation Completed

Properties will be evaluated at   0.000000,   0.000000,   0.000000 [a0]

Properties computed using the SCF density matrix

  Nuclear Dipole Moment: [e a0]
     X:     4.5290      Y:    -0.6793      Z:     0.0000

  Electronic Dipole Moment: [e a0]
     X:    -3.6016      Y:     0.6308      Z:     0.0000

  Dipole Moment: [e a0]
     X:     0.9274      Y:    -0.0485      Z:     0.0000     Total:     0.9287

  Dipole Moment: [D]
     X:     2.3573      Y:    -0.1233      Z:     0.0000     Total:     2.3605

*** tstop() called on n058 at Tue Mar 15 10:37:09 2022
Module time:
	user time   =      50.63 seconds =       0.84 minutes
	system time =       0.50 seconds =       0.01 minutes
	total time  =         51 seconds =       0.85 minutes
Total time:
	user time   =      50.63 seconds =       0.84 minutes
	system time =       0.50 seconds =       0.01 minutes
	total time  =         51 seconds =       0.85 minutes
Grab this energy -153.18843339888235
    Psi4 stopped on: Tuesday, 15 March 2022 10:37AM
    Psi4 wall time for execution: 0:00:51.18

*** Psi4 exiting successfully. Buy a developer a beer!
