                               Psi4 1.4a2.dev629

  ==> Input File <==

--------------------------------------------------------------------------
import os
memory 14 GB

molecule {
 C   -0.2597599850    0.8052806089   -0.0000000000
 O   -2.1912570706   -0.3330988592   -0.0000000000
 C    2.4109455377   -0.2414751131    0.0000000000
 H    2.3824575497   -2.3144012339   -0.0000000000
 H    3.3911259753    0.4690301225   -1.6598246610
 H    3.3911259753    0.4690301225    1.6598246610
units bohr
0 2
}

basis {

assign 6-31g_2dfp_

[ 6-31g_2dfp_ ]

spherical

!----------------------------------------------------------------------
! Basis Set Exchange
! Version v0.8.13
! https://www.basissetexchange.org
!----------------------------------------------------------------------
!   Basis set: 6-31G(2df,p)
! Description: 6-31G(2df,p)
!        Role: orbital
!     Version: 0  (Data from the original Basis Set Exchange)
!----------------------------------------------------------------------

****
H     0
S    3   1.00
     18.7311370              0.03349460
      2.8253937              0.23472695
      0.6401217              0.81375733
S    1   1.00
      0.1612778              1.00000000
P    1   1.00
      1.5000000              1.0000000
P    1   1.00
      0.3750000              1.0000000
****
B     0
S    6   1.00
   2068.8823000              0.0018663
    310.6495700              0.0142515
     70.6830330              0.0695516
     19.8610800              0.2325729
      6.2993048              0.4670787
      2.1270270              0.3634314
SP   3   1.00
      4.7279710             -0.1303938              0.0745976
      1.1903377             -0.1307889              0.3078467
      0.3594117              1.1309444              0.7434568
SP   1   1.00
      0.1267512              1.0000000              1.0000000
D    1   1.00
      0.8020000              1.0000000
D    1   1.00
      0.2005000              1.0000000
F    1   1.00
      0.5000000              1.0000000
****
C     0
S    6   1.00
   3047.5249000              0.0018347
    457.3695100              0.0140373
    103.9486900              0.0688426
     29.2101550              0.2321844
      9.2866630              0.4679413
      3.1639270              0.3623120
SP   3   1.00
      7.8682724             -0.1193324              0.0689991
      1.8812885             -0.1608542              0.3164240
      0.5442493              1.1434564              0.7443083
SP   1   1.00
      0.1687144              1.0000000              1.0000000
D    1   1.00
      1.2520000              1.0000000
D    1   1.00
      0.3130000              1.0000000
F    1   1.00
      0.8000000              1.0000000
****
N     0
S    6   1.00
   4173.5110000              0.0018348
    627.4579000              0.0139950
    142.9021000              0.0685870
     40.2343300              0.2322410
     12.8202100              0.4690700
      4.3904370              0.3604550
SP   3   1.00
     11.6263580             -0.1149610              0.0675800
      2.7162800             -0.1691180              0.3239070
      0.7722180              1.1458520              0.7408950
SP   1   1.00
      0.2120313              1.0000000              1.0000000
D    1   1.00
      1.8260000              1.0000000
D    1   1.00
      0.4565000              1.0000000
F    1   1.00
      1.0000000              1.0000000
****
O     0
S    6   1.00
   5484.6717000              0.0018311
    825.2349500              0.0139501
    188.0469600              0.0684451
     52.9645000              0.2327143
     16.8975700              0.4701930
      5.7996353              0.3585209
SP   3   1.00
     15.5396160             -0.1107775              0.0708743
      3.5999336             -0.1480263              0.3397528
      1.0137618              1.1307670              0.7271586
SP   1   1.00
      0.2700058              1.0000000              1.0000000
D    1   1.00
      2.5840000              1.0000000
D    1   1.00
      0.6460000              1.0000000
F    1   1.00
      1.4000000              1.0000000
****
F     0
S    6   1.00
   7001.7130900              0.0018196169
   1051.3660900              0.0139160796
    239.2856900              0.0684053245
     67.3974453              0.233185760
     21.5199573              0.471267439
      7.40310130             0.356618546
SP   3   1.00
     20.8479528             -0.108506975            0.0716287243
      4.80830834            -0.146451658            0.3459121030
      1.34406986             1.128688580            0.7224699570
SP   1   1.00
      0.358151393            1.0000000              1.0000000
D    1   1.00
      3.5000000              1.0000000
D    1   1.00
      0.8750000              1.0000000
F    1   1.00
      1.8500000              1.0000000
****
Al     0
S    6   1.00
  13983.1000000              0.00194267
   2098.7500000              0.0148599
    477.7050000              0.0728494
    134.3600000              0.2468300
     42.8709000              0.4872580
     14.5189000              0.3234960
SP   6   1.00
    239.6680000             -0.00292619             0.00460285
     57.4419000             -0.0374080              0.0331990
     18.2859000             -0.1144870              0.1362820
      6.5991400              0.1156350              0.3304760
      2.4904900              0.6125950              0.4491460
      0.9445400              0.3937990              0.2657040
SP   3   1.00
      1.2779000             -0.2276060             -0.0175130
      0.3975900              0.00144583             0.2445330
      0.1600950              1.0927900              0.8049340
SP   1   1.00
      0.0556577              1.0000000              1.0000000
D    1   1.00
      0.6500000              1.0000000
D    1   1.00
      0.1625000              1.0000000
F    1   1.00
      0.2500000              1.0000000
****
Si     0
S    6   1.00
  16115.9000000              0.00195948
   2425.5800000              0.01492880
    553.8670000              0.07284780
    156.3400000              0.24613000
     50.0683000              0.48591400
     17.0178000              0.32500200
SP   6   1.00
    292.7180000             -0.00278094             0.00443826
     69.8731000             -0.03571460             0.03266790
     22.3363000             -0.11498500             0.13472100
      8.1503900              0.09356340             0.32867800
      3.1345800              0.60301700             0.44964000
      1.2254300              0.41895900             0.26137200
SP   3   1.00
      1.7273800             -0.24463000            -0.01779510
      0.5729220              0.00431572             0.25353900
      0.2221920              1.09818000             0.80066900
SP   1   1.00
      0.0778369              1.00000000             1.00000000
D    1   1.00
      0.9000000              1.0000000
D    1   1.00
      0.2250000              1.0000000
F    1   1.00
      0.3200000              1.0000000
****
P     0
S    6   1.00
  19413.3000000              0.0018516
   2909.4200000              0.0142062
    661.3640000              0.0699995
    185.7590000              0.2400790
     59.1943000              0.4847620
     20.0310000              0.3352000
SP   6   1.00
    339.4780000             -0.00278217             0.00456462
     81.0101000             -0.0360499              0.03369360
     25.8780000             -0.1166310              0.13975500
      9.4522100              0.0968328              0.33936200
      3.6656600              0.6144180              0.45092100
      1.4674600              0.4037980              0.23858600
SP   3   1.00
      2.1562300             -0.2529230             -0.01776530
      0.7489970              0.0328517              0.27405800
      0.2831450              1.0812500              0.78542100
SP   1   1.00
      0.0998317              1.0000000              1.00000000
D    1   1.00
      1.1000000              1.0000000
D    1   1.00
      0.2750000              1.0000000
F    1   1.00
      0.4500000              1.0000000
****
S     0
S    6   1.00
  21917.1000000              0.0018690
   3301.4900000              0.0142300
    754.1460000              0.0696960
    212.7110000              0.2384870
     67.9896000              0.4833070
     23.0515000              0.3380740
SP   6   1.00
    423.7350000             -0.0023767              0.0040610
    100.7100000             -0.0316930              0.0306810
     32.1599000             -0.1133170              0.1304520
     11.8079000              0.0560900              0.3272050
      4.6311000              0.5922550              0.4528510
      1.8702500              0.4550060              0.2560420
SP   3   1.00
      2.6158400             -0.2503740             -0.0145110
      0.9221670              0.0669570              0.3102630
      0.3412870              1.0545100              0.7544830
SP   1   1.00
      0.1171670              1.0000000              1.0000000
D    1   1.00
      1.3000000              1.0000000
D    1   1.00
      0.3250000              1.0000000
F    1   1.00
      0.5500000              1.0000000
****
Cl     0
S    6   1.00
  25180.1000000              0.0018330
   3780.3500000              0.0140340
    860.4740000              0.0690970
    242.1450000              0.2374520
     77.3349000              0.4830340
     26.2470000              0.3398560
SP   6   1.00
    491.7650000             -0.0022974              0.0039894
    116.9840000             -0.0307140              0.0303180
     37.4153000             -0.1125280              0.1298800
     13.7834000              0.0450160              0.3279510
      5.4521500              0.5893530              0.4535270
      2.2258800              0.4652060              0.2521540
SP   3   1.00
      3.1864900             -0.2518300             -0.0142990
      1.1442700              0.0615890              0.3235720
      0.4203770              1.0601800              0.7435070
SP   1   1.00
      0.1426570              1.0000000              1.0000000
D    1   1.00
      1.5000000              1.0000000
D    1   1.00
      0.3750000              1.0000000
F    1   1.00
      0.7000000              1.0000000
****
}

set {
reference uhf
freeze_core true
e_convergence 10
d_convergence 10
dft_spherical_points 1202
dft_radial_points 99
}

e = energy('b3lyp')

print_out('Grab this energy {0}'.format(e))
--------------------------------------------------------------------------

    Molecular point group: cs

    Geometry (in Bohr), charge = 0, multiplicity = 2:

       Center              X                  Y                   Z               Mass
    ------------   -----------------  -----------------  -----------------  -----------------
         C           -0.259799050296     0.804102804811     0.000000000000    12.000000000000
         O           -2.191296135896    -0.334276663289     0.000000000000    15.994914619570
         C            2.410906472404    -0.242652917189     0.000000000000    12.000000000000
         H            2.382418484404    -2.315579037989     0.000000000000     1.007825032230
         H            3.391086910004     0.467852318411    -1.659824661000     1.007825032230
         H            3.391086910004     0.467852318411     1.659824661000     1.007825032230

  Charge       = 0
  Multiplicity = 2
  Basis Set: ANONYMOUS4028BFBD
    Blend: 6-31G_2DFP_
  Basis Set: (ANONYMOUS4028BFBD AUX)
    Blend: DEF2-UNIVERSAL-JKFIT

    Orbital Energies [Eh]
    ---------------------

    Alpha Occupied:

       1Ap   -19.186951     2Ap   -10.271617     3Ap   -10.210342
       4Ap    -1.081435     5Ap    -0.761970     6Ap    -0.543970
       7Ap    -0.466609     8Ap    -0.456961     1App   -0.456658
       2App   -0.387812     9Ap    -0.386061    10Ap    -0.191972

    Alpha Virtual:

       3App   -0.018840    11Ap     0.092069    12Ap     0.135887
       4App    0.142044    13Ap     0.217875    14Ap     0.268179
      15Ap     0.428445     5App    0.431210    16Ap     0.443947
       6App    0.493840    17Ap     0.506077    18Ap     0.529945
       7App    0.563415    19Ap     0.577184    20Ap     0.608529
       8App    0.616631    21Ap     0.643688    22Ap     0.717681
       9App    0.766011    23Ap     0.785291    10App    0.832566
      11App    0.917241    24Ap     0.927381    25Ap     0.935199
      12App    1.023284    26Ap     1.084100    27Ap     1.108404
      13App    1.153957    28Ap     1.222135    29Ap     1.306194
      14App    1.317223    30Ap     1.326862    31Ap     1.403361
      15App    1.407561    32Ap     1.467871    33Ap     1.559232
      34Ap     1.630552    16App    1.653979    35Ap     1.720502
      17App    1.815554    36Ap     1.833559    37Ap     1.900397
      18App    2.065926    38Ap     2.166602    39Ap     2.495811
      19App    2.680816    40Ap     2.744005    41Ap     2.783192
      20App    2.843913    21App    2.894782    42Ap     2.972740
      43Ap     3.029897    22App    3.057577    23App    3.104663
      44Ap     3.115548    45Ap     3.182995    24App    3.314043
      46Ap     3.370208    25App    3.392545    26App    3.439187
      27App    3.466381    47Ap     3.486816    48Ap     3.569622
      49Ap     3.739940    50Ap     3.760161    51Ap     3.943664
      28App    3.981641    52Ap     4.056466    53Ap     4.109661
      29App    4.119417    54Ap     4.189678    30App    4.393476
      55Ap     4.432676    31App    4.447962    56Ap     4.530528
      57Ap     4.919503    58Ap     5.037037    32App    5.042294
      59Ap     5.201812    33App    5.204164    60Ap     5.473873
      34App    5.483364    61Ap     5.826548    35App    5.930728
      62Ap     6.104267    63Ap     6.770644    36App    6.772864
      37App    7.070884    64Ap     7.134835    65Ap     7.530036

    Beta Occupied:

       1Ap   -19.178895     2Ap   -10.261559     3Ap   -10.206965
       4Ap    -1.065526     5Ap    -0.750198     6Ap    -0.524322
       1App   -0.452135     7Ap    -0.446037     8Ap    -0.439178
       2App   -0.382626     9Ap    -0.347975

    Beta Virtual:

      10Ap    -0.052595     3App   -0.002561    11Ap     0.094864
      12Ap     0.141576     4App    0.145143    13Ap     0.228350
      14Ap     0.273847     5App    0.433211    15Ap     0.435749
      16Ap     0.465869     6App    0.500552    17Ap     0.527426
      18Ap     0.538974     7App    0.569884    19Ap     0.581344
       8App    0.623730    20Ap     0.627041    21Ap     0.649385
      22Ap     0.739712     9App    0.777167    23Ap     0.795246
      10App    0.833364    11App    0.922076    24Ap     0.943302
      25Ap     0.950974    12App    1.027468    26Ap     1.090315
      27Ap     1.110456    13App    1.160150    28Ap     1.231376
      29Ap     1.311747    14App    1.320105    30Ap     1.333666
      15App    1.413014    31Ap     1.413720    32Ap     1.480105
      33Ap     1.570589    34Ap     1.643737    16App    1.668340
      35Ap     1.726730    17App    1.818742    36Ap     1.847728
      37Ap     1.907017    18App    2.072623    38Ap     2.187997
      39Ap     2.508484    19App    2.695065    40Ap     2.758393
      41Ap     2.804266    20App    2.859413    21App    2.896455
      42Ap     2.982214    43Ap     3.046834    22App    3.066025
      23App    3.123294    44Ap     3.124018    45Ap     3.217700
      24App    3.357636    46Ap     3.381686    25App    3.398872
      26App    3.447766    27App    3.481709    47Ap     3.509963
      48Ap     3.582620    49Ap     3.765760    50Ap     3.769552
      51Ap     3.952375    28App    3.990958    52Ap     4.072868
      29App    4.122330    53Ap     4.125026    54Ap     4.200691
      30App    4.395647    55Ap     4.438898    31App    4.452196
      56Ap     4.541366    57Ap     4.923459    58Ap     5.054461
      32App    5.060275    33App    5.206381    59Ap     5.207514
      60Ap     5.486499    34App    5.497200    61Ap     5.839774
      35App    5.936310    62Ap     6.127449    63Ap     6.799887
      36App    6.802448    37App    7.075177    64Ap     7.164174
      65Ap     7.541689

    Final Occupation by Irrep:
             Ap   App
    DOCC [     9,    2 ]
    SOCC [     1,    0 ]

  @DF-UKS Final Energy:  -153.18841137376452

   => Energetics <=

    Nuclear Repulsion Energy =             62.7888830363170527
    One-Electron Energy =                -331.5765304389541370
    Two-Electron Energy =                 132.1799115416937411
    DFT Exchange-Correlation Energy =     -16.5806755128211627
    Empirical Dispersion Energy =           0.0000000000000000
    VV10 Nonlocal Energy =                  0.0000000000000000
    Total Energy =                       -153.1884113737645237

  UHF NO Occupations:
  HONO-2 :    8 Ap 1.9997836
  HONO-1 :    9 Ap 1.9992028
  HONO-0 :   10 Ap 1.0000000
  LUNO+0 :   11 Ap 0.0007972
  LUNO+1 :   12 Ap 0.0002164
  LUNO+2 :    3App 0.0001801
  LUNO+3 :   13 Ap 0.0000614

Computation Completed

Properties will be evaluated at   0.000000,   0.000000,   0.000000 [a0]

Properties computed using the SCF density matrix

  Nuclear Dipole Moment: [e a0]
     X:     4.5409      Y:    -0.6854      Z:     0.0000

  Electronic Dipole Moment: [e a0]
     X:    -3.6097      Y:     0.6368      Z:     0.0000

  Dipole Moment: [e a0]
     X:     0.9311      Y:    -0.0486      Z:     0.0000     Total:     0.9324

  Dipole Moment: [D]
     X:     2.3667      Y:    -0.1236      Z:     0.0000     Total:     2.3699

*** tstop() called on n036 at Tue Mar 15 10:29:36 2022
Module time:
	user time   =      62.53 seconds =       1.04 minutes
	system time =       0.37 seconds =       0.01 minutes
	total time  =         63 seconds =       1.05 minutes
Total time:
	user time   =      62.53 seconds =       1.04 minutes
	system time =       0.37 seconds =       0.01 minutes
	total time  =         63 seconds =       1.05 minutes
Grab this energy -153.18841137376452
    Psi4 stopped on: Tuesday, 15 March 2022 10:29AM
    Psi4 wall time for execution: 0:01:02.95

*** Psi4 exiting successfully. Buy a developer a beer!
