                               Psi4 1.4a2.dev629

  ==> Input File <==

--------------------------------------------------------------------------
import os
memory 14 GB

molecule {
 C   -0.2630130249    0.8098989256   -0.0000000101
 O   -2.1902375604   -0.3383094989    0.0000000130
 C    2.4081399740   -0.2411965855    0.0000000355
 H    2.3913659802   -2.3046787553    0.0000000192
 H    3.3901711138    0.4722101804   -1.6644924212
 H    3.3901714674    0.4722103538    1.6644921835
units bohr
0 2
}

basis {

assign 6-31g_2dfp_

[ 6-31g_2dfp_ ]

spherical

!----------------------------------------------------------------------
! Basis Set Exchange
! Version v0.8.13
! https://www.basissetexchange.org
!----------------------------------------------------------------------
!   Basis set: 6-31G(2df,p)
! Description: 6-31G(2df,p)
!        Role: orbital
!     Version: 0  (Data from the original Basis Set Exchange)
!----------------------------------------------------------------------

****
H     0
S    3   1.00
     18.7311370              0.03349460
      2.8253937              0.23472695
      0.6401217              0.81375733
S    1   1.00
      0.1612778              1.00000000
P    1   1.00
      1.5000000              1.0000000
P    1   1.00
      0.3750000              1.0000000
****
B     0
S    6   1.00
   2068.8823000              0.0018663
    310.6495700              0.0142515
     70.6830330              0.0695516
     19.8610800              0.2325729
      6.2993048              0.4670787
      2.1270270              0.3634314
SP   3   1.00
      4.7279710             -0.1303938              0.0745976
      1.1903377             -0.1307889              0.3078467
      0.3594117              1.1309444              0.7434568
SP   1   1.00
      0.1267512              1.0000000              1.0000000
D    1   1.00
      0.8020000              1.0000000
D    1   1.00
      0.2005000              1.0000000
F    1   1.00
      0.5000000              1.0000000
****
C     0
S    6   1.00
   3047.5249000              0.0018347
    457.3695100              0.0140373
    103.9486900              0.0688426
     29.2101550              0.2321844
      9.2866630              0.4679413
      3.1639270              0.3623120
SP   3   1.00
      7.8682724             -0.1193324              0.0689991
      1.8812885             -0.1608542              0.3164240
      0.5442493              1.1434564              0.7443083
SP   1   1.00
      0.1687144              1.0000000              1.0000000
D    1   1.00
      1.2520000              1.0000000
D    1   1.00
      0.3130000              1.0000000
F    1   1.00
      0.8000000              1.0000000
****
N     0
S    6   1.00
   4173.5110000              0.0018348
    627.4579000              0.0139950
    142.9021000              0.0685870
     40.2343300              0.2322410
     12.8202100              0.4690700
      4.3904370              0.3604550
SP   3   1.00
     11.6263580             -0.1149610              0.0675800
      2.7162800             -0.1691180              0.3239070
      0.7722180              1.1458520              0.7408950
SP   1   1.00
      0.2120313              1.0000000              1.0000000
D    1   1.00
      1.8260000              1.0000000
D    1   1.00
      0.4565000              1.0000000
F    1   1.00
      1.0000000              1.0000000
****
O     0
S    6   1.00
   5484.6717000              0.0018311
    825.2349500              0.0139501
    188.0469600              0.0684451
     52.9645000              0.2327143
     16.8975700              0.4701930
      5.7996353              0.3585209
SP   3   1.00
     15.5396160             -0.1107775              0.0708743
      3.5999336             -0.1480263              0.3397528
      1.0137618              1.1307670              0.7271586
SP   1   1.00
      0.2700058              1.0000000              1.0000000
D    1   1.00
      2.5840000              1.0000000
D    1   1.00
      0.6460000              1.0000000
F    1   1.00
      1.4000000              1.0000000
****
F     0
S    6   1.00
   7001.7130900              0.0018196169
   1051.3660900              0.0139160796
    239.2856900              0.0684053245
     67.3974453              0.233185760
     21.5199573              0.471267439
      7.40310130             0.356618546
SP   3   1.00
     20.8479528             -0.108506975            0.0716287243
      4.80830834            -0.146451658            0.3459121030
      1.34406986             1.128688580            0.7224699570
SP   1   1.00
      0.358151393            1.0000000              1.0000000
D    1   1.00
      3.5000000              1.0000000
D    1   1.00
      0.8750000              1.0000000
F    1   1.00
      1.8500000              1.0000000
****
Al     0
S    6   1.00
  13983.1000000              0.00194267
   2098.7500000              0.0148599
    477.7050000              0.0728494
    134.3600000              0.2468300
     42.8709000              0.4872580
     14.5189000              0.3234960
SP   6   1.00
    239.6680000             -0.00292619             0.00460285
     57.4419000             -0.0374080              0.0331990
     18.2859000             -0.1144870              0.1362820
      6.5991400              0.1156350              0.3304760
      2.4904900              0.6125950              0.4491460
      0.9445400              0.3937990              0.2657040
SP   3   1.00
      1.2779000             -0.2276060             -0.0175130
      0.3975900              0.00144583             0.2445330
      0.1600950              1.0927900              0.8049340
SP   1   1.00
      0.0556577              1.0000000              1.0000000
D    1   1.00
      0.6500000              1.0000000
D    1   1.00
      0.1625000              1.0000000
F    1   1.00
      0.2500000              1.0000000
****
Si     0
S    6   1.00
  16115.9000000              0.00195948
   2425.5800000              0.01492880
    553.8670000              0.07284780
    156.3400000              0.24613000
     50.0683000              0.48591400
     17.0178000              0.32500200
SP   6   1.00
    292.7180000             -0.00278094             0.00443826
     69.8731000             -0.03571460             0.03266790
     22.3363000             -0.11498500             0.13472100
      8.1503900              0.09356340             0.32867800
      3.1345800              0.60301700             0.44964000
      1.2254300              0.41895900             0.26137200
SP   3   1.00
      1.7273800             -0.24463000            -0.01779510
      0.5729220              0.00431572             0.25353900
      0.2221920              1.09818000             0.80066900
SP   1   1.00
      0.0778369              1.00000000             1.00000000
D    1   1.00
      0.9000000              1.0000000
D    1   1.00
      0.2250000              1.0000000
F    1   1.00
      0.3200000              1.0000000
****
P     0
S    6   1.00
  19413.3000000              0.0018516
   2909.4200000              0.0142062
    661.3640000              0.0699995
    185.7590000              0.2400790
     59.1943000              0.4847620
     20.0310000              0.3352000
SP   6   1.00
    339.4780000             -0.00278217             0.00456462
     81.0101000             -0.0360499              0.03369360
     25.8780000             -0.1166310              0.13975500
      9.4522100              0.0968328              0.33936200
      3.6656600              0.6144180              0.45092100
      1.4674600              0.4037980              0.23858600
SP   3   1.00
      2.1562300             -0.2529230             -0.01776530
      0.7489970              0.0328517              0.27405800
      0.2831450              1.0812500              0.78542100
SP   1   1.00
      0.0998317              1.0000000              1.00000000
D    1   1.00
      1.1000000              1.0000000
D    1   1.00
      0.2750000              1.0000000
F    1   1.00
      0.4500000              1.0000000
****
S     0
S    6   1.00
  21917.1000000              0.0018690
   3301.4900000              0.0142300
    754.1460000              0.0696960
    212.7110000              0.2384870
     67.9896000              0.4833070
     23.0515000              0.3380740
SP   6   1.00
    423.7350000             -0.0023767              0.0040610
    100.7100000             -0.0316930              0.0306810
     32.1599000             -0.1133170              0.1304520
     11.8079000              0.0560900              0.3272050
      4.6311000              0.5922550              0.4528510
      1.8702500              0.4550060              0.2560420
SP   3   1.00
      2.6158400             -0.2503740             -0.0145110
      0.9221670              0.0669570              0.3102630
      0.3412870              1.0545100              0.7544830
SP   1   1.00
      0.1171670              1.0000000              1.0000000
D    1   1.00
      1.3000000              1.0000000
D    1   1.00
      0.3250000              1.0000000
F    1   1.00
      0.5500000              1.0000000
****
Cl     0
S    6   1.00
  25180.1000000              0.0018330
   3780.3500000              0.0140340
    860.4740000              0.0690970
    242.1450000              0.2374520
     77.3349000              0.4830340
     26.2470000              0.3398560
SP   6   1.00
    491.7650000             -0.0022974              0.0039894
    116.9840000             -0.0307140              0.0303180
     37.4153000             -0.1125280              0.1298800
     13.7834000              0.0450160              0.3279510
      5.4521500              0.5893530              0.4535270
      2.2258800              0.4652060              0.2521540
SP   3   1.00
      3.1864900             -0.2518300             -0.0142990
      1.1442700              0.0615890              0.3235720
      0.4203770              1.0601800              0.7435070
SP   1   1.00
      0.1426570              1.0000000              1.0000000
D    1   1.00
      1.5000000              1.0000000
D    1   1.00
      0.3750000              1.0000000
F    1   1.00
      0.7000000              1.0000000
****
}

set {
reference uhf
freeze_core true
e_convergence 10
d_convergence 10
dft_spherical_points 1202
dft_radial_points 99
}

e = energy('b3lyp')

print_out('Grab this energy {0}'.format(e))
--------------------------------------------------------------------------

    Molecular point group: c1

    Geometry (in Bohr), charge = 0, multiplicity = 2:

       Center              X                  Y                   Z               Mass
    ------------   -----------------  -----------------  -----------------  -----------------
         C           -0.261905082232     0.808915758957    -0.000000016900    12.000000000000
         O           -2.189129617732    -0.339292665543     0.000000006200    15.994914619570
         C            2.409247916668    -0.242179752143     0.000000028700    12.000000000000
         H            2.392473922868    -2.305661921943     0.000000012400     1.007825032230
         H            3.391279056468     0.471227013757    -1.664492428000     1.007825032230
         H            3.391279410068     0.471227187157     1.664492176700     1.007825032230

  Charge       = 0
  Multiplicity = 2
  Basis Set: ANONYMOUS9D1C215B
    Blend: 6-31G_2DFP_
  Basis Set: (ANONYMOUS9D1C215B AUX)
    Blend: DEF2-UNIVERSAL-JKFIT

    Orbital Energies [Eh]
    ---------------------

    Alpha Occupied:

       1A    -19.187114     2A    -10.271916     3A    -10.210393
       4A     -1.081255     5A     -0.761543     6A     -0.544203
       7A     -0.466185     8A     -0.457460     9A     -0.456093
      10A     -0.387521    11A     -0.385801    12A     -0.192902

    Alpha Virtual:

      13A     -0.019127    14A      0.091857    15A      0.136943
      16A      0.141304    17A      0.217540    18A      0.268246
      19A      0.428330    20A      0.431995    21A      0.443497
      22A      0.493381    23A      0.506209    24A      0.530117
      25A      0.562822    26A      0.577414    27A      0.607610
      28A      0.615396    29A      0.644046    30A      0.717699
      31A      0.766498    32A      0.785248    33A      0.832762
      34A      0.917112    35A      0.926884    36A      0.935745
      37A      1.022344    38A      1.086012    39A      1.108467
      40A      1.152614    41A      1.220583    42A      1.306001
      43A      1.317722    44A      1.327526    45A      1.403025
      46A      1.405773    47A      1.466785    48A      1.559457
      49A      1.628816    50A      1.653388    51A      1.719368
      52A      1.813543    53A      1.833978    54A      1.902677
      55A      2.063655    56A      2.163404    57A      2.495184
      58A      2.679681    59A      2.743446    60A      2.783258
      61A      2.842537    62A      2.895009    63A      2.972148
      64A      3.032856    65A      3.058643    66A      3.105676
      67A      3.113905    68A      3.183623    69A      3.314475
      70A      3.369243    71A      3.394619    72A      3.438616
      73A      3.464806    74A      3.486484    75A      3.570064
      76A      3.737740    77A      3.760237    78A      3.943266
      79A      3.979956    80A      4.053030    81A      4.107781
      82A      4.122175    83A      4.189637    84A      4.387799
      85A      4.430653    86A      4.446558    87A      4.533590
      88A      4.916545    89A      5.036910    90A      5.041991
      91A      5.198062    92A      5.208508    93A      5.472665
      94A      5.481005    95A      5.825775    96A      5.928991
      97A      6.101991    98A      6.770340    99A      6.772450
     100A      7.070379   101A      7.135049   102A      7.529239

    Beta Occupied:

       1A    -19.179023     2A    -10.261872     3A    -10.206994
       4A     -1.065290     5A     -0.749744     6A     -0.524453
       7A     -0.451542     8A     -0.446558     9A     -0.438718
      10A     -0.382336    11A     -0.347667

    Beta Virtual:

      12A     -0.053491    13A     -0.002835    14A      0.094553
      15A      0.142649    16A      0.144422    17A      0.228038
      18A      0.273939    19A      0.433958    20A      0.435779
      21A      0.465363    22A      0.500066    23A      0.527591
      24A      0.538909    25A      0.569257    26A      0.581589
      27A      0.622527    28A      0.626315    29A      0.649639
      30A      0.739527    31A      0.777609    32A      0.795244
      33A      0.833525    34A      0.921949    35A      0.943644
      36A      0.950765    37A      1.026529    38A      1.092042
      39A      1.110596    40A      1.158872    41A      1.229791
      42A      1.311633    43A      1.320612    44A      1.334321
      45A      1.411278    46A      1.413451    47A      1.479183
      48A      1.570742    49A      1.641951    50A      1.667807
      51A      1.725565    52A      1.816650    53A      1.848102
      54A      1.909365    55A      2.070373    56A      2.184817
      57A      2.507876    58A      2.693948    59A      2.757861
      60A      2.804367    61A      2.857759    62A      2.896664
      63A      2.981763    64A      3.049397    65A      3.067148
      66A      3.122326    67A      3.124379    68A      3.218254
      69A      3.358185    70A      3.380631    71A      3.400761
      72A      3.447001    73A      3.480533    74A      3.509499
      75A      3.583420    76A      3.763267    77A      3.769858
      78A      3.951979    79A      3.989267    80A      4.069568
      81A      4.123034    82A      4.124984    83A      4.200773
      84A      4.389988    85A      4.436846    86A      4.450821
      87A      4.544480    88A      4.920406    89A      5.054481
      90A      5.060073    91A      5.200239    92A      5.214208
      93A      5.485329    94A      5.494918    95A      5.839028
      96A      5.934582    97A      6.125240    98A      6.799737
      99A      6.802186   100A      7.074689   101A      7.164508
     102A      7.540931

    Final Occupation by Irrep:
              A
    DOCC [    11 ]
    SOCC [     1 ]

  @DF-UKS Final Energy:  -153.18843023626545

   => Energetics <=

    Nuclear Repulsion Energy =             62.7681880858055052
    One-Electron Energy =                -331.5370939888101702
    Two-Electron Energy =                 132.1600918840023837
    DFT Exchange-Correlation Energy =     -16.5796162172631583
    Empirical Dispersion Energy =           0.0000000000000000
    VV10 Nonlocal Energy =                  0.0000000000000000
    Total Energy =                       -153.1884302362654466

  UHF NO Occupations:
  HONO-2 :   10  A 1.9997821
  HONO-1 :   11  A 1.9991988
  HONO-0 :   12  A 1.0000000
  LUNO+0 :   13  A 0.0008012
  LUNO+1 :   14  A 0.0002179
  LUNO+2 :   15  A 0.0001787
  LUNO+3 :   16  A 0.0000619

Computation Completed

Properties will be evaluated at   0.000000,   0.000000,   0.000000 [a0]

Properties computed using the SCF density matrix

  Nuclear Dipole Moment: [e a0]
     X:     4.5461      Y:    -0.6771      Z:    -0.0000

  Electronic Dipole Moment: [e a0]
     X:    -3.6166      Y:     0.6286      Z:     0.0000

  Dipole Moment: [e a0]
     X:     0.9295      Y:    -0.0486      Z:    -0.0000     Total:     0.9307

  Dipole Moment: [D]
     X:     2.3625      Y:    -0.1235      Z:    -0.0000     Total:     2.3657

*** tstop() called on n036 at Thu Nov  4 14:47:06 2021
Module time:
	user time   =      62.45 seconds =       1.04 minutes
	system time =       0.41 seconds =       0.01 minutes
	total time  =         63 seconds =       1.05 minutes
Total time:
	user time   =      62.45 seconds =       1.04 minutes
	system time =       0.41 seconds =       0.01 minutes
	total time  =         63 seconds =       1.05 minutes
Grab this energy -153.18843023626545
    Psi4 stopped on: Thursday, 04 November 2021 02:47PM
    Psi4 wall time for execution: 0:01:02.89

*** Psi4 exiting successfully. Buy a developer a beer!
