                               Psi4 1.4a2.dev629

  ==> Input File <==

--------------------------------------------------------------------------
import os
memory 14 GB

molecule {
 C   -0.2626336185    0.8010817646    0.0000000000
 O   -2.1881049513   -0.3305794502    0.0000000000
 C    2.4087066786   -0.2476841734    0.0000000000
 H    2.3831384385   -2.3033539990    0.0000000000
 H    3.3917657174    0.4674507529   -1.6685930355
 H    3.3917657174    0.4674507529    1.6685930355
units bohr
0 2
}

basis {

assign 6-31g_2dfp_

[ 6-31g_2dfp_ ]

spherical

!----------------------------------------------------------------------
! Basis Set Exchange
! Version v0.8.13
! https://www.basissetexchange.org
!----------------------------------------------------------------------
!   Basis set: 6-31G(2df,p)
! Description: 6-31G(2df,p)
!        Role: orbital
!     Version: 0  (Data from the original Basis Set Exchange)
!----------------------------------------------------------------------

****
H     0
S    3   1.00
     18.7311370              0.03349460
      2.8253937              0.23472695
      0.6401217              0.81375733
S    1   1.00
      0.1612778              1.00000000
P    1   1.00
      1.5000000              1.0000000
P    1   1.00
      0.3750000              1.0000000
****
B     0
S    6   1.00
   2068.8823000              0.0018663
    310.6495700              0.0142515
     70.6830330              0.0695516
     19.8610800              0.2325729
      6.2993048              0.4670787
      2.1270270              0.3634314
SP   3   1.00
      4.7279710             -0.1303938              0.0745976
      1.1903377             -0.1307889              0.3078467
      0.3594117              1.1309444              0.7434568
SP   1   1.00
      0.1267512              1.0000000              1.0000000
D    1   1.00
      0.8020000              1.0000000
D    1   1.00
      0.2005000              1.0000000
F    1   1.00
      0.5000000              1.0000000
****
C     0
S    6   1.00
   3047.5249000              0.0018347
    457.3695100              0.0140373
    103.9486900              0.0688426
     29.2101550              0.2321844
      9.2866630              0.4679413
      3.1639270              0.3623120
SP   3   1.00
      7.8682724             -0.1193324              0.0689991
      1.8812885             -0.1608542              0.3164240
      0.5442493              1.1434564              0.7443083
SP   1   1.00
      0.1687144              1.0000000              1.0000000
D    1   1.00
      1.2520000              1.0000000
D    1   1.00
      0.3130000              1.0000000
F    1   1.00
      0.8000000              1.0000000
****
N     0
S    6   1.00
   4173.5110000              0.0018348
    627.4579000              0.0139950
    142.9021000              0.0685870
     40.2343300              0.2322410
     12.8202100              0.4690700
      4.3904370              0.3604550
SP   3   1.00
     11.6263580             -0.1149610              0.0675800
      2.7162800             -0.1691180              0.3239070
      0.7722180              1.1458520              0.7408950
SP   1   1.00
      0.2120313              1.0000000              1.0000000
D    1   1.00
      1.8260000              1.0000000
D    1   1.00
      0.4565000              1.0000000
F    1   1.00
      1.0000000              1.0000000
****
O     0
S    6   1.00
   5484.6717000              0.0018311
    825.2349500              0.0139501
    188.0469600              0.0684451
     52.9645000              0.2327143
     16.8975700              0.4701930
      5.7996353              0.3585209
SP   3   1.00
     15.5396160             -0.1107775              0.0708743
      3.5999336             -0.1480263              0.3397528
      1.0137618              1.1307670              0.7271586
SP   1   1.00
      0.2700058              1.0000000              1.0000000
D    1   1.00
      2.5840000              1.0000000
D    1   1.00
      0.6460000              1.0000000
F    1   1.00
      1.4000000              1.0000000
****
F     0
S    6   1.00
   7001.7130900              0.0018196169
   1051.3660900              0.0139160796
    239.2856900              0.0684053245
     67.3974453              0.233185760
     21.5199573              0.471267439
      7.40310130             0.356618546
SP   3   1.00
     20.8479528             -0.108506975            0.0716287243
      4.80830834            -0.146451658            0.3459121030
      1.34406986             1.128688580            0.7224699570
SP   1   1.00
      0.358151393            1.0000000              1.0000000
D    1   1.00
      3.5000000              1.0000000
D    1   1.00
      0.8750000              1.0000000
F    1   1.00
      1.8500000              1.0000000
****
Al     0
S    6   1.00
  13983.1000000              0.00194267
   2098.7500000              0.0148599
    477.7050000              0.0728494
    134.3600000              0.2468300
     42.8709000              0.4872580
     14.5189000              0.3234960
SP   6   1.00
    239.6680000             -0.00292619             0.00460285
     57.4419000             -0.0374080              0.0331990
     18.2859000             -0.1144870              0.1362820
      6.5991400              0.1156350              0.3304760
      2.4904900              0.6125950              0.4491460
      0.9445400              0.3937990              0.2657040
SP   3   1.00
      1.2779000             -0.2276060             -0.0175130
      0.3975900              0.00144583             0.2445330
      0.1600950              1.0927900              0.8049340
SP   1   1.00
      0.0556577              1.0000000              1.0000000
D    1   1.00
      0.6500000              1.0000000
D    1   1.00
      0.1625000              1.0000000
F    1   1.00
      0.2500000              1.0000000
****
Si     0
S    6   1.00
  16115.9000000              0.00195948
   2425.5800000              0.01492880
    553.8670000              0.07284780
    156.3400000              0.24613000
     50.0683000              0.48591400
     17.0178000              0.32500200
SP   6   1.00
    292.7180000             -0.00278094             0.00443826
     69.8731000             -0.03571460             0.03266790
     22.3363000             -0.11498500             0.13472100
      8.1503900              0.09356340             0.32867800
      3.1345800              0.60301700             0.44964000
      1.2254300              0.41895900             0.26137200
SP   3   1.00
      1.7273800             -0.24463000            -0.01779510
      0.5729220              0.00431572             0.25353900
      0.2221920              1.09818000             0.80066900
SP   1   1.00
      0.0778369              1.00000000             1.00000000
D    1   1.00
      0.9000000              1.0000000
D    1   1.00
      0.2250000              1.0000000
F    1   1.00
      0.3200000              1.0000000
****
P     0
S    6   1.00
  19413.3000000              0.0018516
   2909.4200000              0.0142062
    661.3640000              0.0699995
    185.7590000              0.2400790
     59.1943000              0.4847620
     20.0310000              0.3352000
SP   6   1.00
    339.4780000             -0.00278217             0.00456462
     81.0101000             -0.0360499              0.03369360
     25.8780000             -0.1166310              0.13975500
      9.4522100              0.0968328              0.33936200
      3.6656600              0.6144180              0.45092100
      1.4674600              0.4037980              0.23858600
SP   3   1.00
      2.1562300             -0.2529230             -0.01776530
      0.7489970              0.0328517              0.27405800
      0.2831450              1.0812500              0.78542100
SP   1   1.00
      0.0998317              1.0000000              1.00000000
D    1   1.00
      1.1000000              1.0000000
D    1   1.00
      0.2750000              1.0000000
F    1   1.00
      0.4500000              1.0000000
****
S     0
S    6   1.00
  21917.1000000              0.0018690
   3301.4900000              0.0142300
    754.1460000              0.0696960
    212.7110000              0.2384870
     67.9896000              0.4833070
     23.0515000              0.3380740
SP   6   1.00
    423.7350000             -0.0023767              0.0040610
    100.7100000             -0.0316930              0.0306810
     32.1599000             -0.1133170              0.1304520
     11.8079000              0.0560900              0.3272050
      4.6311000              0.5922550              0.4528510
      1.8702500              0.4550060              0.2560420
SP   3   1.00
      2.6158400             -0.2503740             -0.0145110
      0.9221670              0.0669570              0.3102630
      0.3412870              1.0545100              0.7544830
SP   1   1.00
      0.1171670              1.0000000              1.0000000
D    1   1.00
      1.3000000              1.0000000
D    1   1.00
      0.3250000              1.0000000
F    1   1.00
      0.5500000              1.0000000
****
Cl     0
S    6   1.00
  25180.1000000              0.0018330
   3780.3500000              0.0140340
    860.4740000              0.0690970
    242.1450000              0.2374520
     77.3349000              0.4830340
     26.2470000              0.3398560
SP   6   1.00
    491.7650000             -0.0022974              0.0039894
    116.9840000             -0.0307140              0.0303180
     37.4153000             -0.1125280              0.1298800
     13.7834000              0.0450160              0.3279510
      5.4521500              0.5893530              0.4535270
      2.2258800              0.4652060              0.2521540
SP   3   1.00
      3.1864900             -0.2518300             -0.0142990
      1.1442700              0.0615890              0.3235720
      0.4203770              1.0601800              0.7435070
SP   1   1.00
      0.1426570              1.0000000              1.0000000
D    1   1.00
      1.5000000              1.0000000
D    1   1.00
      0.3750000              1.0000000
F    1   1.00
      0.7000000              1.0000000
****
}

set {
reference uhf
freeze_core true
e_convergence 10
d_convergence 10
dft_spherical_points 1202
dft_radial_points 99
}

e = energy('b3lyp')

print_out('Grab this energy {0}'.format(e))
--------------------------------------------------------------------------

    Molecular point group: cs

    Geometry (in Bohr), charge = 0, multiplicity = 2:

       Center              X                  Y                   Z               Mass
    ------------   -----------------  -----------------  -----------------  -----------------
         C           -0.262464486344     0.801685684569     0.000000000000    12.000000000000
         O           -2.187935819144    -0.329975530231     0.000000000000    15.994914619570
         C            2.408875810756    -0.247080253431     0.000000000000    12.000000000000
         H            2.383307570656    -2.302750079031     0.000000000000     1.007825032230
         H            3.391934849556     0.468054672869    -1.668593035500     1.007825032230
         H            3.391934849556     0.468054672869     1.668593035500     1.007825032230

  Charge       = 0
  Multiplicity = 2
  Basis Set: ANONYMOUS6DB364FC
    Blend: 6-31G_2DFP_
  Basis Set: (ANONYMOUS6DB364FC AUX)
    Blend: DEF2-UNIVERSAL-JKFIT

    Orbital Energies [Eh]
    ---------------------

    Alpha Occupied:

       1Ap   -19.186841     2Ap   -10.270715     3Ap   -10.210143
       4Ap    -1.083923     5Ap    -0.761370     6Ap    -0.543618
       7Ap    -0.467097     8Ap    -0.457964     1App   -0.456200
       2App   -0.388462     9Ap    -0.386843    10Ap    -0.190875

    Alpha Virtual:

       3App   -0.017530    11Ap     0.091627    12Ap     0.137971
       4App    0.140907    13Ap     0.218070    14Ap     0.268508
      15Ap     0.428039     5App    0.432413    16Ap     0.443590
       6App    0.493228    17Ap     0.506443    18Ap     0.530737
       7App    0.562563    19Ap     0.577854    20Ap     0.611392
       8App    0.615303    21Ap     0.644919    22Ap     0.718682
       9App    0.766486    23Ap     0.785715    10App    0.832254
      11App    0.916231    24Ap     0.925869    25Ap     0.935717
      12App    1.023456    26Ap     1.086853    27Ap     1.107488
      13App    1.153185    28Ap     1.222343    29Ap     1.306350
      14App    1.316859    30Ap     1.327715    31Ap     1.403359
      15App    1.407395    32Ap     1.469110    33Ap     1.559811
      34Ap     1.633015    16App    1.655314    35Ap     1.721029
      17App    1.812379    36Ap     1.836073    37Ap     1.902205
      18App    2.066502    38Ap     2.168469    39Ap     2.502389
      19App    2.680019    40Ap     2.744354    41Ap     2.784877
      20App    2.841103    21App    2.895073    42Ap     2.975168
      43Ap     3.032269    22App    3.059506    23App    3.104015
      44Ap     3.115206    45Ap     3.181088    24App    3.314381
      46Ap     3.371036    25App    3.393952    26App    3.442172
      27App    3.465740    47Ap     3.486284    48Ap     3.570656
      49Ap     3.745454    50Ap     3.763741    51Ap     3.943167
      28App    3.979875    52Ap     4.057272    53Ap     4.108986
      29App    4.120563    54Ap     4.190718    30App    4.386547
      55Ap     4.433725    31App    4.448117    56Ap     4.534042
      57Ap     4.918091    58Ap     5.037198    32App    5.042598
      33App    5.193047    59Ap     5.213071    60Ap     5.480501
      34App    5.488674    61Ap     5.825211    35App    5.937889
      62Ap     6.110354    63Ap     6.771192    36App    6.773509
      37App    7.070371    64Ap     7.135437    65Ap     7.533345

    Beta Occupied:

       1Ap   -19.178798     2Ap   -10.260676     3Ap   -10.206728
       4Ap    -1.068099     5Ap    -0.749531     6Ap    -0.523935
       1App   -0.451560     7Ap    -0.447096     8Ap    -0.439528
       2App   -0.383375     9Ap    -0.349011

    Beta Virtual:

      10Ap    -0.051447     3App   -0.001291    11Ap     0.094290
      12Ap     0.143678     4App    0.144076    13Ap     0.228562
      14Ap     0.274112     5App    0.434401    15Ap     0.435195
      16Ap     0.465654     6App    0.499914    17Ap     0.527972
      18Ap     0.539506     7App    0.568891    19Ap     0.582077
       8App    0.622592    20Ap     0.629524    21Ap     0.651077
      22Ap     0.740935     9App    0.777540    23Ap     0.795584
      10App    0.833031    11App    0.921089    24Ap     0.942876
      25Ap     0.950274    12App    1.027666    26Ap     1.092907
      27Ap     1.109602    13App    1.159390    28Ap     1.231676
      29Ap     1.311873    14App    1.319647    30Ap     1.334496
      15App    1.412977    31Ap     1.413711    32Ap     1.481464
      33Ap     1.570753    34Ap     1.646537    16App    1.669686
      35Ap     1.727228    17App    1.815558    36Ap     1.850265
      37Ap     1.908920    18App    2.073197    38Ap     2.189827
      39Ap     2.515105    19App    2.694288    40Ap     2.758957
      41Ap     2.805933    20App    2.856375    21App    2.896724
      42Ap     2.984683    43Ap     3.049043    22App    3.068224
      23App    3.122888    44Ap     3.123687    45Ap     3.215811
      24App    3.357814    46Ap     3.382463    25App    3.400190
      26App    3.451064    27App    3.480834    47Ap     3.509254
      48Ap     3.584132    49Ap     3.771113    50Ap     3.773161
      51Ap     3.951875    28App    3.989191    52Ap     4.073598
      53Ap     4.123106    29App    4.123306    54Ap     4.202901
      30App    4.388849    55Ap     4.439895    31App    4.452309
      56Ap     4.544984    57Ap     4.921918    58Ap     5.054706
      32App    5.060555    33App    5.195143    59Ap     5.218801
      60Ap     5.493075    34App    5.502616    61Ap     5.838444
      35App    5.943475    62Ap     6.133495    63Ap     6.800396
      36App    6.803049    37App    7.074655    64Ap     7.164715
      65Ap     7.544962

    Final Occupation by Irrep:
             Ap   App
    DOCC [     9,    2 ]
    SOCC [     1,    0 ]

  @DF-UKS Final Energy:  -153.18843629414710

   => Energetics <=

    Nuclear Repulsion Energy =             62.8739992308375406
    One-Electron Energy =                -331.7403826648796894
    Two-Electron Energy =                 132.2612914664585730
    DFT Exchange-Correlation Energy =     -16.5833443265634841
    Empirical Dispersion Energy =           0.0000000000000000
    VV10 Nonlocal Energy =                  0.0000000000000000
    Total Energy =                       -153.1884362941470954

  UHF NO Occupations:
  HONO-2 :    8 Ap 1.9997825
  HONO-1 :    9 Ap 1.9992099
  HONO-0 :   10 Ap 1.0000000
  LUNO+0 :   11 Ap 0.0007901
  LUNO+1 :   12 Ap 0.0002175
  LUNO+2 :    3App 0.0001780
  LUNO+3 :   13 Ap 0.0000611

Computation Completed

Properties will be evaluated at   0.000000,   0.000000,   0.000000 [a0]

Properties computed using the SCF density matrix

  Nuclear Dipole Moment: [e a0]
     X:     4.5422      Y:    -0.6788      Z:     0.0000

  Electronic Dipole Moment: [e a0]
     X:    -3.6191      Y:     0.6260      Z:     0.0000

  Dipole Moment: [e a0]
     X:     0.9231      Y:    -0.0528      Z:     0.0000     Total:     0.9246

  Dipole Moment: [D]
     X:     2.3462      Y:    -0.1342      Z:     0.0000     Total:     2.3500

*** tstop() called on n082 at Tue Mar 15 10:32:02 2022
Module time:
	user time   =      44.17 seconds =       0.74 minutes
	system time =       0.52 seconds =       0.01 minutes
	total time  =         45 seconds =       0.75 minutes
Total time:
	user time   =      44.17 seconds =       0.74 minutes
	system time =       0.52 seconds =       0.01 minutes
	total time  =         45 seconds =       0.75 minutes
Grab this energy -153.1884362941471
    Psi4 stopped on: Tuesday, 15 March 2022 10:32AM
    Psi4 wall time for execution: 0:00:44.72

*** Psi4 exiting successfully. Buy a developer a beer!
