                               Psi4 1.4a2.dev629

  ==> Input File <==

--------------------------------------------------------------------------
import os
memory 14 GB

molecule {
 C   -0.2582274851    0.8031367279    0.0000000000
 O   -2.1921534294   -0.3327822084    0.0000000000
 C    2.4131669472   -0.2463845212   -0.0000000000
 H    2.3826931897   -2.3026146255    0.0000000000
 H    3.3895793799    0.4665051376   -1.6600439154
 H    3.3895793799    0.4665051376    1.6600439154
units bohr
0 2
}

basis {

assign 6-31g_2dfp_

[ 6-31g_2dfp_ ]

spherical

!----------------------------------------------------------------------
! Basis Set Exchange
! Version v0.8.13
! https://www.basissetexchange.org
!----------------------------------------------------------------------
!   Basis set: 6-31G(2df,p)
! Description: 6-31G(2df,p)
!        Role: orbital
!     Version: 0  (Data from the original Basis Set Exchange)
!----------------------------------------------------------------------

****
H     0
S    3   1.00
     18.7311370              0.03349460
      2.8253937              0.23472695
      0.6401217              0.81375733
S    1   1.00
      0.1612778              1.00000000
P    1   1.00
      1.5000000              1.0000000
P    1   1.00
      0.3750000              1.0000000
****
B     0
S    6   1.00
   2068.8823000              0.0018663
    310.6495700              0.0142515
     70.6830330              0.0695516
     19.8610800              0.2325729
      6.2993048              0.4670787
      2.1270270              0.3634314
SP   3   1.00
      4.7279710             -0.1303938              0.0745976
      1.1903377             -0.1307889              0.3078467
      0.3594117              1.1309444              0.7434568
SP   1   1.00
      0.1267512              1.0000000              1.0000000
D    1   1.00
      0.8020000              1.0000000
D    1   1.00
      0.2005000              1.0000000
F    1   1.00
      0.5000000              1.0000000
****
C     0
S    6   1.00
   3047.5249000              0.0018347
    457.3695100              0.0140373
    103.9486900              0.0688426
     29.2101550              0.2321844
      9.2866630              0.4679413
      3.1639270              0.3623120
SP   3   1.00
      7.8682724             -0.1193324              0.0689991
      1.8812885             -0.1608542              0.3164240
      0.5442493              1.1434564              0.7443083
SP   1   1.00
      0.1687144              1.0000000              1.0000000
D    1   1.00
      1.2520000              1.0000000
D    1   1.00
      0.3130000              1.0000000
F    1   1.00
      0.8000000              1.0000000
****
N     0
S    6   1.00
   4173.5110000              0.0018348
    627.4579000              0.0139950
    142.9021000              0.0685870
     40.2343300              0.2322410
     12.8202100              0.4690700
      4.3904370              0.3604550
SP   3   1.00
     11.6263580             -0.1149610              0.0675800
      2.7162800             -0.1691180              0.3239070
      0.7722180              1.1458520              0.7408950
SP   1   1.00
      0.2120313              1.0000000              1.0000000
D    1   1.00
      1.8260000              1.0000000
D    1   1.00
      0.4565000              1.0000000
F    1   1.00
      1.0000000              1.0000000
****
O     0
S    6   1.00
   5484.6717000              0.0018311
    825.2349500              0.0139501
    188.0469600              0.0684451
     52.9645000              0.2327143
     16.8975700              0.4701930
      5.7996353              0.3585209
SP   3   1.00
     15.5396160             -0.1107775              0.0708743
      3.5999336             -0.1480263              0.3397528
      1.0137618              1.1307670              0.7271586
SP   1   1.00
      0.2700058              1.0000000              1.0000000
D    1   1.00
      2.5840000              1.0000000
D    1   1.00
      0.6460000              1.0000000
F    1   1.00
      1.4000000              1.0000000
****
F     0
S    6   1.00
   7001.7130900              0.0018196169
   1051.3660900              0.0139160796
    239.2856900              0.0684053245
     67.3974453              0.233185760
     21.5199573              0.471267439
      7.40310130             0.356618546
SP   3   1.00
     20.8479528             -0.108506975            0.0716287243
      4.80830834            -0.146451658            0.3459121030
      1.34406986             1.128688580            0.7224699570
SP   1   1.00
      0.358151393            1.0000000              1.0000000
D    1   1.00
      3.5000000              1.0000000
D    1   1.00
      0.8750000              1.0000000
F    1   1.00
      1.8500000              1.0000000
****
Al     0
S    6   1.00
  13983.1000000              0.00194267
   2098.7500000              0.0148599
    477.7050000              0.0728494
    134.3600000              0.2468300
     42.8709000              0.4872580
     14.5189000              0.3234960
SP   6   1.00
    239.6680000             -0.00292619             0.00460285
     57.4419000             -0.0374080              0.0331990
     18.2859000             -0.1144870              0.1362820
      6.5991400              0.1156350              0.3304760
      2.4904900              0.6125950              0.4491460
      0.9445400              0.3937990              0.2657040
SP   3   1.00
      1.2779000             -0.2276060             -0.0175130
      0.3975900              0.00144583             0.2445330
      0.1600950              1.0927900              0.8049340
SP   1   1.00
      0.0556577              1.0000000              1.0000000
D    1   1.00
      0.6500000              1.0000000
D    1   1.00
      0.1625000              1.0000000
F    1   1.00
      0.2500000              1.0000000
****
Si     0
S    6   1.00
  16115.9000000              0.00195948
   2425.5800000              0.01492880
    553.8670000              0.07284780
    156.3400000              0.24613000
     50.0683000              0.48591400
     17.0178000              0.32500200
SP   6   1.00
    292.7180000             -0.00278094             0.00443826
     69.8731000             -0.03571460             0.03266790
     22.3363000             -0.11498500             0.13472100
      8.1503900              0.09356340             0.32867800
      3.1345800              0.60301700             0.44964000
      1.2254300              0.41895900             0.26137200
SP   3   1.00
      1.7273800             -0.24463000            -0.01779510
      0.5729220              0.00431572             0.25353900
      0.2221920              1.09818000             0.80066900
SP   1   1.00
      0.0778369              1.00000000             1.00000000
D    1   1.00
      0.9000000              1.0000000
D    1   1.00
      0.2250000              1.0000000
F    1   1.00
      0.3200000              1.0000000
****
P     0
S    6   1.00
  19413.3000000              0.0018516
   2909.4200000              0.0142062
    661.3640000              0.0699995
    185.7590000              0.2400790
     59.1943000              0.4847620
     20.0310000              0.3352000
SP   6   1.00
    339.4780000             -0.00278217             0.00456462
     81.0101000             -0.0360499              0.03369360
     25.8780000             -0.1166310              0.13975500
      9.4522100              0.0968328              0.33936200
      3.6656600              0.6144180              0.45092100
      1.4674600              0.4037980              0.23858600
SP   3   1.00
      2.1562300             -0.2529230             -0.01776530
      0.7489970              0.0328517              0.27405800
      0.2831450              1.0812500              0.78542100
SP   1   1.00
      0.0998317              1.0000000              1.00000000
D    1   1.00
      1.1000000              1.0000000
D    1   1.00
      0.2750000              1.0000000
F    1   1.00
      0.4500000              1.0000000
****
S     0
S    6   1.00
  21917.1000000              0.0018690
   3301.4900000              0.0142300
    754.1460000              0.0696960
    212.7110000              0.2384870
     67.9896000              0.4833070
     23.0515000              0.3380740
SP   6   1.00
    423.7350000             -0.0023767              0.0040610
    100.7100000             -0.0316930              0.0306810
     32.1599000             -0.1133170              0.1304520
     11.8079000              0.0560900              0.3272050
      4.6311000              0.5922550              0.4528510
      1.8702500              0.4550060              0.2560420
SP   3   1.00
      2.6158400             -0.2503740             -0.0145110
      0.9221670              0.0669570              0.3102630
      0.3412870              1.0545100              0.7544830
SP   1   1.00
      0.1171670              1.0000000              1.0000000
D    1   1.00
      1.3000000              1.0000000
D    1   1.00
      0.3250000              1.0000000
F    1   1.00
      0.5500000              1.0000000
****
Cl     0
S    6   1.00
  25180.1000000              0.0018330
   3780.3500000              0.0140340
    860.4740000              0.0690970
    242.1450000              0.2374520
     77.3349000              0.4830340
     26.2470000              0.3398560
SP   6   1.00
    491.7650000             -0.0022974              0.0039894
    116.9840000             -0.0307140              0.0303180
     37.4153000             -0.1125280              0.1298800
     13.7834000              0.0450160              0.3279510
      5.4521500              0.5893530              0.4535270
      2.2258800              0.4652060              0.2521540
SP   3   1.00
      3.1864900             -0.2518300             -0.0142990
      1.1442700              0.0615890              0.3235720
      0.4203770              1.0601800              0.7435070
SP   1   1.00
      0.1426570              1.0000000              1.0000000
D    1   1.00
      1.5000000              1.0000000
D    1   1.00
      0.3750000              1.0000000
F    1   1.00
      0.7000000              1.0000000
****
}

set {
reference uhf
freeze_core true
e_convergence 10
d_convergence 10
dft_spherical_points 1202
dft_radial_points 99
}

e = energy('b3lyp')

print_out('Grab this energy {0}'.format(e))
--------------------------------------------------------------------------

    Molecular point group: cs

    Geometry (in Bohr), charge = 0, multiplicity = 2:

       Center              X                  Y                   Z               Mass
    ------------   -----------------  -----------------  -----------------  -----------------
         C           -0.258913478821     0.803650881928     0.000000000000    12.000000000000
         O           -2.192839423121    -0.332268054372     0.000000000000    15.994914619570
         C            2.412480953479    -0.245870367172     0.000000000000    12.000000000000
         H            2.382007195979    -2.302100471472     0.000000000000     1.007825032230
         H            3.388893386179     0.467019291628    -1.660043915400     1.007825032230
         H            3.388893386179     0.467019291628     1.660043915400     1.007825032230

  Charge       = 0
  Multiplicity = 2
  Basis Set: ANONYMOUSF340E289
    Blend: 6-31G_2DFP_
  Basis Set: (ANONYMOUSF340E289 AUX)
    Blend: DEF2-UNIVERSAL-JKFIT

    Orbital Energies [Eh]
    ---------------------

    Alpha Occupied:

       1Ap   -19.186862     2Ap   -10.271585     3Ap   -10.209557
       4Ap    -1.081088     5Ap    -0.762494     6Ap    -0.544045
       7Ap    -0.466803     8Ap    -0.457446     1App   -0.456695
       2App   -0.387727     9Ap    -0.386445    10Ap    -0.191874

    Alpha Virtual:

       3App   -0.018800    11Ap     0.092304    12Ap     0.137834
       4App    0.141987    13Ap     0.217231    14Ap     0.268040
      15Ap     0.428023     5App    0.431750    16Ap     0.443785
       6App    0.493982    17Ap     0.506527    18Ap     0.531051
       7App    0.563874    19Ap     0.579255    20Ap     0.608576
       8App    0.616361    21Ap     0.644669    22Ap     0.718068
       9App    0.766416    23Ap     0.785342    10App    0.833646
      11App    0.917494    24Ap     0.927308    25Ap     0.936233
      12App    1.023752    26Ap     1.085693    27Ap     1.107959
      13App    1.153981    28Ap     1.222777    29Ap     1.305902
      14App    1.317775    30Ap     1.327520    31Ap     1.405113
      15App    1.409882    32Ap     1.469509    33Ap     1.560068
      34Ap     1.631744    16App    1.654042    35Ap     1.724953
      17App    1.815398    36Ap     1.835502    37Ap     1.902699
      18App    2.066675    38Ap     2.167249    39Ap     2.495201
      19App    2.680912    40Ap     2.743999    41Ap     2.786557
      20App    2.844055    21App    2.895846    42Ap     2.974373
      43Ap     3.030788    22App    3.057456    23App    3.105047
      44Ap     3.114896    45Ap     3.181589    24App    3.314188
      46Ap     3.367973    25App    3.390609    26App    3.440523
      27App    3.465459    47Ap     3.485075    48Ap     3.573687
      49Ap     3.739306    50Ap     3.761710    51Ap     3.945790
      28App    3.984188    52Ap     4.055767    53Ap     4.113743
      29App    4.124452    54Ap     4.192502    30App    4.395401
      55Ap     4.436385    31App    4.454946    56Ap     4.535246
      57Ap     4.924388    58Ap     5.037415    32App    5.042295
      33App    5.206630    59Ap     5.216467    60Ap     5.473357
      34App    5.482674    61Ap     5.826902    35App    5.930222
      62Ap     6.103960    63Ap     6.770654    36App    6.772833
      37App    7.071165    64Ap     7.134987    65Ap     7.529776

    Beta Occupied:

       1Ap   -19.178807     2Ap   -10.261520     3Ap   -10.206177
       4Ap    -1.065176     5Ap    -0.750751     6Ap    -0.524269
       1App   -0.452186     7Ap    -0.447450     8Ap    -0.438837
       2App   -0.382524     9Ap    -0.348051

    Beta Virtual:

      10Ap    -0.052384     3App   -0.002504    11Ap     0.095011
      12Ap     0.143453     4App    0.145062    13Ap     0.227725
      14Ap     0.273726     5App    0.433747    15Ap     0.435379
      16Ap     0.465572     6App    0.500690    17Ap     0.527991
      18Ap     0.540108     7App    0.570331    19Ap     0.583463
       8App    0.623483    20Ap     0.627185    21Ap     0.650310
      22Ap     0.740024     9App    0.777579    23Ap     0.795338
      10App    0.834421    11App    0.922324    24Ap     0.943883
      25Ap     0.951295    12App    1.027942    26Ap     1.091845
      27Ap     1.110033    13App    1.160172    28Ap     1.232083
      29Ap     1.311542    14App    1.320549    30Ap     1.334274
      31Ap     1.415431    15App    1.415441    32Ap     1.481759
      33Ap     1.571232    34Ap     1.645162    16App    1.668380
      35Ap     1.731292    17App    1.818569    36Ap     1.849421
      37Ap     1.909291    18App    2.073400    38Ap     2.188653
      39Ap     2.507890    19App    2.695202    40Ap     2.758502
      41Ap     2.807699    20App    2.859522    21App    2.897480
      42Ap     2.983724    43Ap     3.047598    22App    3.065999
      44Ap     3.123385    23App    3.123609    45Ap     3.216268
      24App    3.357833    46Ap     3.379457    25App    3.396949
      26App    3.448847    27App    3.481103    47Ap     3.508508
      48Ap     3.586666    49Ap     3.765162    50Ap     3.771222
      51Ap     3.954379    28App    3.993510    52Ap     4.072163
      29App    4.127249    53Ap     4.128651    54Ap     4.203893
      30App    4.397736    55Ap     4.442543    31App    4.459027
      56Ap     4.546035    57Ap     4.928317    58Ap     5.054919
      32App    5.060266    33App    5.208849    59Ap     5.222083
      60Ap     5.485989    34App    5.496499    61Ap     5.840135
      35App    5.935808    62Ap     6.127131    63Ap     6.799888
      36App    6.802407    37App    7.075460    64Ap     7.164325
      65Ap     7.541430

    Final Occupation by Irrep:
             Ap   App
    DOCC [     9,    2 ]
    SOCC [     1,    0 ]

  @DF-UKS Final Energy:  -153.18836980070580

   => Energetics <=

    Nuclear Repulsion Energy =             62.8022167644919662
    One-Electron Energy =                -331.6009364674888502
    Two-Electron Energy =                 132.1932835923600180
    DFT Exchange-Correlation Energy =     -16.5829336900689199
    Empirical Dispersion Energy =           0.0000000000000000
    VV10 Nonlocal Energy =                  0.0000000000000000
    Total Energy =                       -153.1883698007058001

  UHF NO Occupations:
  HONO-2 :    8 Ap 1.9997843
  HONO-1 :    9 Ap 1.9992034
  HONO-0 :   10 Ap 1.0000000
  LUNO+0 :   11 Ap 0.0007966
  LUNO+1 :   12 Ap 0.0002157
  LUNO+2 :    3App 0.0001806
  LUNO+3 :   13 Ap 0.0000615

Computation Completed

Properties will be evaluated at   0.000000,   0.000000,   0.000000 [a0]

Properties computed using the SCF density matrix

  Nuclear Dipole Moment: [e a0]
     X:     4.5385      Y:    -0.6795      Z:     0.0000

  Electronic Dipole Moment: [e a0]
     X:    -3.6060      Y:     0.6284      Z:     0.0000

  Dipole Moment: [e a0]
     X:     0.9325      Y:    -0.0511      Z:     0.0000     Total:     0.9339

  Dipole Moment: [D]
     X:     2.3701      Y:    -0.1299      Z:     0.0000     Total:     2.3737

*** tstop() called on n082 at Tue Mar 15 10:27:01 2022
Module time:
	user time   =      44.15 seconds =       0.74 minutes
	system time =       0.56 seconds =       0.01 minutes
	total time  =         44 seconds =       0.73 minutes
Total time:
	user time   =      44.15 seconds =       0.74 minutes
	system time =       0.56 seconds =       0.01 minutes
	total time  =         44 seconds =       0.73 minutes
Grab this energy -153.1883698007058
    Psi4 stopped on: Tuesday, 15 March 2022 10:27AM
    Psi4 wall time for execution: 0:00:44.75

*** Psi4 exiting successfully. Buy a developer a beer!
