                               Psi4 1.4a2.dev629

  ==> Input File <==

--------------------------------------------------------------------------
import os
memory 14 GB

molecule {
 C   -0.2585664228    0.8074868239   -0.0000000003
 O   -2.1986967004   -0.3426430581    0.0000000095
 C    2.4117601010   -0.2402311693    0.0000000101
 H    2.3823672063   -2.3033851654    0.0000000306
 H    3.3948667067    0.4744535099   -1.6647861576
 H    3.3948670593    0.4744536790    1.6647859276
units bohr
0 2
}

basis {

assign 6-31g_2dfp_

[ 6-31g_2dfp_ ]

spherical

!----------------------------------------------------------------------
! Basis Set Exchange
! Version v0.8.13
! https://www.basissetexchange.org
!----------------------------------------------------------------------
!   Basis set: 6-31G(2df,p)
! Description: 6-31G(2df,p)
!        Role: orbital
!     Version: 0  (Data from the original Basis Set Exchange)
!----------------------------------------------------------------------

****
H     0
S    3   1.00
     18.7311370              0.03349460
      2.8253937              0.23472695
      0.6401217              0.81375733
S    1   1.00
      0.1612778              1.00000000
P    1   1.00
      1.5000000              1.0000000
P    1   1.00
      0.3750000              1.0000000
****
B     0
S    6   1.00
   2068.8823000              0.0018663
    310.6495700              0.0142515
     70.6830330              0.0695516
     19.8610800              0.2325729
      6.2993048              0.4670787
      2.1270270              0.3634314
SP   3   1.00
      4.7279710             -0.1303938              0.0745976
      1.1903377             -0.1307889              0.3078467
      0.3594117              1.1309444              0.7434568
SP   1   1.00
      0.1267512              1.0000000              1.0000000
D    1   1.00
      0.8020000              1.0000000
D    1   1.00
      0.2005000              1.0000000
F    1   1.00
      0.5000000              1.0000000
****
C     0
S    6   1.00
   3047.5249000              0.0018347
    457.3695100              0.0140373
    103.9486900              0.0688426
     29.2101550              0.2321844
      9.2866630              0.4679413
      3.1639270              0.3623120
SP   3   1.00
      7.8682724             -0.1193324              0.0689991
      1.8812885             -0.1608542              0.3164240
      0.5442493              1.1434564              0.7443083
SP   1   1.00
      0.1687144              1.0000000              1.0000000
D    1   1.00
      1.2520000              1.0000000
D    1   1.00
      0.3130000              1.0000000
F    1   1.00
      0.8000000              1.0000000
****
N     0
S    6   1.00
   4173.5110000              0.0018348
    627.4579000              0.0139950
    142.9021000              0.0685870
     40.2343300              0.2322410
     12.8202100              0.4690700
      4.3904370              0.3604550
SP   3   1.00
     11.6263580             -0.1149610              0.0675800
      2.7162800             -0.1691180              0.3239070
      0.7722180              1.1458520              0.7408950
SP   1   1.00
      0.2120313              1.0000000              1.0000000
D    1   1.00
      1.8260000              1.0000000
D    1   1.00
      0.4565000              1.0000000
F    1   1.00
      1.0000000              1.0000000
****
O     0
S    6   1.00
   5484.6717000              0.0018311
    825.2349500              0.0139501
    188.0469600              0.0684451
     52.9645000              0.2327143
     16.8975700              0.4701930
      5.7996353              0.3585209
SP   3   1.00
     15.5396160             -0.1107775              0.0708743
      3.5999336             -0.1480263              0.3397528
      1.0137618              1.1307670              0.7271586
SP   1   1.00
      0.2700058              1.0000000              1.0000000
D    1   1.00
      2.5840000              1.0000000
D    1   1.00
      0.6460000              1.0000000
F    1   1.00
      1.4000000              1.0000000
****
F     0
S    6   1.00
   7001.7130900              0.0018196169
   1051.3660900              0.0139160796
    239.2856900              0.0684053245
     67.3974453              0.233185760
     21.5199573              0.471267439
      7.40310130             0.356618546
SP   3   1.00
     20.8479528             -0.108506975            0.0716287243
      4.80830834            -0.146451658            0.3459121030
      1.34406986             1.128688580            0.7224699570
SP   1   1.00
      0.358151393            1.0000000              1.0000000
D    1   1.00
      3.5000000              1.0000000
D    1   1.00
      0.8750000              1.0000000
F    1   1.00
      1.8500000              1.0000000
****
Al     0
S    6   1.00
  13983.1000000              0.00194267
   2098.7500000              0.0148599
    477.7050000              0.0728494
    134.3600000              0.2468300
     42.8709000              0.4872580
     14.5189000              0.3234960
SP   6   1.00
    239.6680000             -0.00292619             0.00460285
     57.4419000             -0.0374080              0.0331990
     18.2859000             -0.1144870              0.1362820
      6.5991400              0.1156350              0.3304760
      2.4904900              0.6125950              0.4491460
      0.9445400              0.3937990              0.2657040
SP   3   1.00
      1.2779000             -0.2276060             -0.0175130
      0.3975900              0.00144583             0.2445330
      0.1600950              1.0927900              0.8049340
SP   1   1.00
      0.0556577              1.0000000              1.0000000
D    1   1.00
      0.6500000              1.0000000
D    1   1.00
      0.1625000              1.0000000
F    1   1.00
      0.2500000              1.0000000
****
Si     0
S    6   1.00
  16115.9000000              0.00195948
   2425.5800000              0.01492880
    553.8670000              0.07284780
    156.3400000              0.24613000
     50.0683000              0.48591400
     17.0178000              0.32500200
SP   6   1.00
    292.7180000             -0.00278094             0.00443826
     69.8731000             -0.03571460             0.03266790
     22.3363000             -0.11498500             0.13472100
      8.1503900              0.09356340             0.32867800
      3.1345800              0.60301700             0.44964000
      1.2254300              0.41895900             0.26137200
SP   3   1.00
      1.7273800             -0.24463000            -0.01779510
      0.5729220              0.00431572             0.25353900
      0.2221920              1.09818000             0.80066900
SP   1   1.00
      0.0778369              1.00000000             1.00000000
D    1   1.00
      0.9000000              1.0000000
D    1   1.00
      0.2250000              1.0000000
F    1   1.00
      0.3200000              1.0000000
****
P     0
S    6   1.00
  19413.3000000              0.0018516
   2909.4200000              0.0142062
    661.3640000              0.0699995
    185.7590000              0.2400790
     59.1943000              0.4847620
     20.0310000              0.3352000
SP   6   1.00
    339.4780000             -0.00278217             0.00456462
     81.0101000             -0.0360499              0.03369360
     25.8780000             -0.1166310              0.13975500
      9.4522100              0.0968328              0.33936200
      3.6656600              0.6144180              0.45092100
      1.4674600              0.4037980              0.23858600
SP   3   1.00
      2.1562300             -0.2529230             -0.01776530
      0.7489970              0.0328517              0.27405800
      0.2831450              1.0812500              0.78542100
SP   1   1.00
      0.0998317              1.0000000              1.00000000
D    1   1.00
      1.1000000              1.0000000
D    1   1.00
      0.2750000              1.0000000
F    1   1.00
      0.4500000              1.0000000
****
S     0
S    6   1.00
  21917.1000000              0.0018690
   3301.4900000              0.0142300
    754.1460000              0.0696960
    212.7110000              0.2384870
     67.9896000              0.4833070
     23.0515000              0.3380740
SP   6   1.00
    423.7350000             -0.0023767              0.0040610
    100.7100000             -0.0316930              0.0306810
     32.1599000             -0.1133170              0.1304520
     11.8079000              0.0560900              0.3272050
      4.6311000              0.5922550              0.4528510
      1.8702500              0.4550060              0.2560420
SP   3   1.00
      2.6158400             -0.2503740             -0.0145110
      0.9221670              0.0669570              0.3102630
      0.3412870              1.0545100              0.7544830
SP   1   1.00
      0.1171670              1.0000000              1.0000000
D    1   1.00
      1.3000000              1.0000000
D    1   1.00
      0.3250000              1.0000000
F    1   1.00
      0.5500000              1.0000000
****
Cl     0
S    6   1.00
  25180.1000000              0.0018330
   3780.3500000              0.0140340
    860.4740000              0.0690970
    242.1450000              0.2374520
     77.3349000              0.4830340
     26.2470000              0.3398560
SP   6   1.00
    491.7650000             -0.0022974              0.0039894
    116.9840000             -0.0307140              0.0303180
     37.4153000             -0.1125280              0.1298800
     13.7834000              0.0450160              0.3279510
      5.4521500              0.5893530              0.4535270
      2.2258800              0.4652060              0.2521540
SP   3   1.00
      3.1864900             -0.2518300             -0.0142990
      1.1442700              0.0615890              0.3235720
      0.4203770              1.0601800              0.7435070
SP   1   1.00
      0.1426570              1.0000000              1.0000000
D    1   1.00
      1.5000000              1.0000000
D    1   1.00
      0.3750000              1.0000000
F    1   1.00
      0.7000000              1.0000000
****
}

set {
reference uhf
freeze_core true
e_convergence 10
d_convergence 10
dft_spherical_points 1202
dft_radial_points 99
}

e = energy('b3lyp')

print_out('Grab this energy {0}'.format(e))
--------------------------------------------------------------------------

    Molecular point group: c1

    Geometry (in Bohr), charge = 0, multiplicity = 2:

       Center              X                  Y                   Z               Mass
    ------------   -----------------  -----------------  -----------------  -----------------
         C           -0.256572649872     0.808383078146    -0.000000001894    12.000000000000
         O           -2.196702927472    -0.341746803854     0.000000007906    15.994914619570
         C            2.413753873928    -0.239334915054     0.000000008506    12.000000000000
         H            2.384360979228    -2.302488911154     0.000000029006     1.007825032230
         H            3.396860479628     0.475349764146    -1.664786159194     1.007825032230
         H            3.396860832228     0.475349933246     1.664785926006     1.007825032230

  Charge       = 0
  Multiplicity = 2
  Basis Set: ANONYMOUSC35A12E6
    Blend: 6-31G_2DFP_
  Basis Set: (ANONYMOUSC35A12E6 AUX)
    Blend: DEF2-UNIVERSAL-JKFIT

    Orbital Energies [Eh]
    ---------------------

    Alpha Occupied:

       1A    -19.187019     2A    -10.272933     3A    -10.211125
       4A     -1.077544     5A     -0.762269     6A     -0.544370
       7A     -0.465751     8A     -0.456784     9A     -0.455680
      10A     -0.385966    11A     -0.385207    12A     -0.193725

    Alpha Virtual:

      13A     -0.020956    14A      0.091370    15A      0.136472
      16A      0.140787    17A      0.216940    18A      0.267616
      19A      0.427639    20A      0.431649    21A      0.443197
      22A      0.493418    23A      0.506248    24A      0.529811
      25A      0.562590    26A      0.577005    27A      0.603916
      28A      0.615650    29A      0.643203    30A      0.716472
      31A      0.765662    32A      0.784520    33A      0.831782
      34A      0.918358    35A      0.928550    36A      0.936246
      37A      1.021131    38A      1.082444    39A      1.107021
      40A      1.153962    41A      1.220266    42A      1.305809
      43A      1.315882    44A      1.327487    45A      1.403394
      46A      1.405806    47A      1.466476    48A      1.560144
      49A      1.626849    50A      1.651360    51A      1.718285
      52A      1.811261    53A      1.832431    54A      1.900017
      55A      2.062503    56A      2.163292    57A      2.485578
      58A      2.679389    59A      2.743079    60A      2.783454
      61A      2.840158    62A      2.894111    63A      2.971339
      64A      3.030365    65A      3.056579    66A      3.107266
      67A      3.113612    68A      3.183230    69A      3.314957
      70A      3.365670    71A      3.392300    72A      3.437952
      73A      3.465834    74A      3.484250    75A      3.570495
      76A      3.730350    77A      3.758584    78A      3.941784
      79A      3.980556    80A      4.049902    81A      4.109900
      82A      4.118040    83A      4.187877    84A      4.387512
      85A      4.432540    86A      4.447159    87A      4.529557
      88A      4.917956    89A      5.036572    90A      5.041649
      91A      5.195624    92A      5.205287    93A      5.463487
      94A      5.472017    95A      5.827957    96A      5.918994
      97A      6.094577    98A      6.769808    99A      6.771794
     100A      7.071836   101A      7.134683   102A      7.524690

    Beta Occupied:

       1A    -19.178934     2A    -10.262833     3A    -10.207784
       4A     -1.061491     5A     -0.750515     6A     -0.524542
       7A     -0.451241     8A     -0.446998     9A     -0.437845
      10A     -0.380718    11A     -0.346449

    Beta Virtual:

      12A     -0.054119    13A     -0.004654    14A      0.094044
      15A      0.142148    16A      0.143883    17A      0.227362
      18A      0.273437    19A      0.433616    20A      0.434732
      21A      0.465249    22A      0.500080    23A      0.527380
      24A      0.538903    25A      0.568921    26A      0.581242
      27A      0.622858    28A      0.623107    29A      0.648470
      30A      0.738033    31A      0.776940    32A      0.794681
      33A      0.832553    34A      0.923182    35A      0.944373
      36A      0.952199    37A      1.025264    38A      1.088553
      39A      1.109155    40A      1.160159    41A      1.229500
      42A      1.311337    43A      1.318681    44A      1.334307
      45A      1.411260    46A      1.413793    47A      1.478738
      48A      1.571565    49A      1.639878    50A      1.665719
      51A      1.724512    52A      1.814430    53A      1.846475
      54A      1.906595    55A      2.069220    56A      2.184756
      57A      2.498206    58A      2.693606    59A      2.757513
      60A      2.804623    61A      2.855687    62A      2.895715
      63A      2.980662    64A      3.046958    65A      3.065113
      66A      3.122109    67A      3.125802    68A      3.218061
      69A      3.358959    70A      3.377398    71A      3.398457
      72A      3.445325    73A      3.482466    74A      3.506896
      75A      3.583848    76A      3.755995    77A      3.768109
      78A      3.950487    79A      3.989776    80A      4.066292
      81A      4.120856    82A      4.124445    83A      4.199810
      84A      4.389751    85A      4.438790    86A      4.451328
      87A      4.540373    88A      4.921793    89A      5.054119
      90A      5.059688    91A      5.197814    92A      5.210987
      93A      5.476226    94A      5.485874    95A      5.841208
      96A      5.924582    97A      6.117833    98A      6.799146
      99A      6.801477   100A      7.076154   101A      7.164153
     102A      7.536413

    Final Occupation by Irrep:
              A
    DOCC [    11 ]
    SOCC [     1 ]

  @DF-UKS Final Energy:  -153.18827941076984

   => Energetics <=

    Nuclear Repulsion Energy =             62.6295952260445645
    One-Electron Energy =                -331.2715534992473181
    Two-Electron Energy =                 132.0287854974151003
    DFT Exchange-Correlation Energy =     -16.5751066349821770
    Empirical Dispersion Energy =           0.0000000000000000
    VV10 Nonlocal Energy =                  0.0000000000000000
    Total Energy =                       -153.1882794107698373

  UHF NO Occupations:
  HONO-2 :   10  A 1.9997869
  HONO-1 :   11  A 1.9991918
  HONO-0 :   12  A 1.0000000
  LUNO+0 :   13  A 0.0008082
  LUNO+1 :   14  A 0.0002131
  LUNO+2 :   15  A 0.0001840
  LUNO+3 :   16  A 0.0000621

Computation Completed

Properties will be evaluated at   0.000000,   0.000000,   0.000000 [a0]

Properties computed using the SCF density matrix

  Nuclear Dipole Moment: [e a0]
     X:     4.5475      Y:    -0.6715      Z:    -0.0000

  Electronic Dipole Moment: [e a0]
     X:    -3.6041      Y:     0.6247      Z:     0.0000

  Dipole Moment: [e a0]
     X:     0.9434      Y:    -0.0468      Z:    -0.0000     Total:     0.9446

  Dipole Moment: [D]
     X:     2.3980      Y:    -0.1190      Z:    -0.0000     Total:     2.4009

*** tstop() called on n077 at Thu Nov  4 14:54:46 2021
Module time:
	user time   =      44.12 seconds =       0.74 minutes
	system time =       0.52 seconds =       0.01 minutes
	total time  =         44 seconds =       0.73 minutes
Total time:
	user time   =      44.12 seconds =       0.74 minutes
	system time =       0.52 seconds =       0.01 minutes
	total time  =         44 seconds =       0.73 minutes
Grab this energy -153.18827941076984
    Psi4 stopped on: Thursday, 04 November 2021 02:54PM
    Psi4 wall time for execution: 0:00:44.68

*** Psi4 exiting successfully. Buy a developer a beer!
