                               Psi4 1.4a2.dev629

  ==> Input File <==

--------------------------------------------------------------------------
import os
memory 14 GB

molecule {
 C   -0.2602440023    0.8047641423    0.0000000104
 O   -2.1906394477   -0.3367030912    0.0000000071
 C    2.4123886183   -0.2446665394   -0.0000000170
 H    2.3860546793   -2.3044586869    0.0000000406
 H    3.3895188781    0.4755993139   -1.6641687822
 H    3.3895192243    0.4755994813    1.6641685610
units bohr
0 2
}

basis {

assign 6-31g_2dfp_

[ 6-31g_2dfp_ ]

spherical

!----------------------------------------------------------------------
! Basis Set Exchange
! Version v0.8.13
! https://www.basissetexchange.org
!----------------------------------------------------------------------
!   Basis set: 6-31G(2df,p)
! Description: 6-31G(2df,p)
!        Role: orbital
!     Version: 0  (Data from the original Basis Set Exchange)
!----------------------------------------------------------------------

****
H     0
S    3   1.00
     18.7311370              0.03349460
      2.8253937              0.23472695
      0.6401217              0.81375733
S    1   1.00
      0.1612778              1.00000000
P    1   1.00
      1.5000000              1.0000000
P    1   1.00
      0.3750000              1.0000000
****
B     0
S    6   1.00
   2068.8823000              0.0018663
    310.6495700              0.0142515
     70.6830330              0.0695516
     19.8610800              0.2325729
      6.2993048              0.4670787
      2.1270270              0.3634314
SP   3   1.00
      4.7279710             -0.1303938              0.0745976
      1.1903377             -0.1307889              0.3078467
      0.3594117              1.1309444              0.7434568
SP   1   1.00
      0.1267512              1.0000000              1.0000000
D    1   1.00
      0.8020000              1.0000000
D    1   1.00
      0.2005000              1.0000000
F    1   1.00
      0.5000000              1.0000000
****
C     0
S    6   1.00
   3047.5249000              0.0018347
    457.3695100              0.0140373
    103.9486900              0.0688426
     29.2101550              0.2321844
      9.2866630              0.4679413
      3.1639270              0.3623120
SP   3   1.00
      7.8682724             -0.1193324              0.0689991
      1.8812885             -0.1608542              0.3164240
      0.5442493              1.1434564              0.7443083
SP   1   1.00
      0.1687144              1.0000000              1.0000000
D    1   1.00
      1.2520000              1.0000000
D    1   1.00
      0.3130000              1.0000000
F    1   1.00
      0.8000000              1.0000000
****
N     0
S    6   1.00
   4173.5110000              0.0018348
    627.4579000              0.0139950
    142.9021000              0.0685870
     40.2343300              0.2322410
     12.8202100              0.4690700
      4.3904370              0.3604550
SP   3   1.00
     11.6263580             -0.1149610              0.0675800
      2.7162800             -0.1691180              0.3239070
      0.7722180              1.1458520              0.7408950
SP   1   1.00
      0.2120313              1.0000000              1.0000000
D    1   1.00
      1.8260000              1.0000000
D    1   1.00
      0.4565000              1.0000000
F    1   1.00
      1.0000000              1.0000000
****
O     0
S    6   1.00
   5484.6717000              0.0018311
    825.2349500              0.0139501
    188.0469600              0.0684451
     52.9645000              0.2327143
     16.8975700              0.4701930
      5.7996353              0.3585209
SP   3   1.00
     15.5396160             -0.1107775              0.0708743
      3.5999336             -0.1480263              0.3397528
      1.0137618              1.1307670              0.7271586
SP   1   1.00
      0.2700058              1.0000000              1.0000000
D    1   1.00
      2.5840000              1.0000000
D    1   1.00
      0.6460000              1.0000000
F    1   1.00
      1.4000000              1.0000000
****
F     0
S    6   1.00
   7001.7130900              0.0018196169
   1051.3660900              0.0139160796
    239.2856900              0.0684053245
     67.3974453              0.233185760
     21.5199573              0.471267439
      7.40310130             0.356618546
SP   3   1.00
     20.8479528             -0.108506975            0.0716287243
      4.80830834            -0.146451658            0.3459121030
      1.34406986             1.128688580            0.7224699570
SP   1   1.00
      0.358151393            1.0000000              1.0000000
D    1   1.00
      3.5000000              1.0000000
D    1   1.00
      0.8750000              1.0000000
F    1   1.00
      1.8500000              1.0000000
****
Al     0
S    6   1.00
  13983.1000000              0.00194267
   2098.7500000              0.0148599
    477.7050000              0.0728494
    134.3600000              0.2468300
     42.8709000              0.4872580
     14.5189000              0.3234960
SP   6   1.00
    239.6680000             -0.00292619             0.00460285
     57.4419000             -0.0374080              0.0331990
     18.2859000             -0.1144870              0.1362820
      6.5991400              0.1156350              0.3304760
      2.4904900              0.6125950              0.4491460
      0.9445400              0.3937990              0.2657040
SP   3   1.00
      1.2779000             -0.2276060             -0.0175130
      0.3975900              0.00144583             0.2445330
      0.1600950              1.0927900              0.8049340
SP   1   1.00
      0.0556577              1.0000000              1.0000000
D    1   1.00
      0.6500000              1.0000000
D    1   1.00
      0.1625000              1.0000000
F    1   1.00
      0.2500000              1.0000000
****
Si     0
S    6   1.00
  16115.9000000              0.00195948
   2425.5800000              0.01492880
    553.8670000              0.07284780
    156.3400000              0.24613000
     50.0683000              0.48591400
     17.0178000              0.32500200
SP   6   1.00
    292.7180000             -0.00278094             0.00443826
     69.8731000             -0.03571460             0.03266790
     22.3363000             -0.11498500             0.13472100
      8.1503900              0.09356340             0.32867800
      3.1345800              0.60301700             0.44964000
      1.2254300              0.41895900             0.26137200
SP   3   1.00
      1.7273800             -0.24463000            -0.01779510
      0.5729220              0.00431572             0.25353900
      0.2221920              1.09818000             0.80066900
SP   1   1.00
      0.0778369              1.00000000             1.00000000
D    1   1.00
      0.9000000              1.0000000
D    1   1.00
      0.2250000              1.0000000
F    1   1.00
      0.3200000              1.0000000
****
P     0
S    6   1.00
  19413.3000000              0.0018516
   2909.4200000              0.0142062
    661.3640000              0.0699995
    185.7590000              0.2400790
     59.1943000              0.4847620
     20.0310000              0.3352000
SP   6   1.00
    339.4780000             -0.00278217             0.00456462
     81.0101000             -0.0360499              0.03369360
     25.8780000             -0.1166310              0.13975500
      9.4522100              0.0968328              0.33936200
      3.6656600              0.6144180              0.45092100
      1.4674600              0.4037980              0.23858600
SP   3   1.00
      2.1562300             -0.2529230             -0.01776530
      0.7489970              0.0328517              0.27405800
      0.2831450              1.0812500              0.78542100
SP   1   1.00
      0.0998317              1.0000000              1.00000000
D    1   1.00
      1.1000000              1.0000000
D    1   1.00
      0.2750000              1.0000000
F    1   1.00
      0.4500000              1.0000000
****
S     0
S    6   1.00
  21917.1000000              0.0018690
   3301.4900000              0.0142300
    754.1460000              0.0696960
    212.7110000              0.2384870
     67.9896000              0.4833070
     23.0515000              0.3380740
SP   6   1.00
    423.7350000             -0.0023767              0.0040610
    100.7100000             -0.0316930              0.0306810
     32.1599000             -0.1133170              0.1304520
     11.8079000              0.0560900              0.3272050
      4.6311000              0.5922550              0.4528510
      1.8702500              0.4550060              0.2560420
SP   3   1.00
      2.6158400             -0.2503740             -0.0145110
      0.9221670              0.0669570              0.3102630
      0.3412870              1.0545100              0.7544830
SP   1   1.00
      0.1171670              1.0000000              1.0000000
D    1   1.00
      1.3000000              1.0000000
D    1   1.00
      0.3250000              1.0000000
F    1   1.00
      0.5500000              1.0000000
****
Cl     0
S    6   1.00
  25180.1000000              0.0018330
   3780.3500000              0.0140340
    860.4740000              0.0690970
    242.1450000              0.2374520
     77.3349000              0.4830340
     26.2470000              0.3398560
SP   6   1.00
    491.7650000             -0.0022974              0.0039894
    116.9840000             -0.0307140              0.0303180
     37.4153000             -0.1125280              0.1298800
     13.7834000              0.0450160              0.3279510
      5.4521500              0.5893530              0.4535270
      2.2258800              0.4652060              0.2521540
SP   3   1.00
      3.1864900             -0.2518300             -0.0142990
      1.1442700              0.0615890              0.3235720
      0.4203770              1.0601800              0.7435070
SP   1   1.00
      0.1426570              1.0000000              1.0000000
D    1   1.00
      1.5000000              1.0000000
D    1   1.00
      0.3750000              1.0000000
F    1   1.00
      0.7000000              1.0000000
****
}

set {
reference uhf
freeze_core true
e_convergence 10
d_convergence 10
dft_spherical_points 1202
dft_radial_points 99
}

e = energy('b3lyp')

print_out('Grab this energy {0}'.format(e))
--------------------------------------------------------------------------

    Molecular point group: c1

    Geometry (in Bohr), charge = 0, multiplicity = 2:

       Center              X                  Y                   Z               Mass
    ------------   -----------------  -----------------  -----------------  -----------------
         C           -0.260789220102     0.805420028195     0.000000013832    12.000000000000
         O           -2.191184665502    -0.336047205305     0.000000010532    15.994914619570
         C            2.411843400498    -0.244010653505    -0.000000013568    12.000000000000
         H            2.385509461498    -2.303802801005     0.000000044032     1.007825032230
         H            3.388973660298     0.476255199795    -1.664168778768     1.007825032230
         H            3.388974006498     0.476255367195     1.664168564432     1.007825032230

  Charge       = 0
  Multiplicity = 2
  Basis Set: ANONYMOUS967CF18C
    Blend: 6-31G_2DFP_
  Basis Set: (ANONYMOUS967CF18C AUX)
    Blend: DEF2-UNIVERSAL-JKFIT

    Orbital Energies [Eh]
    ---------------------

    Alpha Occupied:

       1A    -19.186920     2A    -10.271640     3A    -10.210329
       4A     -1.081242     5A     -0.761798     6A     -0.543781
       7A     -0.466602     8A     -0.457357     9A     -0.456140
      10A     -0.387520    11A     -0.386273    12A     -0.192213

    Alpha Virtual:

      13A     -0.018790    14A      0.091781    15A      0.137392
      16A      0.141087    17A      0.217115    18A      0.268086
      19A      0.427839    20A      0.431901    21A      0.443471
      22A      0.493707    23A      0.506388    24A      0.530677
      25A      0.563237    26A      0.577742    27A      0.608317
      28A      0.615581    29A      0.644101    30A      0.717671
      31A      0.766261    32A      0.785356    33A      0.832171
      34A      0.917335    35A      0.926947    36A      0.935783
      37A      1.023353    38A      1.085591    39A      1.107204
      40A      1.152828    41A      1.220546    42A      1.306031
      43A      1.315522    44A      1.327328    45A      1.404845
      46A      1.408759    47A      1.468220    48A      1.560290
      49A      1.630374    50A      1.653846    51A      1.721612
      52A      1.812812    53A      1.834249    54A      1.901037
      55A      2.065360    56A      2.165863    57A      2.495412
      58A      2.679808    59A      2.743407    60A      2.784381
      61A      2.842597    62A      2.894240    63A      2.972923
      64A      3.032376    65A      3.058752    66A      3.105456
      67A      3.113430    68A      3.182600    69A      3.313821
      70A      3.369975    71A      3.393143    72A      3.440579
      73A      3.464941    74A      3.485436    75A      3.572298
      76A      3.739061    77A      3.760409    78A      3.940743
      79A      3.983207    80A      4.054535    81A      4.110447
      82A      4.118654    83A      4.187698    84A      4.388254
      85A      4.434773    86A      4.451502    87A      4.531039
      88A      4.921849    89A      5.037056    90A      5.042135
      91A      5.198422    92A      5.208040    93A      5.473409
      94A      5.481733    95A      5.826454    96A      5.930163
      97A      6.103370    98A      6.770561    99A      6.772694
     100A      7.070655   101A      7.135101   102A      7.529692

    Beta Occupied:

       1A    -19.178853     2A    -10.261590     3A    -10.206935
       4A     -1.065317     5A     -0.749998     6A     -0.524025
       7A     -0.451595     8A     -0.447282     9A     -0.438603
      10A     -0.382345    11A     -0.347956

    Beta Virtual:

      12A     -0.052794    13A     -0.002507    14A      0.094481
      15A      0.143037    16A      0.144191    17A      0.227637
      18A      0.273783    19A      0.433877    20A      0.435181
      21A      0.465313    22A      0.500387    23A      0.527829
      24A      0.539634    25A      0.569619    26A      0.581931
      27A      0.622780    28A      0.626888    29A      0.649767
      30A      0.739593    31A      0.777404    32A      0.795343
      33A      0.832931    34A      0.922179    35A      0.943437
      36A      0.950985    37A      1.027552    38A      1.091778
      39A      1.109241    40A      1.159049    41A      1.229822
      42A      1.311640    43A      1.318288    44A      1.334108
      45A      1.414312    46A      1.415228    47A      1.480552
      48A      1.571350    49A      1.643718    50A      1.668239
      51A      1.727876    52A      1.815932    53A      1.848322
      54A      1.907693    55A      2.072087    56A      2.187254
      57A      2.508090    58A      2.694116    59A      2.757837
      60A      2.805523    61A      2.857932    62A      2.895854
      63A      2.982394    64A      3.049147    65A      3.067400
      66A      3.121858    67A      3.123974    68A      3.217290
      69A      3.357425    70A      3.381522    71A      3.399587
      72A      3.448758    73A      3.480710    74A      3.508467
      75A      3.585543    76A      3.764738    77A      3.769912
      78A      3.949429    79A      3.992515    80A      4.070960
      81A      4.121446    82A      4.124887    83A      4.199588
      84A      4.390611    85A      4.440939    86A      4.455551
      87A      4.541891    88A      4.925736    89A      5.054565
      90A      5.060149    91A      5.200577    92A      5.213746
      93A      5.486050    94A      5.495631    95A      5.839694
      96A      5.935750    97A      6.126561    98A      6.799855
      99A      6.802328   100A      7.074953   101A      7.164477
     102A      7.541357

    Final Occupation by Irrep:
              A
    DOCC [    11 ]
    SOCC [     1 ]

  @DF-UKS Final Energy:  -153.18841686799166

   => Energetics <=

    Nuclear Repulsion Energy =             62.7739624539432555
    One-Electron Energy =                -331.5483214942566974
    Two-Electron Energy =                 132.1663681198983511
    DFT Exchange-Correlation Energy =     -16.5804259475765434
    Empirical Dispersion Energy =           0.0000000000000000
    VV10 Nonlocal Energy =                  0.0000000000000000
    Total Energy =                       -153.1884168679916627

  UHF NO Occupations:
  HONO-2 :   10  A 1.9997825
  HONO-1 :   11  A 1.9992024
  HONO-0 :   12  A 1.0000000
  LUNO+0 :   13  A 0.0007976
  LUNO+1 :   14  A 0.0002175
  LUNO+2 :   15  A 0.0001795
  LUNO+3 :   16  A 0.0000616

Computation Completed

Properties will be evaluated at   0.000000,   0.000000,   0.000000 [a0]

Properties computed using the SCF density matrix

  Nuclear Dipole Moment: [e a0]
     X:     4.5403      Y:    -0.6712      Z:    -0.0000

  Electronic Dipole Moment: [e a0]
     X:    -3.6098      Y:     0.6219      Z:     0.0000

  Dipole Moment: [e a0]
     X:     0.9305      Y:    -0.0493      Z:    -0.0000     Total:     0.9318

  Dipole Moment: [D]
     X:     2.3652      Y:    -0.1254      Z:    -0.0000     Total:     2.3685

*** tstop() called on n070 at Thu Nov  4 14:45:59 2021
Module time:
	user time   =      51.73 seconds =       0.86 minutes
	system time =       0.61 seconds =       0.01 minutes
	total time  =         52 seconds =       0.87 minutes
Total time:
	user time   =      51.73 seconds =       0.86 minutes
	system time =       0.61 seconds =       0.01 minutes
	total time  =         52 seconds =       0.87 minutes
Grab this energy -153.18841686799166
    Psi4 stopped on: Thursday, 04 November 2021 02:45PM
    Psi4 wall time for execution: 0:00:52.43

*** Psi4 exiting successfully. Buy a developer a beer!
