                               Psi4 1.4a2.dev629

  ==> Input File <==

--------------------------------------------------------------------------
import os
memory 14 GB

molecule {
 C   -0.2590932359    0.8034825716    0.0000000005
 O   -2.1916088833   -0.3366826264    0.0000000099
 C    2.4105538434   -0.2446382103    0.0000000088
 H    2.3875713259   -2.2982074901    0.0000000304
 H    3.3895872757    0.4730901031   -1.6595537712
 H    3.3895876243    0.4730902723    1.6595535417
units bohr
0 2
}

basis {

assign 6-31g_2dfp_

[ 6-31g_2dfp_ ]

spherical

!----------------------------------------------------------------------
! Basis Set Exchange
! Version v0.8.13
! https://www.basissetexchange.org
!----------------------------------------------------------------------
!   Basis set: 6-31G(2df,p)
! Description: 6-31G(2df,p)
!        Role: orbital
!     Version: 0  (Data from the original Basis Set Exchange)
!----------------------------------------------------------------------

****
H     0
S    3   1.00
     18.7311370              0.03349460
      2.8253937              0.23472695
      0.6401217              0.81375733
S    1   1.00
      0.1612778              1.00000000
P    1   1.00
      1.5000000              1.0000000
P    1   1.00
      0.3750000              1.0000000
****
B     0
S    6   1.00
   2068.8823000              0.0018663
    310.6495700              0.0142515
     70.6830330              0.0695516
     19.8610800              0.2325729
      6.2993048              0.4670787
      2.1270270              0.3634314
SP   3   1.00
      4.7279710             -0.1303938              0.0745976
      1.1903377             -0.1307889              0.3078467
      0.3594117              1.1309444              0.7434568
SP   1   1.00
      0.1267512              1.0000000              1.0000000
D    1   1.00
      0.8020000              1.0000000
D    1   1.00
      0.2005000              1.0000000
F    1   1.00
      0.5000000              1.0000000
****
C     0
S    6   1.00
   3047.5249000              0.0018347
    457.3695100              0.0140373
    103.9486900              0.0688426
     29.2101550              0.2321844
      9.2866630              0.4679413
      3.1639270              0.3623120
SP   3   1.00
      7.8682724             -0.1193324              0.0689991
      1.8812885             -0.1608542              0.3164240
      0.5442493              1.1434564              0.7443083
SP   1   1.00
      0.1687144              1.0000000              1.0000000
D    1   1.00
      1.2520000              1.0000000
D    1   1.00
      0.3130000              1.0000000
F    1   1.00
      0.8000000              1.0000000
****
N     0
S    6   1.00
   4173.5110000              0.0018348
    627.4579000              0.0139950
    142.9021000              0.0685870
     40.2343300              0.2322410
     12.8202100              0.4690700
      4.3904370              0.3604550
SP   3   1.00
     11.6263580             -0.1149610              0.0675800
      2.7162800             -0.1691180              0.3239070
      0.7722180              1.1458520              0.7408950
SP   1   1.00
      0.2120313              1.0000000              1.0000000
D    1   1.00
      1.8260000              1.0000000
D    1   1.00
      0.4565000              1.0000000
F    1   1.00
      1.0000000              1.0000000
****
O     0
S    6   1.00
   5484.6717000              0.0018311
    825.2349500              0.0139501
    188.0469600              0.0684451
     52.9645000              0.2327143
     16.8975700              0.4701930
      5.7996353              0.3585209
SP   3   1.00
     15.5396160             -0.1107775              0.0708743
      3.5999336             -0.1480263              0.3397528
      1.0137618              1.1307670              0.7271586
SP   1   1.00
      0.2700058              1.0000000              1.0000000
D    1   1.00
      2.5840000              1.0000000
D    1   1.00
      0.6460000              1.0000000
F    1   1.00
      1.4000000              1.0000000
****
F     0
S    6   1.00
   7001.7130900              0.0018196169
   1051.3660900              0.0139160796
    239.2856900              0.0684053245
     67.3974453              0.233185760
     21.5199573              0.471267439
      7.40310130             0.356618546
SP   3   1.00
     20.8479528             -0.108506975            0.0716287243
      4.80830834            -0.146451658            0.3459121030
      1.34406986             1.128688580            0.7224699570
SP   1   1.00
      0.358151393            1.0000000              1.0000000
D    1   1.00
      3.5000000              1.0000000
D    1   1.00
      0.8750000              1.0000000
F    1   1.00
      1.8500000              1.0000000
****
Al     0
S    6   1.00
  13983.1000000              0.00194267
   2098.7500000              0.0148599
    477.7050000              0.0728494
    134.3600000              0.2468300
     42.8709000              0.4872580
     14.5189000              0.3234960
SP   6   1.00
    239.6680000             -0.00292619             0.00460285
     57.4419000             -0.0374080              0.0331990
     18.2859000             -0.1144870              0.1362820
      6.5991400              0.1156350              0.3304760
      2.4904900              0.6125950              0.4491460
      0.9445400              0.3937990              0.2657040
SP   3   1.00
      1.2779000             -0.2276060             -0.0175130
      0.3975900              0.00144583             0.2445330
      0.1600950              1.0927900              0.8049340
SP   1   1.00
      0.0556577              1.0000000              1.0000000
D    1   1.00
      0.6500000              1.0000000
D    1   1.00
      0.1625000              1.0000000
F    1   1.00
      0.2500000              1.0000000
****
Si     0
S    6   1.00
  16115.9000000              0.00195948
   2425.5800000              0.01492880
    553.8670000              0.07284780
    156.3400000              0.24613000
     50.0683000              0.48591400
     17.0178000              0.32500200
SP   6   1.00
    292.7180000             -0.00278094             0.00443826
     69.8731000             -0.03571460             0.03266790
     22.3363000             -0.11498500             0.13472100
      8.1503900              0.09356340             0.32867800
      3.1345800              0.60301700             0.44964000
      1.2254300              0.41895900             0.26137200
SP   3   1.00
      1.7273800             -0.24463000            -0.01779510
      0.5729220              0.00431572             0.25353900
      0.2221920              1.09818000             0.80066900
SP   1   1.00
      0.0778369              1.00000000             1.00000000
D    1   1.00
      0.9000000              1.0000000
D    1   1.00
      0.2250000              1.0000000
F    1   1.00
      0.3200000              1.0000000
****
P     0
S    6   1.00
  19413.3000000              0.0018516
   2909.4200000              0.0142062
    661.3640000              0.0699995
    185.7590000              0.2400790
     59.1943000              0.4847620
     20.0310000              0.3352000
SP   6   1.00
    339.4780000             -0.00278217             0.00456462
     81.0101000             -0.0360499              0.03369360
     25.8780000             -0.1166310              0.13975500
      9.4522100              0.0968328              0.33936200
      3.6656600              0.6144180              0.45092100
      1.4674600              0.4037980              0.23858600
SP   3   1.00
      2.1562300             -0.2529230             -0.01776530
      0.7489970              0.0328517              0.27405800
      0.2831450              1.0812500              0.78542100
SP   1   1.00
      0.0998317              1.0000000              1.00000000
D    1   1.00
      1.1000000              1.0000000
D    1   1.00
      0.2750000              1.0000000
F    1   1.00
      0.4500000              1.0000000
****
S     0
S    6   1.00
  21917.1000000              0.0018690
   3301.4900000              0.0142300
    754.1460000              0.0696960
    212.7110000              0.2384870
     67.9896000              0.4833070
     23.0515000              0.3380740
SP   6   1.00
    423.7350000             -0.0023767              0.0040610
    100.7100000             -0.0316930              0.0306810
     32.1599000             -0.1133170              0.1304520
     11.8079000              0.0560900              0.3272050
      4.6311000              0.5922550              0.4528510
      1.8702500              0.4550060              0.2560420
SP   3   1.00
      2.6158400             -0.2503740             -0.0145110
      0.9221670              0.0669570              0.3102630
      0.3412870              1.0545100              0.7544830
SP   1   1.00
      0.1171670              1.0000000              1.0000000
D    1   1.00
      1.3000000              1.0000000
D    1   1.00
      0.3250000              1.0000000
F    1   1.00
      0.5500000              1.0000000
****
Cl     0
S    6   1.00
  25180.1000000              0.0018330
   3780.3500000              0.0140340
    860.4740000              0.0690970
    242.1450000              0.2374520
     77.3349000              0.4830340
     26.2470000              0.3398560
SP   6   1.00
    491.7650000             -0.0022974              0.0039894
    116.9840000             -0.0307140              0.0303180
     37.4153000             -0.1125280              0.1298800
     13.7834000              0.0450160              0.3279510
      5.4521500              0.5893530              0.4535270
      2.2258800              0.4652060              0.2521540
SP   3   1.00
      3.1864900             -0.2518300             -0.0142990
      1.1442700              0.0615890              0.3235720
      0.4203770              1.0601800              0.7435070
SP   1   1.00
      0.1426570              1.0000000              1.0000000
D    1   1.00
      1.5000000              1.0000000
D    1   1.00
      0.3750000              1.0000000
F    1   1.00
      0.7000000              1.0000000
****
}

set {
reference uhf
freeze_core true
e_convergence 10
d_convergence 10
dft_spherical_points 1202
dft_radial_points 99
}

e = energy('b3lyp')

print_out('Grab this energy {0}'.format(e))
--------------------------------------------------------------------------

    Molecular point group: c1

    Geometry (in Bohr), charge = 0, multiplicity = 2:

       Center              X                  Y                   Z               Mass
    ------------   -----------------  -----------------  -----------------  -----------------
         C           -0.259125934304     0.804451559474    -0.000000001111    12.000000000000
         O           -2.191641581704    -0.335713638526     0.000000008289    15.994914619570
         C            2.410521144996    -0.243669222426     0.000000007189    12.000000000000
         H            2.387538627496    -2.297238502226     0.000000028789     1.007825032230
         H            3.389554577296     0.474059090974    -1.659553772811     1.007825032230
         H            3.389554925896     0.474059260174     1.659553540089     1.007825032230

  Charge       = 0
  Multiplicity = 2
  Basis Set: ANONYMOUSB39B1D5E
    Blend: 6-31G_2DFP_
  Basis Set: (ANONYMOUSB39B1D5E AUX)
    Blend: DEF2-UNIVERSAL-JKFIT

    Orbital Energies [Eh]
    ---------------------

    Alpha Occupied:

       1A    -19.186844     2A    -10.271633     3A    -10.209617
       4A     -1.080842     5A     -0.762586     6A     -0.544189
       7A     -0.466864     8A     -0.457699     9A     -0.456306
      10A     -0.387346    11A     -0.386363    12A     -0.192203

    Alpha Virtual:

      13A     -0.018950    14A      0.092174    15A      0.138142
      16A      0.141571    17A      0.217598    18A      0.268040
      19A      0.427924    20A      0.432008    21A      0.443721
      22A      0.493987    23A      0.506459    24A      0.531122
      25A      0.563386    26A      0.579203    27A      0.608369
      28A      0.616081    29A      0.644878    30A      0.717952
      31A      0.766429    32A      0.785288    33A      0.833721
      34A      0.917600    35A      0.927164    36A      0.936313
      37A      1.023712    38A      1.086022    39A      1.109006
      40A      1.153364    41A      1.221414    42A      1.306494
      43A      1.317354    44A      1.328368    45A      1.405390
      46A      1.409169    47A      1.469123    48A      1.560810
      49A      1.631458    50A      1.653849    51A      1.724029
      52A      1.814542    53A      1.835693    54A      1.904327
      55A      2.066092    56A      2.166443    57A      2.494635
      58A      2.680367    59A      2.744165    60A      2.786267
      61A      2.844140    62A      2.895294    63A      2.974223
      64A      3.031708    65A      3.057977    66A      3.105535
      67A      3.114839    68A      3.182046    69A      3.314412
      70A      3.367631    71A      3.390811    72A      3.440550
      73A      3.465199    74A      3.485063    75A      3.572622
      76A      3.738654    77A      3.763316    78A      3.945902
      79A      3.984925    80A      4.055739    81A      4.114481
      82A      4.124856    83A      4.192893    84A      4.390291
      85A      4.436521    86A      4.455945    87A      4.537832
      88A      4.922224    89A      5.037317    90A      5.042261
      91A      5.205354    92A      5.217227    93A      5.472777
      94A      5.482172    95A      5.827024    96A      5.929538
      97A      6.103627    98A      6.770644    99A      6.772755
     100A      7.071273   101A      7.135161   102A      7.529467

    Beta Occupied:

       1A    -19.178771     2A    -10.261567     3A    -10.206243
       4A     -1.064895     5A     -0.750839     6A     -0.524402
       7A     -0.451776     8A     -0.447857     9A     -0.438809
      10A     -0.382155    11A     -0.347862

    Beta Virtual:

      12A     -0.052652    13A     -0.002656    14A      0.094851
      15A      0.143783    16A      0.144666    17A      0.228019
      18A      0.273740    19A      0.433986    20A      0.435154
      21A      0.465689    22A      0.500688    23A      0.527905
      24A      0.540099    25A      0.569775    26A      0.583421
      27A      0.623254    28A      0.627046    29A      0.650488
      30A      0.739839    31A      0.777580    32A      0.795308
      33A      0.834488    34A      0.922437    35A      0.943818
      36A      0.951322    37A      1.027904    38A      1.092109
      39A      1.111058    40A      1.159566    41A      1.230706
      42A      1.312237    43A      1.320124    44A      1.335108
      45A      1.414731    46A      1.415794    47A      1.481455
      48A      1.571822    49A      1.644872    50A      1.668220
      51A      1.730386    52A      1.817691    53A      1.849625
      54A      1.910943    55A      2.072834    56A      2.187871
      57A      2.507321    58A      2.694662    59A      2.758651
      60A      2.807445    61A      2.859573    62A      2.896911
      63A      2.983652    64A      3.048348    65A      3.066497
      66A      3.123271    67A      3.124112    68A      3.216722
      69A      3.358100    70A      3.379117    71A      3.397103
      72A      3.448583    73A      3.481153    74A      3.508261
      75A      3.585849    76A      3.764495    77A      3.772836
      78A      3.954457    79A      3.994227    80A      4.072174
      81A      4.127631    82A      4.129462    83A      4.204213
      84A      4.392590    85A      4.442665    86A      4.460079
      87A      4.548668    88A      4.926088    89A      5.054883
      90A      5.060280    91A      5.207576    92A      5.222885
      93A      5.485431    94A      5.496016    95A      5.840277
      96A      5.935130    97A      6.126836    98A      6.799950
      99A      6.802403   100A      7.075578   101A      7.164564
     102A      7.541143

    Final Occupation by Irrep:
              A
    DOCC [    11 ]
    SOCC [     1 ]

  @DF-UKS Final Energy:  -153.18838012948538

   => Energetics <=

    Nuclear Repulsion Energy =             62.8054245106801829
    One-Electron Energy =                -331.6083267543295960
    Two-Electron Energy =                 132.1971000465875647
    DFT Exchange-Correlation Energy =     -16.5825779324235079
    Empirical Dispersion Energy =           0.0000000000000000
    VV10 Nonlocal Energy =                  0.0000000000000000
    Total Energy =                       -153.1883801294853811

  UHF NO Occupations:
  HONO-2 :   10  A 1.9997855
  HONO-1 :   11  A 1.9992008
  HONO-0 :   12  A 1.0000000
  LUNO+0 :   13  A 0.0007992
  LUNO+1 :   14  A 0.0002145
  LUNO+2 :   15  A 0.0001803
  LUNO+3 :   16  A 0.0000617

Computation Completed

Properties will be evaluated at   0.000000,   0.000000,   0.000000 [a0]

Properties computed using the SCF density matrix

  Nuclear Dipole Moment: [e a0]
     X:     4.5419      Y:    -0.6701      Z:    -0.0000

  Electronic Dipole Moment: [e a0]
     X:    -3.6082      Y:     0.6203      Z:     0.0000

  Dipole Moment: [e a0]
     X:     0.9336      Y:    -0.0498      Z:    -0.0000     Total:     0.9350

  Dipole Moment: [D]
     X:     2.3731      Y:    -0.1266      Z:    -0.0000     Total:     2.3765

*** tstop() called on n021 at Thu Nov  4 14:51:21 2021
Module time:
	user time   =      62.61 seconds =       1.04 minutes
	system time =       0.48 seconds =       0.01 minutes
	total time  =         63 seconds =       1.05 minutes
Total time:
	user time   =      62.61 seconds =       1.04 minutes
	system time =       0.48 seconds =       0.01 minutes
	total time  =         63 seconds =       1.05 minutes
Grab this energy -153.18838012948538
    Psi4 stopped on: Thursday, 04 November 2021 02:51PM
    Psi4 wall time for execution: 0:01:03.14

*** Psi4 exiting successfully. Buy a developer a beer!
