                               Psi4 1.4a2.dev629

  ==> Input File <==

--------------------------------------------------------------------------
import os
memory 14 GB

molecule {
 C   -0.2569510948    0.8025066556   -0.0041307058
 O   -2.1856147092   -0.3325776657    0.0028070448
 C    2.4086819319   -0.2420352326   -0.0012608002
 H    2.3913501487   -2.3067578827    0.0004427473
 H    3.3845042973    0.4756907985   -1.6628848530
 H    3.3846273762    0.4733079468    1.6650263869
units bohr
0 2
}

basis {

assign 6-31g_2dfp_

[ 6-31g_2dfp_ ]

spherical

!----------------------------------------------------------------------
! Basis Set Exchange
! Version v0.8.13
! https://www.basissetexchange.org
!----------------------------------------------------------------------
!   Basis set: 6-31G(2df,p)
! Description: 6-31G(2df,p)
!        Role: orbital
!     Version: 0  (Data from the original Basis Set Exchange)
!----------------------------------------------------------------------

****
H     0
S    3   1.00
     18.7311370              0.03349460
      2.8253937              0.23472695
      0.6401217              0.81375733
S    1   1.00
      0.1612778              1.00000000
P    1   1.00
      1.5000000              1.0000000
P    1   1.00
      0.3750000              1.0000000
****
B     0
S    6   1.00
   2068.8823000              0.0018663
    310.6495700              0.0142515
     70.6830330              0.0695516
     19.8610800              0.2325729
      6.2993048              0.4670787
      2.1270270              0.3634314
SP   3   1.00
      4.7279710             -0.1303938              0.0745976
      1.1903377             -0.1307889              0.3078467
      0.3594117              1.1309444              0.7434568
SP   1   1.00
      0.1267512              1.0000000              1.0000000
D    1   1.00
      0.8020000              1.0000000
D    1   1.00
      0.2005000              1.0000000
F    1   1.00
      0.5000000              1.0000000
****
C     0
S    6   1.00
   3047.5249000              0.0018347
    457.3695100              0.0140373
    103.9486900              0.0688426
     29.2101550              0.2321844
      9.2866630              0.4679413
      3.1639270              0.3623120
SP   3   1.00
      7.8682724             -0.1193324              0.0689991
      1.8812885             -0.1608542              0.3164240
      0.5442493              1.1434564              0.7443083
SP   1   1.00
      0.1687144              1.0000000              1.0000000
D    1   1.00
      1.2520000              1.0000000
D    1   1.00
      0.3130000              1.0000000
F    1   1.00
      0.8000000              1.0000000
****
N     0
S    6   1.00
   4173.5110000              0.0018348
    627.4579000              0.0139950
    142.9021000              0.0685870
     40.2343300              0.2322410
     12.8202100              0.4690700
      4.3904370              0.3604550
SP   3   1.00
     11.6263580             -0.1149610              0.0675800
      2.7162800             -0.1691180              0.3239070
      0.7722180              1.1458520              0.7408950
SP   1   1.00
      0.2120313              1.0000000              1.0000000
D    1   1.00
      1.8260000              1.0000000
D    1   1.00
      0.4565000              1.0000000
F    1   1.00
      1.0000000              1.0000000
****
O     0
S    6   1.00
   5484.6717000              0.0018311
    825.2349500              0.0139501
    188.0469600              0.0684451
     52.9645000              0.2327143
     16.8975700              0.4701930
      5.7996353              0.3585209
SP   3   1.00
     15.5396160             -0.1107775              0.0708743
      3.5999336             -0.1480263              0.3397528
      1.0137618              1.1307670              0.7271586
SP   1   1.00
      0.2700058              1.0000000              1.0000000
D    1   1.00
      2.5840000              1.0000000
D    1   1.00
      0.6460000              1.0000000
F    1   1.00
      1.4000000              1.0000000
****
F     0
S    6   1.00
   7001.7130900              0.0018196169
   1051.3660900              0.0139160796
    239.2856900              0.0684053245
     67.3974453              0.233185760
     21.5199573              0.471267439
      7.40310130             0.356618546
SP   3   1.00
     20.8479528             -0.108506975            0.0716287243
      4.80830834            -0.146451658            0.3459121030
      1.34406986             1.128688580            0.7224699570
SP   1   1.00
      0.358151393            1.0000000              1.0000000
D    1   1.00
      3.5000000              1.0000000
D    1   1.00
      0.8750000              1.0000000
F    1   1.00
      1.8500000              1.0000000
****
Al     0
S    6   1.00
  13983.1000000              0.00194267
   2098.7500000              0.0148599
    477.7050000              0.0728494
    134.3600000              0.2468300
     42.8709000              0.4872580
     14.5189000              0.3234960
SP   6   1.00
    239.6680000             -0.00292619             0.00460285
     57.4419000             -0.0374080              0.0331990
     18.2859000             -0.1144870              0.1362820
      6.5991400              0.1156350              0.3304760
      2.4904900              0.6125950              0.4491460
      0.9445400              0.3937990              0.2657040
SP   3   1.00
      1.2779000             -0.2276060             -0.0175130
      0.3975900              0.00144583             0.2445330
      0.1600950              1.0927900              0.8049340
SP   1   1.00
      0.0556577              1.0000000              1.0000000
D    1   1.00
      0.6500000              1.0000000
D    1   1.00
      0.1625000              1.0000000
F    1   1.00
      0.2500000              1.0000000
****
Si     0
S    6   1.00
  16115.9000000              0.00195948
   2425.5800000              0.01492880
    553.8670000              0.07284780
    156.3400000              0.24613000
     50.0683000              0.48591400
     17.0178000              0.32500200
SP   6   1.00
    292.7180000             -0.00278094             0.00443826
     69.8731000             -0.03571460             0.03266790
     22.3363000             -0.11498500             0.13472100
      8.1503900              0.09356340             0.32867800
      3.1345800              0.60301700             0.44964000
      1.2254300              0.41895900             0.26137200
SP   3   1.00
      1.7273800             -0.24463000            -0.01779510
      0.5729220              0.00431572             0.25353900
      0.2221920              1.09818000             0.80066900
SP   1   1.00
      0.0778369              1.00000000             1.00000000
D    1   1.00
      0.9000000              1.0000000
D    1   1.00
      0.2250000              1.0000000
F    1   1.00
      0.3200000              1.0000000
****
P     0
S    6   1.00
  19413.3000000              0.0018516
   2909.4200000              0.0142062
    661.3640000              0.0699995
    185.7590000              0.2400790
     59.1943000              0.4847620
     20.0310000              0.3352000
SP   6   1.00
    339.4780000             -0.00278217             0.00456462
     81.0101000             -0.0360499              0.03369360
     25.8780000             -0.1166310              0.13975500
      9.4522100              0.0968328              0.33936200
      3.6656600              0.6144180              0.45092100
      1.4674600              0.4037980              0.23858600
SP   3   1.00
      2.1562300             -0.2529230             -0.01776530
      0.7489970              0.0328517              0.27405800
      0.2831450              1.0812500              0.78542100
SP   1   1.00
      0.0998317              1.0000000              1.00000000
D    1   1.00
      1.1000000              1.0000000
D    1   1.00
      0.2750000              1.0000000
F    1   1.00
      0.4500000              1.0000000
****
S     0
S    6   1.00
  21917.1000000              0.0018690
   3301.4900000              0.0142300
    754.1460000              0.0696960
    212.7110000              0.2384870
     67.9896000              0.4833070
     23.0515000              0.3380740
SP   6   1.00
    423.7350000             -0.0023767              0.0040610
    100.7100000             -0.0316930              0.0306810
     32.1599000             -0.1133170              0.1304520
     11.8079000              0.0560900              0.3272050
      4.6311000              0.5922550              0.4528510
      1.8702500              0.4550060              0.2560420
SP   3   1.00
      2.6158400             -0.2503740             -0.0145110
      0.9221670              0.0669570              0.3102630
      0.3412870              1.0545100              0.7544830
SP   1   1.00
      0.1171670              1.0000000              1.0000000
D    1   1.00
      1.3000000              1.0000000
D    1   1.00
      0.3250000              1.0000000
F    1   1.00
      0.5500000              1.0000000
****
Cl     0
S    6   1.00
  25180.1000000              0.0018330
   3780.3500000              0.0140340
    860.4740000              0.0690970
    242.1450000              0.2374520
     77.3349000              0.4830340
     26.2470000              0.3398560
SP   6   1.00
    491.7650000             -0.0022974              0.0039894
    116.9840000             -0.0307140              0.0303180
     37.4153000             -0.1125280              0.1298800
     13.7834000              0.0450160              0.3279510
      5.4521500              0.5893530              0.4535270
      2.2258800              0.4652060              0.2521540
SP   3   1.00
      3.1864900             -0.2518300             -0.0142990
      1.1442700              0.0615890              0.3235720
      0.4203770              1.0601800              0.7435070
SP   1   1.00
      0.1426570              1.0000000              1.0000000
D    1   1.00
      1.5000000              1.0000000
D    1   1.00
      0.3750000              1.0000000
F    1   1.00
      0.7000000              1.0000000
****
}

set {
reference uhf
freeze_core true
e_convergence 10
d_convergence 10
dft_spherical_points 1202
dft_radial_points 99
}

e = energy('b3lyp')

print_out('Grab this energy {0}'.format(e))
--------------------------------------------------------------------------

    Molecular point group: c1

    Geometry (in Bohr), charge = 0, multiplicity = 2:

       Center              X                  Y                   Z               Mass
    ------------   -----------------  -----------------  -----------------  -----------------
         C           -0.259141141164     0.801629773351    -0.003730990076    12.000000000000
         O           -2.187804755564    -0.333454547949     0.003206760524    15.994914619570
         C            2.406491885536    -0.242912114849    -0.000861084476    12.000000000000
         H            2.389160102336    -2.307634764949     0.000842463024     1.007825032230
         H            3.382314250936     0.474813916251    -1.662485137276     1.007825032230
         H            3.382437329836     0.472431064551     1.665426102624     1.007825032230

  Charge       = 0
  Multiplicity = 2
  Basis Set: ANONYMOUSD124F799
    Blend: 6-31G_2DFP_
  Basis Set: (ANONYMOUSD124F799 AUX)
    Blend: DEF2-UNIVERSAL-JKFIT

    Orbital Energies [Eh]
    ---------------------

    Alpha Occupied:

       1A    -19.186705     2A    -10.270880     3A    -10.209936
       4A     -1.082512     5A     -0.762416     6A     -0.543774
       7A     -0.466872     8A     -0.457815     9A     -0.456962
      10A     -0.387990    11A     -0.386116    12A     -0.191434

    Alpha Virtual:

      13A     -0.017991    14A      0.091922    15A      0.136884
      16A      0.141555    17A      0.218881    18A      0.268576
      19A      0.428392    20A      0.431447    21A      0.444318
      22A      0.493844    23A      0.506173    24A      0.530320
      25A      0.563323    26A      0.577751    27A      0.610399
      28A      0.616248    29A      0.644698    30A      0.718049
      31A      0.766213    32A      0.785851    33A      0.832482
      34A      0.917180    35A      0.926632    36A      0.935576
      37A      1.025080    38A      1.087876    39A      1.107414
      40A      1.152905    41A      1.223650    42A      1.307222
      43A      1.317544    44A      1.327755    45A      1.403247
      46A      1.408785    47A      1.469212    48A      1.559962
      49A      1.632364    50A      1.654953    51A      1.721288
      52A      1.814872    53A      1.836010    54A      1.902484
      55A      2.067019    56A      2.168444    57A      2.499146
      58A      2.681244    59A      2.745245    60A      2.784503
      61A      2.842989    62A      2.894599    63A      2.974986
      64A      3.031280    65A      3.059130    66A      3.103489
      67A      3.116648    68A      3.181525    69A      3.314091
      70A      3.370282    71A      3.393692    72A      3.441691
      73A      3.465925    74A      3.486424    75A      3.570914
      76A      3.743645    77A      3.766058    78A      3.944151
      79A      3.986921    80A      4.060293    81A      4.111291
      82A      4.120934    83A      4.189234    84A      4.391658
      85A      4.437420    86A      4.450150    87A      4.536235
      88A      4.920504    89A      5.037480    90A      5.042621
      91A      5.200523    92A      5.208690    93A      5.477886
      94A      5.487088    95A      5.826430    96A      5.935044
      97A      6.108788    98A      6.771169    99A      6.773367
     100A      7.071264   101A      7.135404   102A      7.531956

    Beta Occupied:

       1A    -19.178635     2A    -10.260830     3A    -10.206566
       4A     -1.066608     5A     -0.750617     6A     -0.524123
       7A     -0.452423     8A     -0.446947     9A     -0.439290
      10A     -0.382824    11A     -0.348149

    Beta Virtual:

      12A     -0.051971    13A     -0.001717    14A      0.094638
      15A      0.142641    16A      0.144666    17A      0.229195
      18A      0.274206    19A      0.433402    20A      0.435560
      21A      0.466478    22A      0.500566    23A      0.527518
      24A      0.539238    25A      0.569700    26A      0.581945
      27A      0.623424    28A      0.628677    29A      0.650663
      30A      0.740197    31A      0.777299    32A      0.795763
      33A      0.833271    34A      0.922033    35A      0.943190
      36A      0.950713    37A      1.029313    38A      1.094046
      39A      1.109444    40A      1.159119    41A      1.232863
      42A      1.312839    43A      1.320390    44A      1.334524
      45A      1.413591    46A      1.414305    47A      1.481587
      48A      1.571044    49A      1.645712    50A      1.669364
      51A      1.727583    52A      1.818006    53A      1.850150
      54A      1.909234    55A      2.073746    56A      2.189876
      57A      2.511837    58A      2.695558    59A      2.759690
      60A      2.805557    61A      2.858212    62A      2.896272
      63A      2.984585    64A      3.048102    65A      3.067769
      66A      3.122144    67A      3.124997    68A      3.216097
      69A      3.357636    70A      3.381500    71A      3.399944
      72A      3.449914    73A      3.481596    74A      3.509980
      75A      3.583962    76A      3.769242    77A      3.775590
      78A      3.952836    79A      3.996233    80A      4.076641
      81A      4.123769    82A      4.125864    83A      4.200891
      84A      4.393901    85A      4.443635    86A      4.454360
      87A      4.547179    88A      4.924429    89A      5.054977
      90A      5.060644    91A      5.202701    92A      5.214437
      93A      5.490487    94A      5.500992    95A      5.839692
      96A      5.940639    97A      6.131992    98A      6.800470
      99A      6.803013   100A      7.075568   101A      7.164789
     102A      7.543615

    Final Occupation by Irrep:
              A
    DOCC [    11 ]
    SOCC [     1 ]

  @DF-UKS Final Energy:  -153.18845155446891

   => Energetics <=

    Nuclear Repulsion Energy =             62.8838557894638015
    One-Electron Energy =                -331.7620204747718162
    Two-Electron Energy =                 132.2731555975210824
    DFT Exchange-Correlation Energy =     -16.5834424666819693
    Empirical Dispersion Energy =           0.0000000000000000
    VV10 Nonlocal Energy =                  0.0000000000000000
    Total Energy =                       -153.1884515544689123

  UHF NO Occupations:
  HONO-2 :   10  A 1.9997861
  HONO-1 :   11  A 1.9992039
  HONO-0 :   12  A 1.0000000
  LUNO+0 :   13  A 0.0007961
  LUNO+1 :   14  A 0.0002139
  LUNO+2 :   15  A 0.0001782
  LUNO+3 :   16  A 0.0000614

Computation Completed

Properties will be evaluated at   0.000000,   0.000000,   0.000000 [a0]

Properties computed using the SCF density matrix

  Nuclear Dipole Moment: [e a0]
     X:     4.5356      Y:    -0.6757      Z:     0.0019

  Electronic Dipole Moment: [e a0]
     X:    -3.6075      Y:     0.6260      Z:    -0.0019

  Dipole Moment: [e a0]
     X:     0.9281      Y:    -0.0497      Z:     0.0000     Total:     0.9294

  Dipole Moment: [D]
     X:     2.3589      Y:    -0.1263      Z:     0.0000     Total:     2.3623

*** tstop() called on n045 at Thu Nov  4 14:53:36 2021
Module time:
	user time   =      62.65 seconds =       1.04 minutes
	system time =       0.41 seconds =       0.01 minutes
	total time  =         63 seconds =       1.05 minutes
Total time:
	user time   =      62.65 seconds =       1.04 minutes
	system time =       0.41 seconds =       0.01 minutes
	total time  =         63 seconds =       1.05 minutes
Grab this energy -153.1884515544689
    Psi4 stopped on: Thursday, 04 November 2021 02:53PM
    Psi4 wall time for execution: 0:01:03.10

*** Psi4 exiting successfully. Buy a developer a beer!
