                               Psi4 1.4a2.dev629

  ==> Input File <==

--------------------------------------------------------------------------
import os
memory 14 GB

molecule {
 C   -0.2567666114    0.8104224557   -0.0000000000
 O   -2.1792836393   -0.3404473089   -0.0000000000
 C    2.4075801967   -0.2426065731   -0.0000000000
 H    2.3728309626   -2.3116106664   -0.0000000000
 H    3.3901385368    0.4693038702   -1.6589875490
 H    3.3901385368    0.4693038702    1.6589875490
units bohr
0 2
}

basis {

assign 6-31g_2dfp_

[ 6-31g_2dfp_ ]

spherical

!----------------------------------------------------------------------
! Basis Set Exchange
! Version v0.8.13
! https://www.basissetexchange.org
!----------------------------------------------------------------------
!   Basis set: 6-31G(2df,p)
! Description: 6-31G(2df,p)
!        Role: orbital
!     Version: 0  (Data from the original Basis Set Exchange)
!----------------------------------------------------------------------

****
H     0
S    3   1.00
     18.7311370              0.03349460
      2.8253937              0.23472695
      0.6401217              0.81375733
S    1   1.00
      0.1612778              1.00000000
P    1   1.00
      1.5000000              1.0000000
P    1   1.00
      0.3750000              1.0000000
****
B     0
S    6   1.00
   2068.8823000              0.0018663
    310.6495700              0.0142515
     70.6830330              0.0695516
     19.8610800              0.2325729
      6.2993048              0.4670787
      2.1270270              0.3634314
SP   3   1.00
      4.7279710             -0.1303938              0.0745976
      1.1903377             -0.1307889              0.3078467
      0.3594117              1.1309444              0.7434568
SP   1   1.00
      0.1267512              1.0000000              1.0000000
D    1   1.00
      0.8020000              1.0000000
D    1   1.00
      0.2005000              1.0000000
F    1   1.00
      0.5000000              1.0000000
****
C     0
S    6   1.00
   3047.5249000              0.0018347
    457.3695100              0.0140373
    103.9486900              0.0688426
     29.2101550              0.2321844
      9.2866630              0.4679413
      3.1639270              0.3623120
SP   3   1.00
      7.8682724             -0.1193324              0.0689991
      1.8812885             -0.1608542              0.3164240
      0.5442493              1.1434564              0.7443083
SP   1   1.00
      0.1687144              1.0000000              1.0000000
D    1   1.00
      1.2520000              1.0000000
D    1   1.00
      0.3130000              1.0000000
F    1   1.00
      0.8000000              1.0000000
****
N     0
S    6   1.00
   4173.5110000              0.0018348
    627.4579000              0.0139950
    142.9021000              0.0685870
     40.2343300              0.2322410
     12.8202100              0.4690700
      4.3904370              0.3604550
SP   3   1.00
     11.6263580             -0.1149610              0.0675800
      2.7162800             -0.1691180              0.3239070
      0.7722180              1.1458520              0.7408950
SP   1   1.00
      0.2120313              1.0000000              1.0000000
D    1   1.00
      1.8260000              1.0000000
D    1   1.00
      0.4565000              1.0000000
F    1   1.00
      1.0000000              1.0000000
****
O     0
S    6   1.00
   5484.6717000              0.0018311
    825.2349500              0.0139501
    188.0469600              0.0684451
     52.9645000              0.2327143
     16.8975700              0.4701930
      5.7996353              0.3585209
SP   3   1.00
     15.5396160             -0.1107775              0.0708743
      3.5999336             -0.1480263              0.3397528
      1.0137618              1.1307670              0.7271586
SP   1   1.00
      0.2700058              1.0000000              1.0000000
D    1   1.00
      2.5840000              1.0000000
D    1   1.00
      0.6460000              1.0000000
F    1   1.00
      1.4000000              1.0000000
****
F     0
S    6   1.00
   7001.7130900              0.0018196169
   1051.3660900              0.0139160796
    239.2856900              0.0684053245
     67.3974453              0.233185760
     21.5199573              0.471267439
      7.40310130             0.356618546
SP   3   1.00
     20.8479528             -0.108506975            0.0716287243
      4.80830834            -0.146451658            0.3459121030
      1.34406986             1.128688580            0.7224699570
SP   1   1.00
      0.358151393            1.0000000              1.0000000
D    1   1.00
      3.5000000              1.0000000
D    1   1.00
      0.8750000              1.0000000
F    1   1.00
      1.8500000              1.0000000
****
Al     0
S    6   1.00
  13983.1000000              0.00194267
   2098.7500000              0.0148599
    477.7050000              0.0728494
    134.3600000              0.2468300
     42.8709000              0.4872580
     14.5189000              0.3234960
SP   6   1.00
    239.6680000             -0.00292619             0.00460285
     57.4419000             -0.0374080              0.0331990
     18.2859000             -0.1144870              0.1362820
      6.5991400              0.1156350              0.3304760
      2.4904900              0.6125950              0.4491460
      0.9445400              0.3937990              0.2657040
SP   3   1.00
      1.2779000             -0.2276060             -0.0175130
      0.3975900              0.00144583             0.2445330
      0.1600950              1.0927900              0.8049340
SP   1   1.00
      0.0556577              1.0000000              1.0000000
D    1   1.00
      0.6500000              1.0000000
D    1   1.00
      0.1625000              1.0000000
F    1   1.00
      0.2500000              1.0000000
****
Si     0
S    6   1.00
  16115.9000000              0.00195948
   2425.5800000              0.01492880
    553.8670000              0.07284780
    156.3400000              0.24613000
     50.0683000              0.48591400
     17.0178000              0.32500200
SP   6   1.00
    292.7180000             -0.00278094             0.00443826
     69.8731000             -0.03571460             0.03266790
     22.3363000             -0.11498500             0.13472100
      8.1503900              0.09356340             0.32867800
      3.1345800              0.60301700             0.44964000
      1.2254300              0.41895900             0.26137200
SP   3   1.00
      1.7273800             -0.24463000            -0.01779510
      0.5729220              0.00431572             0.25353900
      0.2221920              1.09818000             0.80066900
SP   1   1.00
      0.0778369              1.00000000             1.00000000
D    1   1.00
      0.9000000              1.0000000
D    1   1.00
      0.2250000              1.0000000
F    1   1.00
      0.3200000              1.0000000
****
P     0
S    6   1.00
  19413.3000000              0.0018516
   2909.4200000              0.0142062
    661.3640000              0.0699995
    185.7590000              0.2400790
     59.1943000              0.4847620
     20.0310000              0.3352000
SP   6   1.00
    339.4780000             -0.00278217             0.00456462
     81.0101000             -0.0360499              0.03369360
     25.8780000             -0.1166310              0.13975500
      9.4522100              0.0968328              0.33936200
      3.6656600              0.6144180              0.45092100
      1.4674600              0.4037980              0.23858600
SP   3   1.00
      2.1562300             -0.2529230             -0.01776530
      0.7489970              0.0328517              0.27405800
      0.2831450              1.0812500              0.78542100
SP   1   1.00
      0.0998317              1.0000000              1.00000000
D    1   1.00
      1.1000000              1.0000000
D    1   1.00
      0.2750000              1.0000000
F    1   1.00
      0.4500000              1.0000000
****
S     0
S    6   1.00
  21917.1000000              0.0018690
   3301.4900000              0.0142300
    754.1460000              0.0696960
    212.7110000              0.2384870
     67.9896000              0.4833070
     23.0515000              0.3380740
SP   6   1.00
    423.7350000             -0.0023767              0.0040610
    100.7100000             -0.0316930              0.0306810
     32.1599000             -0.1133170              0.1304520
     11.8079000              0.0560900              0.3272050
      4.6311000              0.5922550              0.4528510
      1.8702500              0.4550060              0.2560420
SP   3   1.00
      2.6158400             -0.2503740             -0.0145110
      0.9221670              0.0669570              0.3102630
      0.3412870              1.0545100              0.7544830
SP   1   1.00
      0.1171670              1.0000000              1.0000000
D    1   1.00
      1.3000000              1.0000000
D    1   1.00
      0.3250000              1.0000000
F    1   1.00
      0.5500000              1.0000000
****
Cl     0
S    6   1.00
  25180.1000000              0.0018330
   3780.3500000              0.0140340
    860.4740000              0.0690970
    242.1450000              0.2374520
     77.3349000              0.4830340
     26.2470000              0.3398560
SP   6   1.00
    491.7650000             -0.0022974              0.0039894
    116.9840000             -0.0307140              0.0303180
     37.4153000             -0.1125280              0.1298800
     13.7834000              0.0450160              0.3279510
      5.4521500              0.5893530              0.4535270
      2.2258800              0.4652060              0.2521540
SP   3   1.00
      3.1864900             -0.2518300             -0.0142990
      1.1442700              0.0615890              0.3235720
      0.4203770              1.0601800              0.7435070
SP   1   1.00
      0.1426570              1.0000000              1.0000000
D    1   1.00
      1.5000000              1.0000000
D    1   1.00
      0.3750000              1.0000000
F    1   1.00
      0.7000000              1.0000000
****
}

set {
reference uhf
freeze_core true
e_convergence 10
d_convergence 10
dft_spherical_points 1202
dft_radial_points 99
}

e = energy('b3lyp')

print_out('Grab this energy {0}'.format(e))
--------------------------------------------------------------------------

    Molecular point group: cs

    Geometry (in Bohr), charge = 0, multiplicity = 2:

       Center              X                  Y                   Z               Mass
    ------------   -----------------  -----------------  -----------------  -----------------
         C           -0.260882030037     0.810780018253     0.000000000000    12.000000000000
         O           -2.183399057937    -0.340089746347     0.000000000000    15.994914619570
         C            2.403464778063    -0.242249010547     0.000000000000    12.000000000000
         H            2.368715543963    -2.311253103847     0.000000000000     1.007825032230
         H            3.386023118163     0.469661432753    -1.658987549000     1.007825032230
         H            3.386023118163     0.469661432753     1.658987549000     1.007825032230

  Charge       = 0
  Multiplicity = 2
  Basis Set: ANONYMOUS115E3AD3
    Blend: 6-31G_2DFP_
  Basis Set: (ANONYMOUS115E3AD3 AUX)
    Blend: DEF2-UNIVERSAL-JKFIT

    Orbital Energies [Eh]
    ---------------------

    Alpha Occupied:

       1Ap   -19.186873     2Ap   -10.271306     3Ap   -10.209899
       4Ap    -1.081976     5Ap    -0.762145     6Ap    -0.543935
       7Ap    -0.467180     8Ap    -0.457134     1App   -0.456644
       2App   -0.387687     9Ap    -0.385875    10Ap    -0.192655

    Alpha Virtual:

       3App   -0.018544    11Ap     0.092275    12Ap     0.136489
       4App    0.141835    13Ap     0.218700    14Ap     0.268509
      15Ap     0.428747     5App    0.431582    16Ap     0.443929
       6App    0.494071    17Ap     0.505905    18Ap     0.530427
       7App    0.562980    19Ap     0.577731    20Ap     0.608719
       8App    0.616565    21Ap     0.644107    22Ap     0.717364
       9App    0.767590    23Ap     0.785828    10App    0.832594
      11App    0.917075    24Ap     0.927409    25Ap     0.937777
      12App    1.023565    26Ap     1.084178    27Ap     1.109506
      13App    1.154660    28Ap     1.221278    29Ap     1.306716
      14App    1.316499    30Ap     1.328340    31Ap     1.405521
      15App    1.407563    32Ap     1.467787    33Ap     1.559430
      34Ap     1.629021    16App    1.654079    35Ap     1.720343
      17App    1.815210    36Ap     1.836282    37Ap     1.902452
      18App    2.064752    38Ap     2.163048    39Ap     2.497881
      19App    2.680189    40Ap     2.744362    41Ap     2.783228
      20App    2.845204    21App    2.894290    42Ap     2.970469
      43Ap     3.034537    22App    3.060172    23App    3.105508
      44Ap     3.116159    45Ap     3.185095    24App    3.314716
      46Ap     3.373547    25App    3.392455    26App    3.439896
      27App    3.467214    47Ap     3.488588    48Ap     3.570906
      49Ap     3.740961    50Ap     3.759932    51Ap     3.943917
      28App    3.984982    52Ap     4.058592    53Ap     4.114042
      29App    4.119568    54Ap     4.191549    30App    4.391660
      55Ap     4.436760    31App    4.451428    56Ap     4.530858
      57Ap     4.920524    58Ap     5.037177    32App    5.042382
      59Ap     5.203698    33App    5.204481    60Ap     5.475912
      34App    5.484564    61Ap     5.825646    35App    5.931885
      62Ap     6.104654    63Ap     6.770882    36App    6.772891
      37App    7.070194    64Ap     7.135337    65Ap     7.530629

    Beta Occupied:

       1Ap   -19.178781     2Ap   -10.261274     3Ap   -10.206505
       4Ap    -1.066025     5Ap    -0.750337     6Ap    -0.524307
       1App   -0.452085     7Ap    -0.446666     8Ap    -0.439230
       2App   -0.382508     9Ap    -0.347699

    Beta Virtual:

      10Ap    -0.053299     3App   -0.002257    11Ap     0.095060
      12Ap     0.142147     4App    0.144943    13Ap     0.229106
      14Ap     0.274183     5App    0.433547    15Ap     0.435772
      16Ap     0.466427     6App    0.500782    17Ap     0.527309
      18Ap     0.539134     7App    0.569477    19Ap     0.581848
       8App    0.623559    20Ap     0.627260    21Ap     0.649704
      22Ap     0.739235     9App    0.778753    23Ap     0.795766
      10App    0.833373    11App    0.921920    24Ap     0.946638
      25Ap     0.950361    12App    1.027767    26Ap     1.090461
      27Ap     1.111517    13App    1.160889    28Ap     1.230412
      29Ap     1.312408    14App    1.319347    30Ap     1.335149
      15App    1.413082    31Ap     1.416099    32Ap     1.480237
      33Ap     1.570716    34Ap     1.642055    16App    1.668575
      35Ap     1.726597    17App    1.818307    36Ap     1.850326
      37Ap     1.909161    18App    2.071490    38Ap     2.184514
      39Ap     2.510553    19App    2.694520    40Ap     2.758748
      41Ap     2.804176    20App    2.860333    21App    2.895923
      42Ap     2.980069    43Ap     3.051199    22App    3.068564
      23App    3.124196    44Ap     3.124600    45Ap     3.219669
      24App    3.358149    46Ap     3.384835    25App    3.398920
      26App    3.447918    27App    3.483226    47Ap     3.511820
      48Ap     3.584066    49Ap     3.766201    50Ap     3.769900
      51Ap     3.952731    28App    3.994307    52Ap     4.075106
      29App    4.122424    53Ap     4.128785    54Ap     4.203072
      30App    4.393872    55Ap     4.443012    31App    4.455624
      56Ap     4.541682    57Ap     4.924462    58Ap     5.054679
      32App    5.060486    33App    5.206706    59Ap     5.209441
      60Ap     5.488522    34App    5.498454    61Ap     5.838917
      35App    5.937470    62Ap     6.127936    63Ap     6.800299
      36App    6.802657    37App    7.074492    64Ap     7.164798
      65Ap     7.542310

    Final Occupation by Irrep:
             Ap   App
    DOCC [     9,    2 ]
    SOCC [     1,    0 ]

  @DF-UKS Final Energy:  -153.18841550275755

   => Energetics <=

    Nuclear Repulsion Energy =             62.8728826568834336
    One-Electron Energy =                -331.7425180639841074
    Two-Electron Energy =                 132.2634651544062763
    DFT Exchange-Correlation Energy =     -16.5822452500631883
    Empirical Dispersion Energy =           0.0000000000000000
    VV10 Nonlocal Energy =                  0.0000000000000000
    Total Energy =                       -153.1884155027575503

  UHF NO Occupations:
  HONO-2 :    8 Ap 1.9997835
  HONO-1 :    9 Ap 1.9992006
  HONO-0 :   10 Ap 1.0000000
  LUNO+0 :   11 Ap 0.0007994
  LUNO+1 :   12 Ap 0.0002165
  LUNO+2 :    3App 0.0001771
  LUNO+3 :   13 Ap 0.0000618

Computation Completed

Properties will be evaluated at   0.000000,   0.000000,   0.000000 [a0]

Properties computed using the SCF density matrix

  Nuclear Dipole Moment: [e a0]
     X:     4.5291      Y:    -0.6815      Z:     0.0000

  Electronic Dipole Moment: [e a0]
     X:    -3.6019      Y:     0.6343      Z:     0.0000

  Dipole Moment: [e a0]
     X:     0.9272      Y:    -0.0472      Z:     0.0000     Total:     0.9284

  Dipole Moment: [D]
     X:     2.3567      Y:    -0.1199      Z:     0.0000     Total:     2.3597

*** tstop() called on n065 at Tue Mar 15 10:35:12 2022
Module time:
	user time   =      53.70 seconds =       0.89 minutes
	system time =       0.52 seconds =       0.01 minutes
	total time  =         55 seconds =       0.92 minutes
Total time:
	user time   =      53.70 seconds =       0.89 minutes
	system time =       0.52 seconds =       0.01 minutes
	total time  =         55 seconds =       0.92 minutes
Grab this energy -153.18841550275755
    Psi4 stopped on: Tuesday, 15 March 2022 10:35AM
    Psi4 wall time for execution: 0:00:54.25

*** Psi4 exiting successfully. Buy a developer a beer!
