                               Psi4 1.4a2.dev629

  ==> Input File <==

--------------------------------------------------------------------------
import os
memory 14 GB

molecule {
 C   -0.2633259841    0.8098557684    0.0004737295
 O   -2.1902126924   -0.3382855737   -0.0000996609
 C    2.4107902445   -0.2415822067    0.0015428639
 H    2.3905074731   -2.3046421473    0.0043223598
 H    3.3915289618    0.4762642782   -1.6678342190
 H    3.3873099470    0.4685245013    1.6615947467
units bohr
0 2
}

basis {

assign 6-31g_2dfp_

[ 6-31g_2dfp_ ]

spherical

!----------------------------------------------------------------------
! Basis Set Exchange
! Version v0.8.13
! https://www.basissetexchange.org
!----------------------------------------------------------------------
!   Basis set: 6-31G(2df,p)
! Description: 6-31G(2df,p)
!        Role: orbital
!     Version: 0  (Data from the original Basis Set Exchange)
!----------------------------------------------------------------------

****
H     0
S    3   1.00
     18.7311370              0.03349460
      2.8253937              0.23472695
      0.6401217              0.81375733
S    1   1.00
      0.1612778              1.00000000
P    1   1.00
      1.5000000              1.0000000
P    1   1.00
      0.3750000              1.0000000
****
B     0
S    6   1.00
   2068.8823000              0.0018663
    310.6495700              0.0142515
     70.6830330              0.0695516
     19.8610800              0.2325729
      6.2993048              0.4670787
      2.1270270              0.3634314
SP   3   1.00
      4.7279710             -0.1303938              0.0745976
      1.1903377             -0.1307889              0.3078467
      0.3594117              1.1309444              0.7434568
SP   1   1.00
      0.1267512              1.0000000              1.0000000
D    1   1.00
      0.8020000              1.0000000
D    1   1.00
      0.2005000              1.0000000
F    1   1.00
      0.5000000              1.0000000
****
C     0
S    6   1.00
   3047.5249000              0.0018347
    457.3695100              0.0140373
    103.9486900              0.0688426
     29.2101550              0.2321844
      9.2866630              0.4679413
      3.1639270              0.3623120
SP   3   1.00
      7.8682724             -0.1193324              0.0689991
      1.8812885             -0.1608542              0.3164240
      0.5442493              1.1434564              0.7443083
SP   1   1.00
      0.1687144              1.0000000              1.0000000
D    1   1.00
      1.2520000              1.0000000
D    1   1.00
      0.3130000              1.0000000
F    1   1.00
      0.8000000              1.0000000
****
N     0
S    6   1.00
   4173.5110000              0.0018348
    627.4579000              0.0139950
    142.9021000              0.0685870
     40.2343300              0.2322410
     12.8202100              0.4690700
      4.3904370              0.3604550
SP   3   1.00
     11.6263580             -0.1149610              0.0675800
      2.7162800             -0.1691180              0.3239070
      0.7722180              1.1458520              0.7408950
SP   1   1.00
      0.2120313              1.0000000              1.0000000
D    1   1.00
      1.8260000              1.0000000
D    1   1.00
      0.4565000              1.0000000
F    1   1.00
      1.0000000              1.0000000
****
O     0
S    6   1.00
   5484.6717000              0.0018311
    825.2349500              0.0139501
    188.0469600              0.0684451
     52.9645000              0.2327143
     16.8975700              0.4701930
      5.7996353              0.3585209
SP   3   1.00
     15.5396160             -0.1107775              0.0708743
      3.5999336             -0.1480263              0.3397528
      1.0137618              1.1307670              0.7271586
SP   1   1.00
      0.2700058              1.0000000              1.0000000
D    1   1.00
      2.5840000              1.0000000
D    1   1.00
      0.6460000              1.0000000
F    1   1.00
      1.4000000              1.0000000
****
F     0
S    6   1.00
   7001.7130900              0.0018196169
   1051.3660900              0.0139160796
    239.2856900              0.0684053245
     67.3974453              0.233185760
     21.5199573              0.471267439
      7.40310130             0.356618546
SP   3   1.00
     20.8479528             -0.108506975            0.0716287243
      4.80830834            -0.146451658            0.3459121030
      1.34406986             1.128688580            0.7224699570
SP   1   1.00
      0.358151393            1.0000000              1.0000000
D    1   1.00
      3.5000000              1.0000000
D    1   1.00
      0.8750000              1.0000000
F    1   1.00
      1.8500000              1.0000000
****
Al     0
S    6   1.00
  13983.1000000              0.00194267
   2098.7500000              0.0148599
    477.7050000              0.0728494
    134.3600000              0.2468300
     42.8709000              0.4872580
     14.5189000              0.3234960
SP   6   1.00
    239.6680000             -0.00292619             0.00460285
     57.4419000             -0.0374080              0.0331990
     18.2859000             -0.1144870              0.1362820
      6.5991400              0.1156350              0.3304760
      2.4904900              0.6125950              0.4491460
      0.9445400              0.3937990              0.2657040
SP   3   1.00
      1.2779000             -0.2276060             -0.0175130
      0.3975900              0.00144583             0.2445330
      0.1600950              1.0927900              0.8049340
SP   1   1.00
      0.0556577              1.0000000              1.0000000
D    1   1.00
      0.6500000              1.0000000
D    1   1.00
      0.1625000              1.0000000
F    1   1.00
      0.2500000              1.0000000
****
Si     0
S    6   1.00
  16115.9000000              0.00195948
   2425.5800000              0.01492880
    553.8670000              0.07284780
    156.3400000              0.24613000
     50.0683000              0.48591400
     17.0178000              0.32500200
SP   6   1.00
    292.7180000             -0.00278094             0.00443826
     69.8731000             -0.03571460             0.03266790
     22.3363000             -0.11498500             0.13472100
      8.1503900              0.09356340             0.32867800
      3.1345800              0.60301700             0.44964000
      1.2254300              0.41895900             0.26137200
SP   3   1.00
      1.7273800             -0.24463000            -0.01779510
      0.5729220              0.00431572             0.25353900
      0.2221920              1.09818000             0.80066900
SP   1   1.00
      0.0778369              1.00000000             1.00000000
D    1   1.00
      0.9000000              1.0000000
D    1   1.00
      0.2250000              1.0000000
F    1   1.00
      0.3200000              1.0000000
****
P     0
S    6   1.00
  19413.3000000              0.0018516
   2909.4200000              0.0142062
    661.3640000              0.0699995
    185.7590000              0.2400790
     59.1943000              0.4847620
     20.0310000              0.3352000
SP   6   1.00
    339.4780000             -0.00278217             0.00456462
     81.0101000             -0.0360499              0.03369360
     25.8780000             -0.1166310              0.13975500
      9.4522100              0.0968328              0.33936200
      3.6656600              0.6144180              0.45092100
      1.4674600              0.4037980              0.23858600
SP   3   1.00
      2.1562300             -0.2529230             -0.01776530
      0.7489970              0.0328517              0.27405800
      0.2831450              1.0812500              0.78542100
SP   1   1.00
      0.0998317              1.0000000              1.00000000
D    1   1.00
      1.1000000              1.0000000
D    1   1.00
      0.2750000              1.0000000
F    1   1.00
      0.4500000              1.0000000
****
S     0
S    6   1.00
  21917.1000000              0.0018690
   3301.4900000              0.0142300
    754.1460000              0.0696960
    212.7110000              0.2384870
     67.9896000              0.4833070
     23.0515000              0.3380740
SP   6   1.00
    423.7350000             -0.0023767              0.0040610
    100.7100000             -0.0316930              0.0306810
     32.1599000             -0.1133170              0.1304520
     11.8079000              0.0560900              0.3272050
      4.6311000              0.5922550              0.4528510
      1.8702500              0.4550060              0.2560420
SP   3   1.00
      2.6158400             -0.2503740             -0.0145110
      0.9221670              0.0669570              0.3102630
      0.3412870              1.0545100              0.7544830
SP   1   1.00
      0.1171670              1.0000000              1.0000000
D    1   1.00
      1.3000000              1.0000000
D    1   1.00
      0.3250000              1.0000000
F    1   1.00
      0.5500000              1.0000000
****
Cl     0
S    6   1.00
  25180.1000000              0.0018330
   3780.3500000              0.0140340
    860.4740000              0.0690970
    242.1450000              0.2374520
     77.3349000              0.4830340
     26.2470000              0.3398560
SP   6   1.00
    491.7650000             -0.0022974              0.0039894
    116.9840000             -0.0307140              0.0303180
     37.4153000             -0.1125280              0.1298800
     13.7834000              0.0450160              0.3279510
      5.4521500              0.5893530              0.4535270
      2.2258800              0.4652060              0.2521540
SP   3   1.00
      3.1864900             -0.2518300             -0.0142990
      1.1442700              0.0615890              0.3235720
      0.4203770              1.0601800              0.7435070
SP   1   1.00
      0.1426570              1.0000000              1.0000000
D    1   1.00
      1.5000000              1.0000000
D    1   1.00
      0.3750000              1.0000000
F    1   1.00
      0.7000000              1.0000000
****
}

set {
reference uhf
freeze_core true
e_convergence 10
d_convergence 10
dft_spherical_points 1202
dft_radial_points 99
}

e = energy('b3lyp')

print_out('Grab this energy {0}'.format(e))
--------------------------------------------------------------------------

    Molecular point group: c1

    Geometry (in Bohr), charge = 0, multiplicity = 2:

       Center              X                  Y                   Z               Mass
    ------------   -----------------  -----------------  -----------------  -----------------
         C           -0.262823941227     0.808973829116    -0.000006831009    12.000000000000
         O           -2.189710649527    -0.339167512984    -0.000580221409    15.994914619570
         C            2.411292287373    -0.242464145984     0.001062303391    12.000000000000
         H            2.391009515973    -2.305524086584     0.003841799291     1.007825032230
         H            3.392031004673     0.475382338916    -1.668314779509     1.007825032230
         H            3.387811989873     0.467642562016     1.661114186191     1.007825032230

  Charge       = 0
  Multiplicity = 2
  Basis Set: ANONYMOUSDBD9DB4A
    Blend: 6-31G_2DFP_
  Basis Set: (ANONYMOUSDBD9DB4A AUX)
    Blend: DEF2-UNIVERSAL-JKFIT

    Orbital Energies [Eh]
    ---------------------

    Alpha Occupied:

       1A    -19.187141     2A    -10.271933     3A    -10.210333
       4A     -1.081344     5A     -0.761405     6A     -0.544061
       7A     -0.466176     8A     -0.457336     9A     -0.456171
      10A     -0.387721    11A     -0.385931    12A     -0.192810

    Alpha Virtual:

      13A     -0.019024    14A      0.091933    15A      0.137019
      16A      0.141453    17A      0.216971    18A      0.268179
      19A      0.428228    20A      0.431965    21A      0.443412
      22A      0.493431    23A      0.506319    24A      0.530273
      25A      0.563185    26A      0.577587    27A      0.607605
      28A      0.615397    29A      0.643959    30A      0.717752
      31A      0.766562    32A      0.785288    33A      0.832673
      34A      0.917084    35A      0.926894    36A      0.935756
      37A      1.022419    38A      1.085985    39A      1.107629
      40A      1.152700    41A      1.220634    42A      1.305484
      43A      1.317380    44A      1.327004    45A      1.403508
      46A      1.406807    47A      1.467028    48A      1.559260
      49A      1.628840    50A      1.653478    51A      1.720429
      52A      1.813626    53A      1.833837    54A      1.901741
      55A      2.063932    56A      2.163476    57A      2.495368
      58A      2.679729    59A      2.743028    60A      2.783568
      61A      2.842758    62A      2.895151    63A      2.971969
      64A      3.032982    65A      3.058629    66A      3.105585
      67A      3.113212    68A      3.183534    69A      3.314104
      70A      3.369731    71A      3.394491    72A      3.438681
      73A      3.464539    74A      3.486343    75A      3.571522
      76A      3.737761    77A      3.758607    78A      3.941993
      79A      3.979994    80A      4.052574    81A      4.107404
      82A      4.121539    83A      4.188644    84A      4.390075
      85A      4.430846    86A      4.447327    87A      4.531618
      88A      4.918986    89A      5.036955    90A      5.041948
      91A      5.196870    92A      5.210525    93A      5.472757
      94A      5.480854    95A      5.825602    96A      5.929146
      97A      6.101665    98A      6.770283    99A      6.772410
     100A      7.070136   101A      7.134979   102A      7.529252

    Beta Occupied:

       1A    -19.179059     2A    -10.261896     3A    -10.206922
       4A     -1.065398     5A     -0.749604     6A     -0.524293
       7A     -0.451670     8A     -0.446552     9A     -0.438580
      10A     -0.382521    11A     -0.347798

    Beta Virtual:

      12A     -0.053457    13A     -0.002728    14A      0.094641
      15A      0.142671    16A      0.144567    17A      0.227554
      18A      0.273874    19A      0.433876    20A      0.435894
      21A      0.465073    22A      0.500115    23A      0.527751
      24A      0.539112    25A      0.569650    26A      0.581775
      27A      0.622498    28A      0.626264    29A      0.649546
      30A      0.739585    31A      0.777680    32A      0.795276
      33A      0.833431    34A      0.921920    35A      0.943675
      36A      0.950743    37A      1.026607    38A      1.092079
      39A      1.109748    40A      1.158957    41A      1.229854
      42A      1.311083    43A      1.320248    44A      1.333802
      45A      1.412230    46A      1.414002    47A      1.479391
      48A      1.570566    49A      1.642007    50A      1.667885
      51A      1.726624    52A      1.816780    53A      1.847880
      54A      1.908410    55A      2.070648    56A      2.184866
      57A      2.508061    58A      2.694014    59A      2.757435
      60A      2.804677    61A      2.857983    62A      2.896802
      63A      2.981539    64A      3.049605    65A      3.067181
      66A      3.121400    67A      3.124465    68A      3.218159
      69A      3.357770    70A      3.381162    71A      3.400741
      72A      3.447235    73A      3.480099    74A      3.509474
      75A      3.584733    76A      3.763191    77A      3.768341
      78A      3.950718    79A      3.989326    80A      4.069105
      81A      4.122321    82A      4.124572    83A      4.199892
      84A      4.392342    85A      4.437009    86A      4.451517
      87A      4.542456    88A      4.922882    89A      5.054497
      90A      5.060009    91A      5.199472    92A      5.215767
      93A      5.485411    94A      5.494758    95A      5.838843
      96A      5.934733    97A      6.124890    98A      6.799648
      99A      6.802113   100A      7.074441   101A      7.164406
     102A      7.540933

    Final Occupation by Irrep:
              A
    DOCC [    11 ]
    SOCC [     1 ]

  @DF-UKS Final Energy:  -153.18840255102501

   => Energetics <=

    Nuclear Repulsion Energy =             62.7577462240234283
    One-Electron Energy =                -331.5159928401141656
    Two-Electron Energy =                 132.1495785679394430
    DFT Exchange-Correlation Energy =     -16.5797345028737126
    Empirical Dispersion Energy =           0.0000000000000000
    VV10 Nonlocal Energy =                  0.0000000000000000
    Total Energy =                       -153.1884025510250069

  UHF NO Occupations:
  HONO-2 :   10  A 1.9997803
  HONO-1 :   11  A 1.9992004
  HONO-0 :   12  A 1.0000000
  LUNO+0 :   13  A 0.0007996
  LUNO+1 :   14  A 0.0002197
  LUNO+2 :   15  A 0.0001786
  LUNO+3 :   16  A 0.0000618

Computation Completed

Properties will be evaluated at   0.000000,   0.000000,   0.000000 [a0]

Properties computed using the SCF density matrix

  Nuclear Dipole Moment: [e a0]
     X:     4.5440      Y:    -0.6768      Z:    -0.0017

  Electronic Dipole Moment: [e a0]
     X:    -3.6155      Y:     0.6281      Z:     0.0027

  Dipole Moment: [e a0]
     X:     0.9284      Y:    -0.0487      Z:     0.0010     Total:     0.9297

  Dipole Moment: [D]
     X:     2.3598      Y:    -0.1237      Z:     0.0025     Total:     2.3631

*** tstop() called on n090 at Thu Nov  4 14:55:47 2021
Module time:
	user time   =      44.21 seconds =       0.74 minutes
	system time =       0.50 seconds =       0.01 minutes
	total time  =         45 seconds =       0.75 minutes
Total time:
	user time   =      44.21 seconds =       0.74 minutes
	system time =       0.50 seconds =       0.01 minutes
	total time  =         45 seconds =       0.75 minutes
Grab this energy -153.188402551025
    Psi4 stopped on: Thursday, 04 November 2021 02:55PM
    Psi4 wall time for execution: 0:00:44.74

*** Psi4 exiting successfully. Buy a developer a beer!
