                               Psi4 1.4a2.dev629

  ==> Input File <==

--------------------------------------------------------------------------
import os
memory 14 GB

molecule {
 C   -0.2579079771    0.8031795653   -0.0010319988
 O   -2.1921686510   -0.3328060761   -0.0040679726
 C    2.4105239979   -0.2459956280    0.0007994835
 H    2.3835444153   -2.3026619437    0.0033184931
 H    3.3836098327    0.4683902751   -1.6593246871
 H    3.3970363643    0.4642594551    1.6603066818
units bohr
0 2
}

basis {

assign 6-31g_2dfp_

[ 6-31g_2dfp_ ]

spherical

!----------------------------------------------------------------------
! Basis Set Exchange
! Version v0.8.13
! https://www.basissetexchange.org
!----------------------------------------------------------------------
!   Basis set: 6-31G(2df,p)
! Description: 6-31G(2df,p)
!        Role: orbital
!     Version: 0  (Data from the original Basis Set Exchange)
!----------------------------------------------------------------------

****
H     0
S    3   1.00
     18.7311370              0.03349460
      2.8253937              0.23472695
      0.6401217              0.81375733
S    1   1.00
      0.1612778              1.00000000
P    1   1.00
      1.5000000              1.0000000
P    1   1.00
      0.3750000              1.0000000
****
B     0
S    6   1.00
   2068.8823000              0.0018663
    310.6495700              0.0142515
     70.6830330              0.0695516
     19.8610800              0.2325729
      6.2993048              0.4670787
      2.1270270              0.3634314
SP   3   1.00
      4.7279710             -0.1303938              0.0745976
      1.1903377             -0.1307889              0.3078467
      0.3594117              1.1309444              0.7434568
SP   1   1.00
      0.1267512              1.0000000              1.0000000
D    1   1.00
      0.8020000              1.0000000
D    1   1.00
      0.2005000              1.0000000
F    1   1.00
      0.5000000              1.0000000
****
C     0
S    6   1.00
   3047.5249000              0.0018347
    457.3695100              0.0140373
    103.9486900              0.0688426
     29.2101550              0.2321844
      9.2866630              0.4679413
      3.1639270              0.3623120
SP   3   1.00
      7.8682724             -0.1193324              0.0689991
      1.8812885             -0.1608542              0.3164240
      0.5442493              1.1434564              0.7443083
SP   1   1.00
      0.1687144              1.0000000              1.0000000
D    1   1.00
      1.2520000              1.0000000
D    1   1.00
      0.3130000              1.0000000
F    1   1.00
      0.8000000              1.0000000
****
N     0
S    6   1.00
   4173.5110000              0.0018348
    627.4579000              0.0139950
    142.9021000              0.0685870
     40.2343300              0.2322410
     12.8202100              0.4690700
      4.3904370              0.3604550
SP   3   1.00
     11.6263580             -0.1149610              0.0675800
      2.7162800             -0.1691180              0.3239070
      0.7722180              1.1458520              0.7408950
SP   1   1.00
      0.2120313              1.0000000              1.0000000
D    1   1.00
      1.8260000              1.0000000
D    1   1.00
      0.4565000              1.0000000
F    1   1.00
      1.0000000              1.0000000
****
O     0
S    6   1.00
   5484.6717000              0.0018311
    825.2349500              0.0139501
    188.0469600              0.0684451
     52.9645000              0.2327143
     16.8975700              0.4701930
      5.7996353              0.3585209
SP   3   1.00
     15.5396160             -0.1107775              0.0708743
      3.5999336             -0.1480263              0.3397528
      1.0137618              1.1307670              0.7271586
SP   1   1.00
      0.2700058              1.0000000              1.0000000
D    1   1.00
      2.5840000              1.0000000
D    1   1.00
      0.6460000              1.0000000
F    1   1.00
      1.4000000              1.0000000
****
F     0
S    6   1.00
   7001.7130900              0.0018196169
   1051.3660900              0.0139160796
    239.2856900              0.0684053245
     67.3974453              0.233185760
     21.5199573              0.471267439
      7.40310130             0.356618546
SP   3   1.00
     20.8479528             -0.108506975            0.0716287243
      4.80830834            -0.146451658            0.3459121030
      1.34406986             1.128688580            0.7224699570
SP   1   1.00
      0.358151393            1.0000000              1.0000000
D    1   1.00
      3.5000000              1.0000000
D    1   1.00
      0.8750000              1.0000000
F    1   1.00
      1.8500000              1.0000000
****
Al     0
S    6   1.00
  13983.1000000              0.00194267
   2098.7500000              0.0148599
    477.7050000              0.0728494
    134.3600000              0.2468300
     42.8709000              0.4872580
     14.5189000              0.3234960
SP   6   1.00
    239.6680000             -0.00292619             0.00460285
     57.4419000             -0.0374080              0.0331990
     18.2859000             -0.1144870              0.1362820
      6.5991400              0.1156350              0.3304760
      2.4904900              0.6125950              0.4491460
      0.9445400              0.3937990              0.2657040
SP   3   1.00
      1.2779000             -0.2276060             -0.0175130
      0.3975900              0.00144583             0.2445330
      0.1600950              1.0927900              0.8049340
SP   1   1.00
      0.0556577              1.0000000              1.0000000
D    1   1.00
      0.6500000              1.0000000
D    1   1.00
      0.1625000              1.0000000
F    1   1.00
      0.2500000              1.0000000
****
Si     0
S    6   1.00
  16115.9000000              0.00195948
   2425.5800000              0.01492880
    553.8670000              0.07284780
    156.3400000              0.24613000
     50.0683000              0.48591400
     17.0178000              0.32500200
SP   6   1.00
    292.7180000             -0.00278094             0.00443826
     69.8731000             -0.03571460             0.03266790
     22.3363000             -0.11498500             0.13472100
      8.1503900              0.09356340             0.32867800
      3.1345800              0.60301700             0.44964000
      1.2254300              0.41895900             0.26137200
SP   3   1.00
      1.7273800             -0.24463000            -0.01779510
      0.5729220              0.00431572             0.25353900
      0.2221920              1.09818000             0.80066900
SP   1   1.00
      0.0778369              1.00000000             1.00000000
D    1   1.00
      0.9000000              1.0000000
D    1   1.00
      0.2250000              1.0000000
F    1   1.00
      0.3200000              1.0000000
****
P     0
S    6   1.00
  19413.3000000              0.0018516
   2909.4200000              0.0142062
    661.3640000              0.0699995
    185.7590000              0.2400790
     59.1943000              0.4847620
     20.0310000              0.3352000
SP   6   1.00
    339.4780000             -0.00278217             0.00456462
     81.0101000             -0.0360499              0.03369360
     25.8780000             -0.1166310              0.13975500
      9.4522100              0.0968328              0.33936200
      3.6656600              0.6144180              0.45092100
      1.4674600              0.4037980              0.23858600
SP   3   1.00
      2.1562300             -0.2529230             -0.01776530
      0.7489970              0.0328517              0.27405800
      0.2831450              1.0812500              0.78542100
SP   1   1.00
      0.0998317              1.0000000              1.00000000
D    1   1.00
      1.1000000              1.0000000
D    1   1.00
      0.2750000              1.0000000
F    1   1.00
      0.4500000              1.0000000
****
S     0
S    6   1.00
  21917.1000000              0.0018690
   3301.4900000              0.0142300
    754.1460000              0.0696960
    212.7110000              0.2384870
     67.9896000              0.4833070
     23.0515000              0.3380740
SP   6   1.00
    423.7350000             -0.0023767              0.0040610
    100.7100000             -0.0316930              0.0306810
     32.1599000             -0.1133170              0.1304520
     11.8079000              0.0560900              0.3272050
      4.6311000              0.5922550              0.4528510
      1.8702500              0.4550060              0.2560420
SP   3   1.00
      2.6158400             -0.2503740             -0.0145110
      0.9221670              0.0669570              0.3102630
      0.3412870              1.0545100              0.7544830
SP   1   1.00
      0.1171670              1.0000000              1.0000000
D    1   1.00
      1.3000000              1.0000000
D    1   1.00
      0.3250000              1.0000000
F    1   1.00
      0.5500000              1.0000000
****
Cl     0
S    6   1.00
  25180.1000000              0.0018330
   3780.3500000              0.0140340
    860.4740000              0.0690970
    242.1450000              0.2374520
     77.3349000              0.4830340
     26.2470000              0.3398560
SP   6   1.00
    491.7650000             -0.0022974              0.0039894
    116.9840000             -0.0307140              0.0303180
     37.4153000             -0.1125280              0.1298800
     13.7834000              0.0450160              0.3279510
      5.4521500              0.5893530              0.4535270
      2.2258800              0.4652060              0.2521540
SP   3   1.00
      3.1864900             -0.2518300             -0.0142990
      1.1442700              0.0615890              0.3235720
      0.4203770              1.0601800              0.7435070
SP   1   1.00
      0.1426570              1.0000000              1.0000000
D    1   1.00
      1.5000000              1.0000000
D    1   1.00
      0.3750000              1.0000000
F    1   1.00
      0.7000000              1.0000000
****
}

set {
reference uhf
freeze_core true
e_convergence 10
d_convergence 10
dft_spherical_points 1202
dft_radial_points 99
}

e = energy('b3lyp')

print_out('Grab this energy {0}'.format(e))
--------------------------------------------------------------------------

    Molecular point group: c1

    Geometry (in Bohr), charge = 0, multiplicity = 2:

       Center              X                  Y                   Z               Mass
    ------------   -----------------  -----------------  -----------------  -----------------
         C           -0.257994975809     0.803591717587     0.000444646867    12.000000000000
         O           -2.192255649709    -0.332393923813    -0.002591326933    15.994914619570
         C            2.410436999191    -0.245583475713     0.002276129167    12.000000000000
         H            2.383457416591    -2.302249791413     0.004795138767     1.007825032230
         H            3.383522833991     0.468802427387    -1.657848041433     1.007825032230
         H            3.396949365591     0.464671607387     1.661783327467     1.007825032230

  Charge       = 0
  Multiplicity = 2
  Basis Set: ANONYMOUSCD4476F7
    Blend: 6-31G_2DFP_
  Basis Set: (ANONYMOUSCD4476F7 AUX)
    Blend: DEF2-UNIVERSAL-JKFIT

    Orbital Energies [Eh]
    ---------------------

    Alpha Occupied:

       1A    -19.186834     2A    -10.271566     3A    -10.209617
       4A     -1.080997     5A     -0.762636     6A     -0.544192
       7A     -0.466815     8A     -0.457698     9A     -0.456484
      10A     -0.387537    11A     -0.386302    12A     -0.191964

    Alpha Virtual:

      13A     -0.018902    14A      0.092218    15A      0.137733
      16A      0.141869    17A      0.217802    18A      0.268103
      19A      0.428074    20A      0.431817    21A      0.443881
      22A      0.493929    23A      0.506426    24A      0.530883
      25A      0.563480    26A      0.579111    27A      0.608589
      28A      0.616371    29A      0.644765    30A      0.718012
      31A      0.766350    32A      0.785303    33A      0.833733
      34A      0.917515    35A      0.927301    36A      0.936234
      37A      1.023668    38A      1.085726    39A      1.108691
      40A      1.153992    41A      1.222709    42A      1.306357
      43A      1.318189    44A      1.328045    45A      1.404587
      46A      1.408884    47A      1.469271    48A      1.560270
      49A      1.631721    50A      1.653953    51A      1.723834
      52A      1.815257    53A      1.835728    54A      1.903658
      55A      2.066402    56A      2.167181    57A      2.495016
      58A      2.680858    59A      2.744428    60A      2.786236
      61A      2.843846    62A      2.895714    63A      2.974570
      64A      3.030655    65A      3.057494    66A      3.104985
      67A      3.115728    68A      3.181655    69A      3.314562
      70A      3.367487    71A      3.390743    72A      3.440416
      73A      3.465704    74A      3.485312    75A      3.572252
      76A      3.739278    77A      3.763386    78A      3.946928
      79A      3.984123    80A      4.056459    81A      4.113921
      82A      4.125171    83A      4.193448    84A      4.393182
      85A      4.436102    86A      4.454200    87A      4.537314
      88A      4.921913    89A      5.037358    90A      5.042343
      91A      5.205903    92A      5.216467    93A      5.473252
      94A      5.482850    95A      5.827072    96A      5.930069
      97A      6.104295    98A      6.770711    99A      6.772874
     100A      7.071411   101A      7.135062   102A      7.529766

    Beta Occupied:

       1A    -19.178770     2A    -10.261495     3A    -10.206249
       4A     -1.065067     5A     -0.750895     6A     -0.524434
       7A     -0.452099     8A     -0.447408     9A     -0.438979
      10A     -0.382337    11A     -0.347920

    Beta Virtual:

      12A     -0.052418    13A     -0.002612    14A      0.094913
      15A      0.143378    16A      0.144974    17A      0.228213
      18A      0.273789    19A      0.433712    20A      0.435384
      21A      0.465859    22A      0.500642    23A      0.527838
      24A      0.539889    25A      0.569897    26A      0.583326
      27A      0.623520    28A      0.627244    29A      0.650412
      30A      0.739962    31A      0.777507    32A      0.795307
      33A      0.834513    34A      0.922349    35A      0.943859
      36A      0.951321    37A      1.027854    38A      1.091818
      39A      1.110782    40A      1.160175    41A      1.231998
      42A      1.312006    43A      1.321016    44A      1.334794
      45A      1.414361    46A      1.415003    47A      1.481555
      48A      1.571411    49A      1.645111    50A      1.668300
      51A      1.730164    52A      1.818438    53A      1.849686
      54A      1.910266    55A      2.073129    56A      2.188607
      57A      2.507703    58A      2.695131    59A      2.758938
      60A      2.807374    61A      2.859312    62A      2.897357
      63A      2.983966    64A      3.047371    65A      3.066000
      66A      3.123000    67A      3.124822    68A      3.216338
      69A      3.358233    70A      3.378951    71A      3.396974
      72A      3.448595    73A      3.481503    74A      3.508628
      75A      3.585358    76A      3.765157    77A      3.772856
      78A      3.955503    79A      3.993430    80A      4.072844
      81A      4.127967    82A      4.128963    83A      4.204723
      84A      4.395452    85A      4.442246    86A      4.458396
      87A      4.548146    88A      4.925804    89A      5.054891
      90A      5.060333    91A      5.208130    92A      5.222112
      93A      5.485896    94A      5.496679    95A      5.840316
      96A      5.935658    97A      6.127490    98A      6.799976
      99A      6.802480   100A      7.075712   101A      7.164432
     102A      7.541431

    Final Occupation by Irrep:
              A
    DOCC [    11 ]
    SOCC [     1 ]

  @DF-UKS Final Energy:  -153.18838515962918

   => Energetics <=

    Nuclear Repulsion Energy =             62.8127410491409819
    One-Electron Energy =                -331.6221740863093146
    Two-Electron Energy =                 132.2038681911236040
    DFT Exchange-Correlation Energy =     -16.5828203135844383
    Empirical Dispersion Energy =           0.0000000000000000
    VV10 Nonlocal Energy =                  0.0000000000000000
    Total Energy =                       -153.1883851596291777

  UHF NO Occupations:
  HONO-2 :   10  A 1.9997859
  HONO-1 :   11  A 1.9992019
  HONO-0 :   12  A 1.0000000
  LUNO+0 :   13  A 0.0007981
  LUNO+1 :   14  A 0.0002141
  LUNO+2 :   15  A 0.0001807
  LUNO+3 :   16  A 0.0000616

Computation Completed

Properties will be evaluated at   0.000000,   0.000000,   0.000000 [a0]

Properties computed using the SCF density matrix

  Nuclear Dipole Moment: [e a0]
     X:     4.5405      Y:    -0.6799      Z:     0.0043

  Electronic Dipole Moment: [e a0]
     X:    -3.6070      Y:     0.6289      Z:    -0.0034

  Dipole Moment: [e a0]
     X:     0.9335      Y:    -0.0510      Z:     0.0010     Total:     0.9349

  Dipole Moment: [D]
     X:     2.3727      Y:    -0.1297      Z:     0.0025     Total:     2.3763

*** tstop() called on n044 at Tue Mar 15 10:36:22 2022
Module time:
	user time   =      62.56 seconds =       1.04 minutes
	system time =       0.41 seconds =       0.01 minutes
	total time  =         63 seconds =       1.05 minutes
Total time:
	user time   =      62.56 seconds =       1.04 minutes
	system time =       0.41 seconds =       0.01 minutes
	total time  =         63 seconds =       1.05 minutes
Grab this energy -153.18838515962918
    Psi4 stopped on: Tuesday, 15 March 2022 10:36AM
    Psi4 wall time for execution: 0:01:03.02

*** Psi4 exiting successfully. Buy a developer a beer!
