                               Psi4 1.4a2.dev629

  ==> Input File <==

--------------------------------------------------------------------------
import os
memory 14 GB

molecule {
 C   -0.2590552488    0.8044602895   -0.0000000000
 O   -2.1911997453   -0.3328333080    0.0000000000
 C    2.4123630170   -0.2460244064   -0.0000000000
 H    2.3820039824   -2.3089083152    0.0000000000
 H    3.3902629884    0.4688356939   -1.6644463726
 H    3.3902629884    0.4688356939    1.6644463726
units bohr
0 2
}

basis {

assign 6-31g_2dfp_

[ 6-31g_2dfp_ ]

spherical

!----------------------------------------------------------------------
! Basis Set Exchange
! Version v0.8.13
! https://www.basissetexchange.org
!----------------------------------------------------------------------
!   Basis set: 6-31G(2df,p)
! Description: 6-31G(2df,p)
!        Role: orbital
!     Version: 0  (Data from the original Basis Set Exchange)
!----------------------------------------------------------------------

****
H     0
S    3   1.00
     18.7311370              0.03349460
      2.8253937              0.23472695
      0.6401217              0.81375733
S    1   1.00
      0.1612778              1.00000000
P    1   1.00
      1.5000000              1.0000000
P    1   1.00
      0.3750000              1.0000000
****
B     0
S    6   1.00
   2068.8823000              0.0018663
    310.6495700              0.0142515
     70.6830330              0.0695516
     19.8610800              0.2325729
      6.2993048              0.4670787
      2.1270270              0.3634314
SP   3   1.00
      4.7279710             -0.1303938              0.0745976
      1.1903377             -0.1307889              0.3078467
      0.3594117              1.1309444              0.7434568
SP   1   1.00
      0.1267512              1.0000000              1.0000000
D    1   1.00
      0.8020000              1.0000000
D    1   1.00
      0.2005000              1.0000000
F    1   1.00
      0.5000000              1.0000000
****
C     0
S    6   1.00
   3047.5249000              0.0018347
    457.3695100              0.0140373
    103.9486900              0.0688426
     29.2101550              0.2321844
      9.2866630              0.4679413
      3.1639270              0.3623120
SP   3   1.00
      7.8682724             -0.1193324              0.0689991
      1.8812885             -0.1608542              0.3164240
      0.5442493              1.1434564              0.7443083
SP   1   1.00
      0.1687144              1.0000000              1.0000000
D    1   1.00
      1.2520000              1.0000000
D    1   1.00
      0.3130000              1.0000000
F    1   1.00
      0.8000000              1.0000000
****
N     0
S    6   1.00
   4173.5110000              0.0018348
    627.4579000              0.0139950
    142.9021000              0.0685870
     40.2343300              0.2322410
     12.8202100              0.4690700
      4.3904370              0.3604550
SP   3   1.00
     11.6263580             -0.1149610              0.0675800
      2.7162800             -0.1691180              0.3239070
      0.7722180              1.1458520              0.7408950
SP   1   1.00
      0.2120313              1.0000000              1.0000000
D    1   1.00
      1.8260000              1.0000000
D    1   1.00
      0.4565000              1.0000000
F    1   1.00
      1.0000000              1.0000000
****
O     0
S    6   1.00
   5484.6717000              0.0018311
    825.2349500              0.0139501
    188.0469600              0.0684451
     52.9645000              0.2327143
     16.8975700              0.4701930
      5.7996353              0.3585209
SP   3   1.00
     15.5396160             -0.1107775              0.0708743
      3.5999336             -0.1480263              0.3397528
      1.0137618              1.1307670              0.7271586
SP   1   1.00
      0.2700058              1.0000000              1.0000000
D    1   1.00
      2.5840000              1.0000000
D    1   1.00
      0.6460000              1.0000000
F    1   1.00
      1.4000000              1.0000000
****
F     0
S    6   1.00
   7001.7130900              0.0018196169
   1051.3660900              0.0139160796
    239.2856900              0.0684053245
     67.3974453              0.233185760
     21.5199573              0.471267439
      7.40310130             0.356618546
SP   3   1.00
     20.8479528             -0.108506975            0.0716287243
      4.80830834            -0.146451658            0.3459121030
      1.34406986             1.128688580            0.7224699570
SP   1   1.00
      0.358151393            1.0000000              1.0000000
D    1   1.00
      3.5000000              1.0000000
D    1   1.00
      0.8750000              1.0000000
F    1   1.00
      1.8500000              1.0000000
****
Al     0
S    6   1.00
  13983.1000000              0.00194267
   2098.7500000              0.0148599
    477.7050000              0.0728494
    134.3600000              0.2468300
     42.8709000              0.4872580
     14.5189000              0.3234960
SP   6   1.00
    239.6680000             -0.00292619             0.00460285
     57.4419000             -0.0374080              0.0331990
     18.2859000             -0.1144870              0.1362820
      6.5991400              0.1156350              0.3304760
      2.4904900              0.6125950              0.4491460
      0.9445400              0.3937990              0.2657040
SP   3   1.00
      1.2779000             -0.2276060             -0.0175130
      0.3975900              0.00144583             0.2445330
      0.1600950              1.0927900              0.8049340
SP   1   1.00
      0.0556577              1.0000000              1.0000000
D    1   1.00
      0.6500000              1.0000000
D    1   1.00
      0.1625000              1.0000000
F    1   1.00
      0.2500000              1.0000000
****
Si     0
S    6   1.00
  16115.9000000              0.00195948
   2425.5800000              0.01492880
    553.8670000              0.07284780
    156.3400000              0.24613000
     50.0683000              0.48591400
     17.0178000              0.32500200
SP   6   1.00
    292.7180000             -0.00278094             0.00443826
     69.8731000             -0.03571460             0.03266790
     22.3363000             -0.11498500             0.13472100
      8.1503900              0.09356340             0.32867800
      3.1345800              0.60301700             0.44964000
      1.2254300              0.41895900             0.26137200
SP   3   1.00
      1.7273800             -0.24463000            -0.01779510
      0.5729220              0.00431572             0.25353900
      0.2221920              1.09818000             0.80066900
SP   1   1.00
      0.0778369              1.00000000             1.00000000
D    1   1.00
      0.9000000              1.0000000
D    1   1.00
      0.2250000              1.0000000
F    1   1.00
      0.3200000              1.0000000
****
P     0
S    6   1.00
  19413.3000000              0.0018516
   2909.4200000              0.0142062
    661.3640000              0.0699995
    185.7590000              0.2400790
     59.1943000              0.4847620
     20.0310000              0.3352000
SP   6   1.00
    339.4780000             -0.00278217             0.00456462
     81.0101000             -0.0360499              0.03369360
     25.8780000             -0.1166310              0.13975500
      9.4522100              0.0968328              0.33936200
      3.6656600              0.6144180              0.45092100
      1.4674600              0.4037980              0.23858600
SP   3   1.00
      2.1562300             -0.2529230             -0.01776530
      0.7489970              0.0328517              0.27405800
      0.2831450              1.0812500              0.78542100
SP   1   1.00
      0.0998317              1.0000000              1.00000000
D    1   1.00
      1.1000000              1.0000000
D    1   1.00
      0.2750000              1.0000000
F    1   1.00
      0.4500000              1.0000000
****
S     0
S    6   1.00
  21917.1000000              0.0018690
   3301.4900000              0.0142300
    754.1460000              0.0696960
    212.7110000              0.2384870
     67.9896000              0.4833070
     23.0515000              0.3380740
SP   6   1.00
    423.7350000             -0.0023767              0.0040610
    100.7100000             -0.0316930              0.0306810
     32.1599000             -0.1133170              0.1304520
     11.8079000              0.0560900              0.3272050
      4.6311000              0.5922550              0.4528510
      1.8702500              0.4550060              0.2560420
SP   3   1.00
      2.6158400             -0.2503740             -0.0145110
      0.9221670              0.0669570              0.3102630
      0.3412870              1.0545100              0.7544830
SP   1   1.00
      0.1171670              1.0000000              1.0000000
D    1   1.00
      1.3000000              1.0000000
D    1   1.00
      0.3250000              1.0000000
F    1   1.00
      0.5500000              1.0000000
****
Cl     0
S    6   1.00
  25180.1000000              0.0018330
   3780.3500000              0.0140340
    860.4740000              0.0690970
    242.1450000              0.2374520
     77.3349000              0.4830340
     26.2470000              0.3398560
SP   6   1.00
    491.7650000             -0.0022974              0.0039894
    116.9840000             -0.0307140              0.0303180
     37.4153000             -0.1125280              0.1298800
     13.7834000              0.0450160              0.3279510
      5.4521500              0.5893530              0.4535270
      2.2258800              0.4652060              0.2521540
SP   3   1.00
      3.1864900             -0.2518300             -0.0142990
      1.1442700              0.0615890              0.3235720
      0.4203770              1.0601800              0.7435070
SP   1   1.00
      0.1426570              1.0000000              1.0000000
D    1   1.00
      1.5000000              1.0000000
D    1   1.00
      0.3750000              1.0000000
F    1   1.00
      0.7000000              1.0000000
****
}

set {
reference uhf
freeze_core true
e_convergence 10
d_convergence 10
dft_spherical_points 1202
dft_radial_points 99
}

e = energy('b3lyp')

print_out('Grab this energy {0}'.format(e))
--------------------------------------------------------------------------

    Molecular point group: cs

    Geometry (in Bohr), charge = 0, multiplicity = 2:

       Center              X                  Y                   Z               Mass
    ------------   -----------------  -----------------  -----------------  -----------------
         C           -0.259656559763     0.804562028486     0.000000000000    12.000000000000
         O           -2.191801056263    -0.332731569014     0.000000000000    15.994914619570
         C            2.411761706037    -0.245922667414     0.000000000000    12.000000000000
         H            2.381402671437    -2.308806576214     0.000000000000     1.007825032230
         H            3.389661677437     0.468937432886    -1.664446372600     1.007825032230
         H            3.389661677437     0.468937432886     1.664446372600     1.007825032230

  Charge       = 0
  Multiplicity = 2
  Basis Set: ANONYMOUS5E2BC34B
    Blend: 6-31G_2DFP_
  Basis Set: (ANONYMOUS5E2BC34B AUX)
    Blend: DEF2-UNIVERSAL-JKFIT

    Orbital Energies [Eh]
    ---------------------

    Alpha Occupied:

       1Ap   -19.186910     2Ap   -10.271573     3Ap   -10.210329
       4Ap    -1.081397     5Ap    -0.761848     6Ap    -0.543784
       7Ap    -0.466559     8Ap    -0.457256     1App   -0.456413
       2App   -0.387709     9Ap    -0.386216    10Ap    -0.191974

    Alpha Virtual:

       3App   -0.018742    11Ap     0.091825    12Ap     0.136994
       4App    0.141377    13Ap     0.217318    14Ap     0.268149
      15Ap     0.428015     5App    0.431687    16Ap     0.443628
       6App    0.493650    17Ap     0.506353    18Ap     0.530437
       7App    0.563336    19Ap     0.577634    20Ap     0.608536
       8App    0.615868    21Ap     0.643995    22Ap     0.717734
       9App    0.766185    23Ap     0.785371    10App    0.832179
      11App    0.917254    24Ap     0.927084    25Ap     0.935708
      12App    1.023316    26Ap     1.085337    27Ap     1.106870
      13App    1.153403    28Ap     1.221848    29Ap     1.305915
      14App    1.316316    30Ap     1.327024    31Ap     1.404052
      15App    1.408461    32Ap     1.468364    33Ap     1.559749
      34Ap     1.630639    16App    1.653957    35Ap     1.721418
      17App    1.813493    36Ap     1.834292    37Ap     1.900387
      18App    2.065670    38Ap     2.166593    39Ap     2.495795
      19App    2.680298    40Ap     2.743670    41Ap     2.784332
      20App    2.842318    21App    2.894653    42Ap     2.973272
      43Ap     3.031328    22App    3.058262    23App    3.104971
      44Ap     3.114261    45Ap     3.182210    24App    3.313973
      46Ap     3.369866    25App    3.393070    26App    3.440432
      27App    3.465465    47Ap     3.485673    48Ap     3.571936
      49Ap     3.739691    50Ap     3.760450    51Ap     3.941787
      28App    3.982459    52Ap     4.055216    53Ap     4.109876
      29App    4.118953    54Ap     4.188249    30App    4.391263
      55Ap     4.434396    31App    4.449558    56Ap     4.530572
      57Ap     4.921548    58Ap     5.037102    32App    5.042215
      33App    5.198938    59Ap     5.207306    60Ap     5.473887
      34App    5.482405    61Ap     5.826500    35App    5.930693
      62Ap     6.104037    63Ap     6.770629    36App    6.772813
      37App    7.070792    64Ap     7.135002    65Ap     7.529990

    Beta Occupied:

       1Ap   -19.178853     2Ap   -10.261518     3Ap   -10.206941
       4Ap    -1.065489     5Ap    -0.750054     6Ap    -0.524056
       1App   -0.451880     7Ap    -0.446870     8Ap    -0.438775
       2App   -0.382530     9Ap    -0.348014

    Beta Virtual:

      10Ap    -0.052560     3App   -0.002462    11Ap     0.094543
      12Ap     0.142656     4App    0.144478    13Ap     0.227830
      14Ap     0.273833     5App    0.433674    15Ap     0.435338
      16Ap     0.465483     6App    0.500340    17Ap     0.527761
      18Ap     0.539427     7App    0.569746    19Ap     0.581819
       8App    0.623042    20Ap     0.627084    21Ap     0.649701
      22Ap     0.739719     9App    0.777334    23Ap     0.795342
      10App    0.832952    11App    0.922095    24Ap     0.943480
      25Ap     0.950988    12App    1.027510    26Ap     1.091536
      27Ap     1.108932    13App    1.159611    28Ap     1.231122
      29Ap     1.311453    14App    1.319112    30Ap     1.333817
      15App    1.413991    31Ap     1.414388    32Ap     1.480648
      33Ap     1.570937    34Ap     1.643957    16App    1.668327
      35Ap     1.727658    17App    1.816644    36Ap     1.848389
      37Ap     1.907035    18App    2.072382    38Ap     2.187983
      39Ap     2.508473    19App    2.694583    40Ap     2.758124
      41Ap     2.805435    20App    2.857691    21App    2.896287
      42Ap     2.982711    43Ap     3.048179    22App    3.066892
      44Ap     3.122718    23App    3.123555    45Ap     3.216916
      24App    3.357580    46Ap     3.381373    25App    3.399446
      26App    3.448754    27App    3.481080    47Ap     3.508831
      48Ap     3.585059    49Ap     3.765409    50Ap     3.769900
      51Ap     3.950494    28App    3.991768    52Ap     4.071595
      29App    4.121771    53Ap     4.124378    54Ap     4.200087
      30App    4.393585    55Ap     4.440589    31App    4.453648
      56Ap     4.541418    57Ap     4.925462    58Ap     5.054577
      32App    5.060202    33App    5.201098    59Ap     5.212999
      60Ap     5.486516    34App    5.496288    61Ap     5.839732
      35App    5.936278    62Ap     6.127213    63Ap     6.799881
      36App    6.802405    37App    7.075086    64Ap     7.164345
      65Ap     7.541644

    Final Occupation by Irrep:
             Ap   App
    DOCC [     9,    2 ]
    SOCC [     1,    0 ]

  @DF-UKS Final Energy:  -153.18842336950624

   => Energetics <=

    Nuclear Repulsion Energy =             62.7812675800389428
    One-Electron Energy =                -331.5621480660513498
    Two-Electron Energy =                 132.1731263508779080
    DFT Exchange-Correlation Energy =     -16.5806692343717614
    Empirical Dispersion Energy =           0.0000000000000000
    VV10 Nonlocal Energy =                  0.0000000000000000
    Total Energy =                       -153.1884233695062392

  UHF NO Occupations:
  HONO-2 :    8 Ap 1.9997830
  HONO-1 :    9 Ap 1.9992034
  HONO-0 :   10 Ap 1.0000000
  LUNO+0 :   11 Ap 0.0007966
  LUNO+1 :   12 Ap 0.0002170
  LUNO+2 :    3App 0.0001799
  LUNO+3 :   13 Ap 0.0000615

Computation Completed

Properties will be evaluated at   0.000000,   0.000000,   0.000000 [a0]

Properties computed using the SCF density matrix

  Nuclear Dipole Moment: [e a0]
     X:     4.5389      Y:    -0.6809      Z:     0.0000

  Electronic Dipole Moment: [e a0]
     X:    -3.6086      Y:     0.6305      Z:     0.0000

  Dipole Moment: [e a0]
     X:     0.9304      Y:    -0.0505      Z:     0.0000     Total:     0.9318

  Dipole Moment: [D]
     X:     2.3648      Y:    -0.1284      Z:     0.0000     Total:     2.3683

*** tstop() called on n033 at Tue Mar 15 10:26:21 2022
Module time:
	user time   =      62.51 seconds =       1.04 minutes
	system time =       0.42 seconds =       0.01 minutes
	total time  =         63 seconds =       1.05 minutes
Total time:
	user time   =      62.51 seconds =       1.04 minutes
	system time =       0.42 seconds =       0.01 minutes
	total time  =         63 seconds =       1.05 minutes
Grab this energy -153.18842336950624
    Psi4 stopped on: Tuesday, 15 March 2022 10:26AM
    Psi4 wall time for execution: 0:01:02.97

*** Psi4 exiting successfully. Buy a developer a beer!
