                               Psi4 1.4a2.dev629

  ==> Input File <==

--------------------------------------------------------------------------
import os
memory 14 GB

molecule {
 C   -0.2587342484    0.8045010572   -0.0010006696
 O   -2.1912175310   -0.3328558914    0.0002772842
 C    2.4097195619   -0.2456374472    0.0025982403
 H    2.3828554519   -2.3089555906   -0.0010225921
 H    3.3908314291    0.4685287308   -1.6646563173
 H    3.3911833186    0.4687847890    1.6638040544
units bohr
0 2
}

basis {

assign 6-31g_2dfp_

[ 6-31g_2dfp_ ]

spherical

!----------------------------------------------------------------------
! Basis Set Exchange
! Version v0.8.13
! https://www.basissetexchange.org
!----------------------------------------------------------------------
!   Basis set: 6-31G(2df,p)
! Description: 6-31G(2df,p)
!        Role: orbital
!     Version: 0  (Data from the original Basis Set Exchange)
!----------------------------------------------------------------------

****
H     0
S    3   1.00
     18.7311370              0.03349460
      2.8253937              0.23472695
      0.6401217              0.81375733
S    1   1.00
      0.1612778              1.00000000
P    1   1.00
      1.5000000              1.0000000
P    1   1.00
      0.3750000              1.0000000
****
B     0
S    6   1.00
   2068.8823000              0.0018663
    310.6495700              0.0142515
     70.6830330              0.0695516
     19.8610800              0.2325729
      6.2993048              0.4670787
      2.1270270              0.3634314
SP   3   1.00
      4.7279710             -0.1303938              0.0745976
      1.1903377             -0.1307889              0.3078467
      0.3594117              1.1309444              0.7434568
SP   1   1.00
      0.1267512              1.0000000              1.0000000
D    1   1.00
      0.8020000              1.0000000
D    1   1.00
      0.2005000              1.0000000
F    1   1.00
      0.5000000              1.0000000
****
C     0
S    6   1.00
   3047.5249000              0.0018347
    457.3695100              0.0140373
    103.9486900              0.0688426
     29.2101550              0.2321844
      9.2866630              0.4679413
      3.1639270              0.3623120
SP   3   1.00
      7.8682724             -0.1193324              0.0689991
      1.8812885             -0.1608542              0.3164240
      0.5442493              1.1434564              0.7443083
SP   1   1.00
      0.1687144              1.0000000              1.0000000
D    1   1.00
      1.2520000              1.0000000
D    1   1.00
      0.3130000              1.0000000
F    1   1.00
      0.8000000              1.0000000
****
N     0
S    6   1.00
   4173.5110000              0.0018348
    627.4579000              0.0139950
    142.9021000              0.0685870
     40.2343300              0.2322410
     12.8202100              0.4690700
      4.3904370              0.3604550
SP   3   1.00
     11.6263580             -0.1149610              0.0675800
      2.7162800             -0.1691180              0.3239070
      0.7722180              1.1458520              0.7408950
SP   1   1.00
      0.2120313              1.0000000              1.0000000
D    1   1.00
      1.8260000              1.0000000
D    1   1.00
      0.4565000              1.0000000
F    1   1.00
      1.0000000              1.0000000
****
O     0
S    6   1.00
   5484.6717000              0.0018311
    825.2349500              0.0139501
    188.0469600              0.0684451
     52.9645000              0.2327143
     16.8975700              0.4701930
      5.7996353              0.3585209
SP   3   1.00
     15.5396160             -0.1107775              0.0708743
      3.5999336             -0.1480263              0.3397528
      1.0137618              1.1307670              0.7271586
SP   1   1.00
      0.2700058              1.0000000              1.0000000
D    1   1.00
      2.5840000              1.0000000
D    1   1.00
      0.6460000              1.0000000
F    1   1.00
      1.4000000              1.0000000
****
F     0
S    6   1.00
   7001.7130900              0.0018196169
   1051.3660900              0.0139160796
    239.2856900              0.0684053245
     67.3974453              0.233185760
     21.5199573              0.471267439
      7.40310130             0.356618546
SP   3   1.00
     20.8479528             -0.108506975            0.0716287243
      4.80830834            -0.146451658            0.3459121030
      1.34406986             1.128688580            0.7224699570
SP   1   1.00
      0.358151393            1.0000000              1.0000000
D    1   1.00
      3.5000000              1.0000000
D    1   1.00
      0.8750000              1.0000000
F    1   1.00
      1.8500000              1.0000000
****
Al     0
S    6   1.00
  13983.1000000              0.00194267
   2098.7500000              0.0148599
    477.7050000              0.0728494
    134.3600000              0.2468300
     42.8709000              0.4872580
     14.5189000              0.3234960
SP   6   1.00
    239.6680000             -0.00292619             0.00460285
     57.4419000             -0.0374080              0.0331990
     18.2859000             -0.1144870              0.1362820
      6.5991400              0.1156350              0.3304760
      2.4904900              0.6125950              0.4491460
      0.9445400              0.3937990              0.2657040
SP   3   1.00
      1.2779000             -0.2276060             -0.0175130
      0.3975900              0.00144583             0.2445330
      0.1600950              1.0927900              0.8049340
SP   1   1.00
      0.0556577              1.0000000              1.0000000
D    1   1.00
      0.6500000              1.0000000
D    1   1.00
      0.1625000              1.0000000
F    1   1.00
      0.2500000              1.0000000
****
Si     0
S    6   1.00
  16115.9000000              0.00195948
   2425.5800000              0.01492880
    553.8670000              0.07284780
    156.3400000              0.24613000
     50.0683000              0.48591400
     17.0178000              0.32500200
SP   6   1.00
    292.7180000             -0.00278094             0.00443826
     69.8731000             -0.03571460             0.03266790
     22.3363000             -0.11498500             0.13472100
      8.1503900              0.09356340             0.32867800
      3.1345800              0.60301700             0.44964000
      1.2254300              0.41895900             0.26137200
SP   3   1.00
      1.7273800             -0.24463000            -0.01779510
      0.5729220              0.00431572             0.25353900
      0.2221920              1.09818000             0.80066900
SP   1   1.00
      0.0778369              1.00000000             1.00000000
D    1   1.00
      0.9000000              1.0000000
D    1   1.00
      0.2250000              1.0000000
F    1   1.00
      0.3200000              1.0000000
****
P     0
S    6   1.00
  19413.3000000              0.0018516
   2909.4200000              0.0142062
    661.3640000              0.0699995
    185.7590000              0.2400790
     59.1943000              0.4847620
     20.0310000              0.3352000
SP   6   1.00
    339.4780000             -0.00278217             0.00456462
     81.0101000             -0.0360499              0.03369360
     25.8780000             -0.1166310              0.13975500
      9.4522100              0.0968328              0.33936200
      3.6656600              0.6144180              0.45092100
      1.4674600              0.4037980              0.23858600
SP   3   1.00
      2.1562300             -0.2529230             -0.01776530
      0.7489970              0.0328517              0.27405800
      0.2831450              1.0812500              0.78542100
SP   1   1.00
      0.0998317              1.0000000              1.00000000
D    1   1.00
      1.1000000              1.0000000
D    1   1.00
      0.2750000              1.0000000
F    1   1.00
      0.4500000              1.0000000
****
S     0
S    6   1.00
  21917.1000000              0.0018690
   3301.4900000              0.0142300
    754.1460000              0.0696960
    212.7110000              0.2384870
     67.9896000              0.4833070
     23.0515000              0.3380740
SP   6   1.00
    423.7350000             -0.0023767              0.0040610
    100.7100000             -0.0316930              0.0306810
     32.1599000             -0.1133170              0.1304520
     11.8079000              0.0560900              0.3272050
      4.6311000              0.5922550              0.4528510
      1.8702500              0.4550060              0.2560420
SP   3   1.00
      2.6158400             -0.2503740             -0.0145110
      0.9221670              0.0669570              0.3102630
      0.3412870              1.0545100              0.7544830
SP   1   1.00
      0.1171670              1.0000000              1.0000000
D    1   1.00
      1.3000000              1.0000000
D    1   1.00
      0.3250000              1.0000000
F    1   1.00
      0.5500000              1.0000000
****
Cl     0
S    6   1.00
  25180.1000000              0.0018330
   3780.3500000              0.0140340
    860.4740000              0.0690970
    242.1450000              0.2374520
     77.3349000              0.4830340
     26.2470000              0.3398560
SP   6   1.00
    491.7650000             -0.0022974              0.0039894
    116.9840000             -0.0307140              0.0303180
     37.4153000             -0.1125280              0.1298800
     13.7834000              0.0450160              0.3279510
      5.4521500              0.5893530              0.4535270
      2.2258800              0.4652060              0.2521540
SP   3   1.00
      3.1864900             -0.2518300             -0.0142990
      1.1442700              0.0615890              0.3235720
      0.4203770              1.0601800              0.7435070
SP   1   1.00
      0.1426570              1.0000000              1.0000000
D    1   1.00
      1.5000000              1.0000000
D    1   1.00
      0.3750000              1.0000000
F    1   1.00
      0.7000000              1.0000000
****
}

set {
reference uhf
freeze_core true
e_convergence 10
d_convergence 10
dft_spherical_points 1202
dft_radial_points 99
}

e = energy('b3lyp')

print_out('Grab this energy {0}'.format(e))
--------------------------------------------------------------------------

    Molecular point group: c1

    Geometry (in Bohr), charge = 0, multiplicity = 2:

       Center              X                  Y                   Z               Mass
    ------------   -----------------  -----------------  -----------------  -----------------
         C           -0.258735923150     0.804501370038    -0.001505487652    12.000000000000
         O           -2.191219205750    -0.332855578562    -0.000227533852    15.994914619570
         C            2.409717887150    -0.245637134362     0.002093422248    12.000000000000
         H            2.382853777150    -2.308955277762    -0.001527410152     1.007825032230
         H            3.390829754350     0.468529043638    -1.665161135352     1.007825032230
         H            3.391181643850     0.468785101838     1.663299236348     1.007825032230

  Charge       = 0
  Multiplicity = 2
  Basis Set: ANONYMOUS88198E87
    Blend: 6-31G_2DFP_
  Basis Set: (ANONYMOUS88198E87 AUX)
    Blend: DEF2-UNIVERSAL-JKFIT

    Orbital Energies [Eh]
    ---------------------

    Alpha Occupied:

       1A    -19.186882     2A    -10.271555     3A    -10.210389
       4A     -1.081307     5A     -0.761990     6A     -0.543929
       7A     -0.466576     8A     -0.457413     9A     -0.456296
      10A     -0.387533    11A     -0.386059    12A     -0.192065

    Alpha Virtual:

      13A     -0.018846    14A      0.091739    15A      0.136889
      16A      0.141264    17A      0.217888    18A      0.268214
      19A      0.428088    20A      0.431727    21A      0.443726
      22A      0.493599    23A      0.506250    24A      0.530272
      25A      0.562946    26A      0.577477    27A      0.608545
      28A      0.615885    29A      0.644096    30A      0.717682
      31A      0.766119    32A      0.785332    33A      0.832265
      34A      0.917279    35A      0.927077    36A      0.935707
      37A      1.023238    38A      1.085390    39A      1.107624
      40A      1.153355    41A      1.221777    42A      1.306427
      43A      1.316658    44A      1.327570    45A      1.403230
      46A      1.407758    47A      1.468133    48A      1.559945
      49A      1.630595    50A      1.653872    51A      1.720320
      52A      1.813333    53A      1.834536    54A      1.901350
      55A      2.065409    56A      2.166524    57A      2.495610
      58A      2.680245    59A      2.744102    60A      2.784003
      61A      2.842110    62A      2.894532    63A      2.973465
      64A      3.031208    65A      3.058319    66A      3.104929
      67A      3.115071    68A      3.182285    69A      3.314349
      70A      3.369373    71A      3.393215    72A      3.440338
      73A      3.465695    74A      3.485883    75A      3.570519
      76A      3.739658    77A      3.762104    78A      3.942925
      79A      3.982439    80A      4.055750    81A      4.110116
      82A      4.119725    83A      4.189180    84A      4.389107
      85A      4.434199    86A      4.448615    87A      4.532740
      88A      4.919089    89A      5.037045    90A      5.042261
      91A      5.198222    92A      5.207319    93A      5.473786
      94A      5.482567    95A      5.826672    96A      5.930539
      97A      6.104367    98A      6.770686    99A      6.772854
     100A      7.071037   101A      7.135075   102A      7.529979

    Beta Occupied:

       1A    -19.178816     2A    -10.261494     3A    -10.207012
       4A     -1.065381     5A     -0.750198     6A     -0.524219
       7A     -0.451770     8A     -0.446859     9A     -0.438913
      10A     -0.382344    11A     -0.347882

    Beta Virtual:

      12A     -0.052594    13A     -0.002571    14A      0.094444
      15A      0.142577    16A      0.144398    17A      0.228317
      18A      0.273896    19A      0.433707    20A      0.435270
      21A      0.465771    22A      0.500292    23A      0.527610
      24A      0.539210    25A      0.569316    26A      0.581670
      27A      0.623083    28A      0.627142    29A      0.649807
      30A      0.739662    31A      0.777262    32A      0.795311
      33A      0.833044    34A      0.922123    35A      0.943457
      36A      0.951012    37A      1.027429    38A      1.091528
      39A      1.109696    40A      1.159561    41A      1.231032
      42A      1.311999    43A      1.319489    44A      1.334351
      45A      1.412196    46A      1.414675    47A      1.480451
      48A      1.571111    49A      1.643879    50A      1.668253
      51A      1.726558    52A      1.816496    53A      1.848666
      54A      1.908015    55A      2.072122    56A      2.187936
      57A      2.508286    58A      2.694513    59A      2.758564
      60A      2.805101    61A      2.857484    62A      2.896175
      63A      2.982949    64A      3.047969    65A      3.066905
      66A      3.122924    67A      3.124176    68A      3.216997
      69A      3.357997    70A      3.380839    71A      3.399477
      72A      3.448511    73A      3.481467    74A      3.508927
      75A      3.583777    76A      3.765409    77A      3.771503
      78A      3.951620    79A      3.991730    80A      4.072119
      81A      4.122422    82A      4.124873    83A      4.200903
      84A      4.391359    85A      4.440395    86A      4.452817
      87A      4.543621    88A      4.922967    89A      5.054548
      90A      5.060268    91A      5.200388    92A      5.213043
      93A      5.486427    94A      5.496457    95A      5.839915
      96A      5.936128    97A      6.127567    98A      6.799968
      99A      6.802478   100A      7.075337   101A      7.164450
     102A      7.541644

    Final Occupation by Irrep:
              A
    DOCC [    11 ]
    SOCC [     1 ]

  @DF-UKS Final Energy:  -153.18843650126703

   => Energetics <=

    Nuclear Repulsion Energy =             62.7917980097037827
    One-Electron Energy =                -331.5833874141176238
    Two-Electron Energy =                 132.1837107832025140
    DFT Exchange-Correlation Energy =     -16.5805578800557036
    Empirical Dispersion Energy =           0.0000000000000000
    VV10 Nonlocal Energy =                  0.0000000000000000
    Total Energy =                       -153.1884365012670344

  UHF NO Occupations:
  HONO-2 :   10  A 1.9997847
  HONO-1 :   11  A 1.9992019
  HONO-0 :   12  A 1.0000000
  LUNO+0 :   13  A 0.0007981
  LUNO+1 :   14  A 0.0002153
  LUNO+2 :   15  A 0.0001800
  LUNO+3 :   16  A 0.0000615

Computation Completed

Properties will be evaluated at   0.000000,   0.000000,   0.000000 [a0]

Properties computed using the SCF density matrix

  Nuclear Dipole Moment: [e a0]
     X:     4.5410      Y:    -0.6813      Z:    -0.0017

  Electronic Dipole Moment: [e a0]
     X:    -3.6096      Y:     0.6309      Z:     0.0020

  Dipole Moment: [e a0]
     X:     0.9314      Y:    -0.0504      Z:     0.0004     Total:     0.9328

  Dipole Moment: [D]
     X:     2.3674      Y:    -0.1281      Z:     0.0009     Total:     2.3709

*** tstop() called on n066 at Tue Mar 15 10:27:23 2022
Module time:
	user time   =      50.81 seconds =       0.85 minutes
	system time =       0.49 seconds =       0.01 minutes
	total time  =         51 seconds =       0.85 minutes
Total time:
	user time   =      50.81 seconds =       0.85 minutes
	system time =       0.49 seconds =       0.01 minutes
	total time  =         51 seconds =       0.85 minutes
Grab this energy -153.18843650126703
    Psi4 stopped on: Tuesday, 15 March 2022 10:27AM
    Psi4 wall time for execution: 0:00:51.34

*** Psi4 exiting successfully. Buy a developer a beer!
