                               Psi4 1.4a2.dev629

  ==> Input File <==

--------------------------------------------------------------------------
import os
memory 14 GB

molecule {
 C   -0.2541158136    0.8026461287   -0.0000000000
 O   -2.1790868914   -0.3422263514    0.0000000097
 C    2.4065015522   -0.2397125564    0.0000000103
 H    2.3734796271   -2.3025785179    0.0000000309
 H    3.3899095628    0.4760028743   -1.6631460626
 H    3.3899099129    0.4760030428    1.6631458316
units bohr
0 2
}

basis {

assign 6-31g_2dfp_

[ 6-31g_2dfp_ ]

spherical

!----------------------------------------------------------------------
! Basis Set Exchange
! Version v0.8.13
! https://www.basissetexchange.org
!----------------------------------------------------------------------
!   Basis set: 6-31G(2df,p)
! Description: 6-31G(2df,p)
!        Role: orbital
!     Version: 0  (Data from the original Basis Set Exchange)
!----------------------------------------------------------------------

****
H     0
S    3   1.00
     18.7311370              0.03349460
      2.8253937              0.23472695
      0.6401217              0.81375733
S    1   1.00
      0.1612778              1.00000000
P    1   1.00
      1.5000000              1.0000000
P    1   1.00
      0.3750000              1.0000000
****
B     0
S    6   1.00
   2068.8823000              0.0018663
    310.6495700              0.0142515
     70.6830330              0.0695516
     19.8610800              0.2325729
      6.2993048              0.4670787
      2.1270270              0.3634314
SP   3   1.00
      4.7279710             -0.1303938              0.0745976
      1.1903377             -0.1307889              0.3078467
      0.3594117              1.1309444              0.7434568
SP   1   1.00
      0.1267512              1.0000000              1.0000000
D    1   1.00
      0.8020000              1.0000000
D    1   1.00
      0.2005000              1.0000000
F    1   1.00
      0.5000000              1.0000000
****
C     0
S    6   1.00
   3047.5249000              0.0018347
    457.3695100              0.0140373
    103.9486900              0.0688426
     29.2101550              0.2321844
      9.2866630              0.4679413
      3.1639270              0.3623120
SP   3   1.00
      7.8682724             -0.1193324              0.0689991
      1.8812885             -0.1608542              0.3164240
      0.5442493              1.1434564              0.7443083
SP   1   1.00
      0.1687144              1.0000000              1.0000000
D    1   1.00
      1.2520000              1.0000000
D    1   1.00
      0.3130000              1.0000000
F    1   1.00
      0.8000000              1.0000000
****
N     0
S    6   1.00
   4173.5110000              0.0018348
    627.4579000              0.0139950
    142.9021000              0.0685870
     40.2343300              0.2322410
     12.8202100              0.4690700
      4.3904370              0.3604550
SP   3   1.00
     11.6263580             -0.1149610              0.0675800
      2.7162800             -0.1691180              0.3239070
      0.7722180              1.1458520              0.7408950
SP   1   1.00
      0.2120313              1.0000000              1.0000000
D    1   1.00
      1.8260000              1.0000000
D    1   1.00
      0.4565000              1.0000000
F    1   1.00
      1.0000000              1.0000000
****
O     0
S    6   1.00
   5484.6717000              0.0018311
    825.2349500              0.0139501
    188.0469600              0.0684451
     52.9645000              0.2327143
     16.8975700              0.4701930
      5.7996353              0.3585209
SP   3   1.00
     15.5396160             -0.1107775              0.0708743
      3.5999336             -0.1480263              0.3397528
      1.0137618              1.1307670              0.7271586
SP   1   1.00
      0.2700058              1.0000000              1.0000000
D    1   1.00
      2.5840000              1.0000000
D    1   1.00
      0.6460000              1.0000000
F    1   1.00
      1.4000000              1.0000000
****
F     0
S    6   1.00
   7001.7130900              0.0018196169
   1051.3660900              0.0139160796
    239.2856900              0.0684053245
     67.3974453              0.233185760
     21.5199573              0.471267439
      7.40310130             0.356618546
SP   3   1.00
     20.8479528             -0.108506975            0.0716287243
      4.80830834            -0.146451658            0.3459121030
      1.34406986             1.128688580            0.7224699570
SP   1   1.00
      0.358151393            1.0000000              1.0000000
D    1   1.00
      3.5000000              1.0000000
D    1   1.00
      0.8750000              1.0000000
F    1   1.00
      1.8500000              1.0000000
****
Al     0
S    6   1.00
  13983.1000000              0.00194267
   2098.7500000              0.0148599
    477.7050000              0.0728494
    134.3600000              0.2468300
     42.8709000              0.4872580
     14.5189000              0.3234960
SP   6   1.00
    239.6680000             -0.00292619             0.00460285
     57.4419000             -0.0374080              0.0331990
     18.2859000             -0.1144870              0.1362820
      6.5991400              0.1156350              0.3304760
      2.4904900              0.6125950              0.4491460
      0.9445400              0.3937990              0.2657040
SP   3   1.00
      1.2779000             -0.2276060             -0.0175130
      0.3975900              0.00144583             0.2445330
      0.1600950              1.0927900              0.8049340
SP   1   1.00
      0.0556577              1.0000000              1.0000000
D    1   1.00
      0.6500000              1.0000000
D    1   1.00
      0.1625000              1.0000000
F    1   1.00
      0.2500000              1.0000000
****
Si     0
S    6   1.00
  16115.9000000              0.00195948
   2425.5800000              0.01492880
    553.8670000              0.07284780
    156.3400000              0.24613000
     50.0683000              0.48591400
     17.0178000              0.32500200
SP   6   1.00
    292.7180000             -0.00278094             0.00443826
     69.8731000             -0.03571460             0.03266790
     22.3363000             -0.11498500             0.13472100
      8.1503900              0.09356340             0.32867800
      3.1345800              0.60301700             0.44964000
      1.2254300              0.41895900             0.26137200
SP   3   1.00
      1.7273800             -0.24463000            -0.01779510
      0.5729220              0.00431572             0.25353900
      0.2221920              1.09818000             0.80066900
SP   1   1.00
      0.0778369              1.00000000             1.00000000
D    1   1.00
      0.9000000              1.0000000
D    1   1.00
      0.2250000              1.0000000
F    1   1.00
      0.3200000              1.0000000
****
P     0
S    6   1.00
  19413.3000000              0.0018516
   2909.4200000              0.0142062
    661.3640000              0.0699995
    185.7590000              0.2400790
     59.1943000              0.4847620
     20.0310000              0.3352000
SP   6   1.00
    339.4780000             -0.00278217             0.00456462
     81.0101000             -0.0360499              0.03369360
     25.8780000             -0.1166310              0.13975500
      9.4522100              0.0968328              0.33936200
      3.6656600              0.6144180              0.45092100
      1.4674600              0.4037980              0.23858600
SP   3   1.00
      2.1562300             -0.2529230             -0.01776530
      0.7489970              0.0328517              0.27405800
      0.2831450              1.0812500              0.78542100
SP   1   1.00
      0.0998317              1.0000000              1.00000000
D    1   1.00
      1.1000000              1.0000000
D    1   1.00
      0.2750000              1.0000000
F    1   1.00
      0.4500000              1.0000000
****
S     0
S    6   1.00
  21917.1000000              0.0018690
   3301.4900000              0.0142300
    754.1460000              0.0696960
    212.7110000              0.2384870
     67.9896000              0.4833070
     23.0515000              0.3380740
SP   6   1.00
    423.7350000             -0.0023767              0.0040610
    100.7100000             -0.0316930              0.0306810
     32.1599000             -0.1133170              0.1304520
     11.8079000              0.0560900              0.3272050
      4.6311000              0.5922550              0.4528510
      1.8702500              0.4550060              0.2560420
SP   3   1.00
      2.6158400             -0.2503740             -0.0145110
      0.9221670              0.0669570              0.3102630
      0.3412870              1.0545100              0.7544830
SP   1   1.00
      0.1171670              1.0000000              1.0000000
D    1   1.00
      1.3000000              1.0000000
D    1   1.00
      0.3250000              1.0000000
F    1   1.00
      0.5500000              1.0000000
****
Cl     0
S    6   1.00
  25180.1000000              0.0018330
   3780.3500000              0.0140340
    860.4740000              0.0690970
    242.1450000              0.2374520
     77.3349000              0.4830340
     26.2470000              0.3398560
SP   6   1.00
    491.7650000             -0.0022974              0.0039894
    116.9840000             -0.0307140              0.0303180
     37.4153000             -0.1125280              0.1298800
     13.7834000              0.0450160              0.3279510
      5.4521500              0.5893530              0.4535270
      2.2258800              0.4652060              0.2521540
SP   3   1.00
      3.1864900             -0.2518300             -0.0142990
      1.1442700              0.0615890              0.3235720
      0.4203770              1.0601800              0.7435070
SP   1   1.00
      0.1426570              1.0000000              1.0000000
D    1   1.00
      1.5000000              1.0000000
D    1   1.00
      0.3750000              1.0000000
F    1   1.00
      0.7000000              1.0000000
****
}

set {
reference uhf
freeze_core true
e_convergence 10
d_convergence 10
dft_spherical_points 1202
dft_radial_points 99
}

e = energy('b3lyp')

print_out('Grab this energy {0}'.format(e))
--------------------------------------------------------------------------

    Molecular point group: c1

    Geometry (in Bohr), charge = 0, multiplicity = 2:

       Center              X                  Y                   Z               Mass
    ------------   -----------------  -----------------  -----------------  -----------------
         C           -0.258747415369     0.804501597467    -0.000000001792    12.000000000000
         O           -2.183718493169    -0.340370882633     0.000000007908    15.994914619570
         C            2.401869950431    -0.237857087633     0.000000008508    12.000000000000
         H            2.368848025331    -2.300723049133     0.000000029108     1.007825032230
         H            3.385277961031     0.477858343067    -1.663146064392     1.007825032230
         H            3.385278311131     0.477858511567     1.663145829808     1.007825032230

  Charge       = 0
  Multiplicity = 2
  Basis Set: ANONYMOUSD1A8EECA
    Blend: 6-31G_2DFP_
  Basis Set: (ANONYMOUSD1A8EECA AUX)
    Blend: DEF2-UNIVERSAL-JKFIT

    Orbital Energies [Eh]
    ---------------------

    Alpha Occupied:

       1A    -19.186534     2A    -10.270796     3A    -10.209998
       4A     -1.081967     5A     -0.762819     6A     -0.543773
       7A     -0.467520     8A     -0.457580     9A     -0.456661
      10A     -0.387376    11A     -0.385969    12A     -0.191763

    Alpha Virtual:

      13A     -0.018326    14A      0.091786    15A      0.136973
      16A      0.141152    17A      0.219842    18A      0.268628
      19A      0.428319    20A      0.431671    21A      0.444286
      22A      0.493937    23A      0.505977    24A      0.530508
      25A      0.562350    26A      0.577822    27A      0.609902
      28A      0.616611    29A      0.644598    30A      0.717360
      31A      0.767177    32A      0.785930    33A      0.831892
      34A      0.917220    35A      0.927510    36A      0.938050
      37A      1.024322    38A      1.084610    39A      1.108418
      40A      1.155307    41A      1.223368    42A      1.307748
      43A      1.316054    44A      1.329228    45A      1.404891
      46A      1.407856    47A      1.469341    48A      1.560337
      49A      1.631010    50A      1.654484    51A      1.719836
      52A      1.813354    53A      1.838262    54A      1.902328
      55A      2.066049    56A      2.166780    57A      2.498308
      58A      2.680627    59A      2.745831    60A      2.784398
      61A      2.842443    62A      2.893866    63A      2.973128
      64A      3.033029    65A      3.060204    66A      3.104554
      67A      3.118380    68A      3.182786    69A      3.315408
      70A      3.372299    71A      3.391582    72A      3.442430
      73A      3.468502    74A      3.487482    75A      3.570389
      76A      3.743051    77A      3.765572    78A      3.945136
      79A      3.987417    80A      4.061854    81A      4.116297
      82A      4.118375    83A      4.192491    84A      4.389206
      85A      4.441191    86A      4.451924    87A      4.533747
      88A      4.919857    89A      5.037301    90A      5.042746
      91A      5.198475    92A      5.207517    93A      5.477309
      94A      5.486183    95A      5.826882    96A      5.933630
      97A      6.108129    98A      6.771398    99A      6.773449
     100A      7.071400   101A      7.135594   102A      7.531594

    Beta Occupied:

       1A    -19.178458     2A    -10.260733     3A    -10.206643
       4A     -1.066036     5A     -0.751005     6A     -0.524170
       7A     -0.452090     8A     -0.447415     9A     -0.439464
      10A     -0.382231    11A     -0.347750

    Beta Virtual:

      12A     -0.052203    13A     -0.002070    14A      0.094499
      15A      0.142703    16A      0.144297    17A      0.230039
      18A      0.274290    19A      0.433637    20A      0.434847
      21A      0.467235    22A      0.500649    23A      0.527296
      24A      0.539238    25A      0.568669    26A      0.581996
      27A      0.623773    28A      0.628429    29A      0.650379
      30A      0.739388    31A      0.778358    32A      0.795871
      33A      0.832691    34A      0.922081    35A      0.946549
      36A      0.950709    37A      1.028529    38A      1.090877
      39A      1.110431    40A      1.161481    41A      1.232545
      42A      1.313370    43A      1.318828    44A      1.336025
      45A      1.413379    46A      1.415424    47A      1.481786
      48A      1.571413    49A      1.644231    50A      1.668953
      51A      1.726131    52A      1.816514    53A      1.852350
      54A      1.909053    55A      2.072784    56A      2.188284
      57A      2.510966    58A      2.694938    59A      2.760370
      60A      2.805310    61A      2.857628    62A      2.895495
      63A      2.982621    64A      3.049733    65A      3.068742
      66A      3.123398    67A      3.126812    68A      3.217455
      69A      3.358877    70A      3.383573    71A      3.397888
      72A      3.449934    73A      3.484930    74A      3.510662
      75A      3.583720    76A      3.768398    77A      3.775340
      78A      3.953925    79A      3.996675    80A      4.078138
      81A      4.121184    82A      4.129819    83A      4.205181
      84A      4.391445    85A      4.447476    86A      4.456139
      87A      4.544662    88A      4.923725    89A      5.054811
      90A      5.060794    91A      5.200652    92A      5.213322
      93A      5.489909    94A      5.500095    95A      5.840163
      96A      5.939221    97A      6.131386    98A      6.800729
      99A      6.803133   100A      7.075697   101A      7.165005
     102A      7.543259

    Final Occupation by Irrep:
              A
    DOCC [    11 ]
    SOCC [     1 ]

  @DF-UKS Final Energy:  -153.18844011880952

   => Energetics <=

    Nuclear Repulsion Energy =             62.9177893312259471
    One-Electron Energy =                -331.8317045925020921
    Two-Electron Energy =                 132.3087017173535855
    DFT Exchange-Correlation Energy =     -16.5832265748869609
    Empirical Dispersion Energy =           0.0000000000000000
    VV10 Nonlocal Energy =                  0.0000000000000000
    Total Energy =                       -153.1884401188095239

  UHF NO Occupations:
  HONO-2 :   10  A 1.9997891
  HONO-1 :   11  A 1.9992023
  HONO-0 :   12  A 1.0000000
  LUNO+0 :   13  A 0.0007977
  LUNO+1 :   14  A 0.0002109
  LUNO+2 :   15  A 0.0001788
  LUNO+3 :   16  A 0.0000615

Computation Completed

Properties will be evaluated at   0.000000,   0.000000,   0.000000 [a0]

Properties computed using the SCF density matrix

  Nuclear Dipole Moment: [e a0]
     X:     4.5284      Y:    -0.6681      Z:    -0.0000

  Electronic Dipole Moment: [e a0]
     X:    -3.5978      Y:     0.6211      Z:     0.0000

  Dipole Moment: [e a0]
     X:     0.9306      Y:    -0.0470      Z:    -0.0000     Total:     0.9318

  Dipole Moment: [D]
     X:     2.3653      Y:    -0.1194      Z:    -0.0000     Total:     2.3683

*** tstop() called on n049 at Thu Nov  4 14:56:24 2021
Module time:
	user time   =      50.75 seconds =       0.85 minutes
	system time =       0.50 seconds =       0.01 minutes
	total time  =         52 seconds =       0.87 minutes
Total time:
	user time   =      50.75 seconds =       0.85 minutes
	system time =       0.50 seconds =       0.01 minutes
	total time  =         52 seconds =       0.87 minutes
Grab this energy -153.18844011880952
    Psi4 stopped on: Thursday, 04 November 2021 02:56PM
    Psi4 wall time for execution: 0:00:51.29

*** Psi4 exiting successfully. Buy a developer a beer!
