                               Psi4 1.4a2.dev629

  ==> Input File <==

--------------------------------------------------------------------------
import os
memory 14 GB

molecule {
 C   -0.2598075418    0.8040848963    0.0041439400
 O   -2.1906617070   -0.3366510258   -0.0028176551
 C    2.4074855879   -0.2410937950    0.0012617776
 H    2.3876975948   -2.3048760794   -0.0004403051
 H    3.3910008881    0.4731420104   -1.6650701211
 H    3.3908831281    0.4755286135    1.6629221836
units bohr
0 2
}

basis {

assign 6-31g_2dfp_

[ 6-31g_2dfp_ ]

spherical

!----------------------------------------------------------------------
! Basis Set Exchange
! Version v0.8.13
! https://www.basissetexchange.org
!----------------------------------------------------------------------
!   Basis set: 6-31G(2df,p)
! Description: 6-31G(2df,p)
!        Role: orbital
!     Version: 0  (Data from the original Basis Set Exchange)
!----------------------------------------------------------------------

****
H     0
S    3   1.00
     18.7311370              0.03349460
      2.8253937              0.23472695
      0.6401217              0.81375733
S    1   1.00
      0.1612778              1.00000000
P    1   1.00
      1.5000000              1.0000000
P    1   1.00
      0.3750000              1.0000000
****
B     0
S    6   1.00
   2068.8823000              0.0018663
    310.6495700              0.0142515
     70.6830330              0.0695516
     19.8610800              0.2325729
      6.2993048              0.4670787
      2.1270270              0.3634314
SP   3   1.00
      4.7279710             -0.1303938              0.0745976
      1.1903377             -0.1307889              0.3078467
      0.3594117              1.1309444              0.7434568
SP   1   1.00
      0.1267512              1.0000000              1.0000000
D    1   1.00
      0.8020000              1.0000000
D    1   1.00
      0.2005000              1.0000000
F    1   1.00
      0.5000000              1.0000000
****
C     0
S    6   1.00
   3047.5249000              0.0018347
    457.3695100              0.0140373
    103.9486900              0.0688426
     29.2101550              0.2321844
      9.2866630              0.4679413
      3.1639270              0.3623120
SP   3   1.00
      7.8682724             -0.1193324              0.0689991
      1.8812885             -0.1608542              0.3164240
      0.5442493              1.1434564              0.7443083
SP   1   1.00
      0.1687144              1.0000000              1.0000000
D    1   1.00
      1.2520000              1.0000000
D    1   1.00
      0.3130000              1.0000000
F    1   1.00
      0.8000000              1.0000000
****
N     0
S    6   1.00
   4173.5110000              0.0018348
    627.4579000              0.0139950
    142.9021000              0.0685870
     40.2343300              0.2322410
     12.8202100              0.4690700
      4.3904370              0.3604550
SP   3   1.00
     11.6263580             -0.1149610              0.0675800
      2.7162800             -0.1691180              0.3239070
      0.7722180              1.1458520              0.7408950
SP   1   1.00
      0.2120313              1.0000000              1.0000000
D    1   1.00
      1.8260000              1.0000000
D    1   1.00
      0.4565000              1.0000000
F    1   1.00
      1.0000000              1.0000000
****
O     0
S    6   1.00
   5484.6717000              0.0018311
    825.2349500              0.0139501
    188.0469600              0.0684451
     52.9645000              0.2327143
     16.8975700              0.4701930
      5.7996353              0.3585209
SP   3   1.00
     15.5396160             -0.1107775              0.0708743
      3.5999336             -0.1480263              0.3397528
      1.0137618              1.1307670              0.7271586
SP   1   1.00
      0.2700058              1.0000000              1.0000000
D    1   1.00
      2.5840000              1.0000000
D    1   1.00
      0.6460000              1.0000000
F    1   1.00
      1.4000000              1.0000000
****
F     0
S    6   1.00
   7001.7130900              0.0018196169
   1051.3660900              0.0139160796
    239.2856900              0.0684053245
     67.3974453              0.233185760
     21.5199573              0.471267439
      7.40310130             0.356618546
SP   3   1.00
     20.8479528             -0.108506975            0.0716287243
      4.80830834            -0.146451658            0.3459121030
      1.34406986             1.128688580            0.7224699570
SP   1   1.00
      0.358151393            1.0000000              1.0000000
D    1   1.00
      3.5000000              1.0000000
D    1   1.00
      0.8750000              1.0000000
F    1   1.00
      1.8500000              1.0000000
****
Al     0
S    6   1.00
  13983.1000000              0.00194267
   2098.7500000              0.0148599
    477.7050000              0.0728494
    134.3600000              0.2468300
     42.8709000              0.4872580
     14.5189000              0.3234960
SP   6   1.00
    239.6680000             -0.00292619             0.00460285
     57.4419000             -0.0374080              0.0331990
     18.2859000             -0.1144870              0.1362820
      6.5991400              0.1156350              0.3304760
      2.4904900              0.6125950              0.4491460
      0.9445400              0.3937990              0.2657040
SP   3   1.00
      1.2779000             -0.2276060             -0.0175130
      0.3975900              0.00144583             0.2445330
      0.1600950              1.0927900              0.8049340
SP   1   1.00
      0.0556577              1.0000000              1.0000000
D    1   1.00
      0.6500000              1.0000000
D    1   1.00
      0.1625000              1.0000000
F    1   1.00
      0.2500000              1.0000000
****
Si     0
S    6   1.00
  16115.9000000              0.00195948
   2425.5800000              0.01492880
    553.8670000              0.07284780
    156.3400000              0.24613000
     50.0683000              0.48591400
     17.0178000              0.32500200
SP   6   1.00
    292.7180000             -0.00278094             0.00443826
     69.8731000             -0.03571460             0.03266790
     22.3363000             -0.11498500             0.13472100
      8.1503900              0.09356340             0.32867800
      3.1345800              0.60301700             0.44964000
      1.2254300              0.41895900             0.26137200
SP   3   1.00
      1.7273800             -0.24463000            -0.01779510
      0.5729220              0.00431572             0.25353900
      0.2221920              1.09818000             0.80066900
SP   1   1.00
      0.0778369              1.00000000             1.00000000
D    1   1.00
      0.9000000              1.0000000
D    1   1.00
      0.2250000              1.0000000
F    1   1.00
      0.3200000              1.0000000
****
P     0
S    6   1.00
  19413.3000000              0.0018516
   2909.4200000              0.0142062
    661.3640000              0.0699995
    185.7590000              0.2400790
     59.1943000              0.4847620
     20.0310000              0.3352000
SP   6   1.00
    339.4780000             -0.00278217             0.00456462
     81.0101000             -0.0360499              0.03369360
     25.8780000             -0.1166310              0.13975500
      9.4522100              0.0968328              0.33936200
      3.6656600              0.6144180              0.45092100
      1.4674600              0.4037980              0.23858600
SP   3   1.00
      2.1562300             -0.2529230             -0.01776530
      0.7489970              0.0328517              0.27405800
      0.2831450              1.0812500              0.78542100
SP   1   1.00
      0.0998317              1.0000000              1.00000000
D    1   1.00
      1.1000000              1.0000000
D    1   1.00
      0.2750000              1.0000000
F    1   1.00
      0.4500000              1.0000000
****
S     0
S    6   1.00
  21917.1000000              0.0018690
   3301.4900000              0.0142300
    754.1460000              0.0696960
    212.7110000              0.2384870
     67.9896000              0.4833070
     23.0515000              0.3380740
SP   6   1.00
    423.7350000             -0.0023767              0.0040610
    100.7100000             -0.0316930              0.0306810
     32.1599000             -0.1133170              0.1304520
     11.8079000              0.0560900              0.3272050
      4.6311000              0.5922550              0.4528510
      1.8702500              0.4550060              0.2560420
SP   3   1.00
      2.6158400             -0.2503740             -0.0145110
      0.9221670              0.0669570              0.3102630
      0.3412870              1.0545100              0.7544830
SP   1   1.00
      0.1171670              1.0000000              1.0000000
D    1   1.00
      1.3000000              1.0000000
D    1   1.00
      0.3250000              1.0000000
F    1   1.00
      0.5500000              1.0000000
****
Cl     0
S    6   1.00
  25180.1000000              0.0018330
   3780.3500000              0.0140340
    860.4740000              0.0690970
    242.1450000              0.2374520
     77.3349000              0.4830340
     26.2470000              0.3398560
SP   6   1.00
    491.7650000             -0.0022974              0.0039894
    116.9840000             -0.0307140              0.0303180
     37.4153000             -0.1125280              0.1298800
     13.7834000              0.0450160              0.3279510
      5.4521500              0.5893530              0.4535270
      2.2258800              0.4652060              0.2521540
SP   3   1.00
      3.1864900             -0.2518300             -0.0142990
      1.1442700              0.0615890              0.3235720
      0.4203770              1.0601800              0.7435070
SP   1   1.00
      0.1426570              1.0000000              1.0000000
D    1   1.00
      1.5000000              1.0000000
D    1   1.00
      0.3750000              1.0000000
F    1   1.00
      0.7000000              1.0000000
****
}

set {
reference uhf
freeze_core true
e_convergence 10
d_convergence 10
dft_spherical_points 1202
dft_radial_points 99
}

e = energy('b3lyp')

print_out('Grab this energy {0}'.format(e))
--------------------------------------------------------------------------

    Molecular point group: c1

    Geometry (in Bohr), charge = 0, multiplicity = 2:

       Center              X                  Y                   Z               Mass
    ------------   -----------------  -----------------  -----------------  -----------------
         C           -0.259203694744     0.803983288721     0.003744297827    12.000000000000
         O           -2.190057859944    -0.336752633379    -0.003217297273    15.994914619570
         C            2.408089434956    -0.241195402579     0.000862135427    12.000000000000
         H            2.388301441856    -2.304977686979    -0.000839947273     1.007825032230
         H            3.391604735156     0.473040402821    -1.665469763273     1.007825032230
         H            3.391486975156     0.475427005921     1.662522541427     1.007825032230

  Charge       = 0
  Multiplicity = 2
  Basis Set: ANONYMOUS626EF3C3
    Blend: 6-31G_2DFP_
  Basis Set: (ANONYMOUS626EF3C3 AUX)
    Blend: DEF2-UNIVERSAL-JKFIT

    Orbital Energies [Eh]
    ---------------------

    Alpha Occupied:

       1A    -19.186854     2A    -10.271535     3A    -10.210448
       4A     -1.081217     5A     -0.762135     6A     -0.544075
       7A     -0.466587     8A     -0.457580     9A     -0.456175
      10A     -0.387323    11A     -0.385937    12A     -0.192155

    Alpha Virtual:

      13A     -0.018951    14A      0.091655    15A      0.136811
      16A      0.141126    17A      0.218458    18A      0.268278
      19A      0.428151    20A      0.431782    21A      0.443824
      22A      0.493544    23A      0.506148    24A      0.530111
      25A      0.562556    26A      0.577323    27A      0.608562
      28A      0.615901    29A      0.644195    30A      0.717629
      31A      0.766051    32A      0.785292    33A      0.832355
      34A      0.917300    35A      0.927068    36A      0.935704
      37A      1.023147    38A      1.085442    39A      1.108421
      40A      1.153310    41A      1.221717    42A      1.306940
      43A      1.317061    44A      1.328033    45A      1.403008
      46A      1.406440    47A      1.467899    48A      1.560144
      49A      1.630556    50A      1.653782    51A      1.719246
      52A      1.813207    53A      1.834772    54A      1.902313
      55A      2.065145    56A      2.166457    57A      2.495427
      58A      2.680194    59A      2.744544    60A      2.783682
      61A      2.841908    62A      2.894400    63A      2.973661
      64A      3.031079    65A      3.058353    66A      3.104963
      67A      3.115830    68A      3.182352    69A      3.314721
      70A      3.368907    71A      3.393327    72A      3.440215
      73A      3.465970    74A      3.486089    75A      3.569073
      76A      3.739619    77A      3.763769    78A      3.944101
      79A      3.982378    80A      4.056312    81A      4.110457
      82A      4.120428    83A      4.190142    84A      4.386823
      85A      4.433993    86A      4.448010    87A      4.534700
      88A      4.916646    89A      5.036990    90A      5.042306
      91A      5.197477    92A      5.207346    93A      5.473686
      94A      5.482733    95A      5.826847    96A      5.930389
      97A      6.104699    98A      6.770744    99A      6.772895
     100A      7.071284   101A      7.135147   102A      7.529971

    Beta Occupied:

       1A    -19.178779     2A    -10.261468     3A    -10.207082
       4A     -1.065272     5A     -0.750344     6A     -0.524383
       7A     -0.451640     8A     -0.446867     9A     -0.439052
      10A     -0.382156    11A     -0.347753

    Beta Virtual:

      12A     -0.052627    13A     -0.002682    14A      0.094349
      15A      0.142554    16A      0.144265    17A      0.228804
      18A      0.273960    19A      0.433728    20A      0.435215
      21A      0.466061    22A      0.500242    23A      0.527456
      24A      0.538999    25A      0.568886    26A      0.581522
      27A      0.623123    28A      0.627206    29A      0.649911
      30A      0.739603    31A      0.777188    32A      0.795279
      33A      0.833141    34A      0.922147    35A      0.943430
      36A      0.951037    37A      1.027335    38A      1.091520
      39A      1.110504    40A      1.159513    41A      1.230957
      42A      1.312542    43A      1.319911    44A      1.334818
      45A      1.411923    46A      1.413428    47A      1.480250
      48A      1.571287    49A      1.643804    50A      1.668174
      51A      1.725487    52A      1.816376    53A      1.848939
      54A      1.908995    55A      2.071859    56A      2.187891
      57A      2.508101    58A      2.694444    59A      2.759013
      60A      2.804776    61A      2.857281    62A      2.896051
      63A      2.983189    64A      3.047749    65A      3.066898
      66A      3.123587    67A      3.124366    68A      3.217066
      69A      3.358405    70A      3.380338    71A      3.399479
      72A      3.448251    73A      3.481888    74A      3.509012
      75A      3.582471    76A      3.765379    77A      3.773141
      78A      3.952782    79A      3.991651    80A      4.072686
      81A      4.123247    82A      4.125213    83A      4.201750
      84A      4.389009    85A      4.440200    86A      4.452292
      87A      4.545634    88A      4.920488    89A      5.054521
      90A      5.060334    91A      5.199652    92A      5.213100
      93A      5.486338    94A      5.496628    95A      5.840103
      96A      5.935982    97A      6.127922    98A      6.800058
      99A      6.802551   100A      7.075591   101A      7.164555
     102A      7.541646

    Final Occupation by Irrep:
              A
    DOCC [    11 ]
    SOCC [     1 ]

  @DF-UKS Final Energy:  -153.18844944387084

   => Energetics <=

    Nuclear Repulsion Energy =             62.8024421422857699
    One-Electron Energy =                -331.6048479931156407
    Two-Electron Energy =                 132.1944075650098966
    DFT Exchange-Correlation Energy =     -16.5804511580508738
    Empirical Dispersion Energy =           0.0000000000000000
    VV10 Nonlocal Energy =                  0.0000000000000000
    Total Energy =                       -153.1884494438708373

  UHF NO Occupations:
  HONO-2 :   10  A 1.9997863
  HONO-1 :   11  A 1.9992003
  HONO-0 :   12  A 1.0000000
  LUNO+0 :   13  A 0.0007997
  LUNO+1 :   14  A 0.0002137
  LUNO+2 :   15  A 0.0001800
  LUNO+3 :   16  A 0.0000616

Computation Completed

Properties will be evaluated at   0.000000,   0.000000,   0.000000 [a0]

Properties computed using the SCF density matrix

  Nuclear Dipole Moment: [e a0]
     X:     4.5442      Y:    -0.6738      Z:    -0.0019

  Electronic Dipole Moment: [e a0]
     X:    -3.6117      Y:     0.6251      Z:     0.0019

  Dipole Moment: [e a0]
     X:     0.9325      Y:    -0.0487      Z:    -0.0000     Total:     0.9338

  Dipole Moment: [D]
     X:     2.3703      Y:    -0.1237      Z:    -0.0000     Total:     2.3735

*** tstop() called on n089 at Thu Nov  4 14:45:47 2021
Module time:
	user time   =      44.61 seconds =       0.74 minutes
	system time =       0.54 seconds =       0.01 minutes
	total time  =         45 seconds =       0.75 minutes
Total time:
	user time   =      44.61 seconds =       0.74 minutes
	system time =       0.54 seconds =       0.01 minutes
	total time  =         45 seconds =       0.75 minutes
Grab this energy -153.18844944387084
    Psi4 stopped on: Thursday, 04 November 2021 02:45PM
    Psi4 wall time for execution: 0:00:45.20

*** Psi4 exiting successfully. Buy a developer a beer!
