                               Psi4 1.4a2.dev629

  ==> Input File <==

--------------------------------------------------------------------------
import os
memory 14 GB

molecule {
 C   -0.2569476028    0.8025127075    0.0009940189
 O   -2.1856148311   -0.3325859753   -0.0002721753
 C    2.4086828007   -0.2420335671   -0.0025966089
 H    2.3913437368   -2.3067536936    0.0010217440
 H    3.3847439373    0.4746273382   -1.6635308136
 H    3.3843899091    0.4743678103    1.6643836548
units bohr
0 2
}

basis {

assign 6-31g_2dfp_

[ 6-31g_2dfp_ ]

spherical

!----------------------------------------------------------------------
! Basis Set Exchange
! Version v0.8.13
! https://www.basissetexchange.org
!----------------------------------------------------------------------
!   Basis set: 6-31G(2df,p)
! Description: 6-31G(2df,p)
!        Role: orbital
!     Version: 0  (Data from the original Basis Set Exchange)
!----------------------------------------------------------------------

****
H     0
S    3   1.00
     18.7311370              0.03349460
      2.8253937              0.23472695
      0.6401217              0.81375733
S    1   1.00
      0.1612778              1.00000000
P    1   1.00
      1.5000000              1.0000000
P    1   1.00
      0.3750000              1.0000000
****
B     0
S    6   1.00
   2068.8823000              0.0018663
    310.6495700              0.0142515
     70.6830330              0.0695516
     19.8610800              0.2325729
      6.2993048              0.4670787
      2.1270270              0.3634314
SP   3   1.00
      4.7279710             -0.1303938              0.0745976
      1.1903377             -0.1307889              0.3078467
      0.3594117              1.1309444              0.7434568
SP   1   1.00
      0.1267512              1.0000000              1.0000000
D    1   1.00
      0.8020000              1.0000000
D    1   1.00
      0.2005000              1.0000000
F    1   1.00
      0.5000000              1.0000000
****
C     0
S    6   1.00
   3047.5249000              0.0018347
    457.3695100              0.0140373
    103.9486900              0.0688426
     29.2101550              0.2321844
      9.2866630              0.4679413
      3.1639270              0.3623120
SP   3   1.00
      7.8682724             -0.1193324              0.0689991
      1.8812885             -0.1608542              0.3164240
      0.5442493              1.1434564              0.7443083
SP   1   1.00
      0.1687144              1.0000000              1.0000000
D    1   1.00
      1.2520000              1.0000000
D    1   1.00
      0.3130000              1.0000000
F    1   1.00
      0.8000000              1.0000000
****
N     0
S    6   1.00
   4173.5110000              0.0018348
    627.4579000              0.0139950
    142.9021000              0.0685870
     40.2343300              0.2322410
     12.8202100              0.4690700
      4.3904370              0.3604550
SP   3   1.00
     11.6263580             -0.1149610              0.0675800
      2.7162800             -0.1691180              0.3239070
      0.7722180              1.1458520              0.7408950
SP   1   1.00
      0.2120313              1.0000000              1.0000000
D    1   1.00
      1.8260000              1.0000000
D    1   1.00
      0.4565000              1.0000000
F    1   1.00
      1.0000000              1.0000000
****
O     0
S    6   1.00
   5484.6717000              0.0018311
    825.2349500              0.0139501
    188.0469600              0.0684451
     52.9645000              0.2327143
     16.8975700              0.4701930
      5.7996353              0.3585209
SP   3   1.00
     15.5396160             -0.1107775              0.0708743
      3.5999336             -0.1480263              0.3397528
      1.0137618              1.1307670              0.7271586
SP   1   1.00
      0.2700058              1.0000000              1.0000000
D    1   1.00
      2.5840000              1.0000000
D    1   1.00
      0.6460000              1.0000000
F    1   1.00
      1.4000000              1.0000000
****
F     0
S    6   1.00
   7001.7130900              0.0018196169
   1051.3660900              0.0139160796
    239.2856900              0.0684053245
     67.3974453              0.233185760
     21.5199573              0.471267439
      7.40310130             0.356618546
SP   3   1.00
     20.8479528             -0.108506975            0.0716287243
      4.80830834            -0.146451658            0.3459121030
      1.34406986             1.128688580            0.7224699570
SP   1   1.00
      0.358151393            1.0000000              1.0000000
D    1   1.00
      3.5000000              1.0000000
D    1   1.00
      0.8750000              1.0000000
F    1   1.00
      1.8500000              1.0000000
****
Al     0
S    6   1.00
  13983.1000000              0.00194267
   2098.7500000              0.0148599
    477.7050000              0.0728494
    134.3600000              0.2468300
     42.8709000              0.4872580
     14.5189000              0.3234960
SP   6   1.00
    239.6680000             -0.00292619             0.00460285
     57.4419000             -0.0374080              0.0331990
     18.2859000             -0.1144870              0.1362820
      6.5991400              0.1156350              0.3304760
      2.4904900              0.6125950              0.4491460
      0.9445400              0.3937990              0.2657040
SP   3   1.00
      1.2779000             -0.2276060             -0.0175130
      0.3975900              0.00144583             0.2445330
      0.1600950              1.0927900              0.8049340
SP   1   1.00
      0.0556577              1.0000000              1.0000000
D    1   1.00
      0.6500000              1.0000000
D    1   1.00
      0.1625000              1.0000000
F    1   1.00
      0.2500000              1.0000000
****
Si     0
S    6   1.00
  16115.9000000              0.00195948
   2425.5800000              0.01492880
    553.8670000              0.07284780
    156.3400000              0.24613000
     50.0683000              0.48591400
     17.0178000              0.32500200
SP   6   1.00
    292.7180000             -0.00278094             0.00443826
     69.8731000             -0.03571460             0.03266790
     22.3363000             -0.11498500             0.13472100
      8.1503900              0.09356340             0.32867800
      3.1345800              0.60301700             0.44964000
      1.2254300              0.41895900             0.26137200
SP   3   1.00
      1.7273800             -0.24463000            -0.01779510
      0.5729220              0.00431572             0.25353900
      0.2221920              1.09818000             0.80066900
SP   1   1.00
      0.0778369              1.00000000             1.00000000
D    1   1.00
      0.9000000              1.0000000
D    1   1.00
      0.2250000              1.0000000
F    1   1.00
      0.3200000              1.0000000
****
P     0
S    6   1.00
  19413.3000000              0.0018516
   2909.4200000              0.0142062
    661.3640000              0.0699995
    185.7590000              0.2400790
     59.1943000              0.4847620
     20.0310000              0.3352000
SP   6   1.00
    339.4780000             -0.00278217             0.00456462
     81.0101000             -0.0360499              0.03369360
     25.8780000             -0.1166310              0.13975500
      9.4522100              0.0968328              0.33936200
      3.6656600              0.6144180              0.45092100
      1.4674600              0.4037980              0.23858600
SP   3   1.00
      2.1562300             -0.2529230             -0.01776530
      0.7489970              0.0328517              0.27405800
      0.2831450              1.0812500              0.78542100
SP   1   1.00
      0.0998317              1.0000000              1.00000000
D    1   1.00
      1.1000000              1.0000000
D    1   1.00
      0.2750000              1.0000000
F    1   1.00
      0.4500000              1.0000000
****
S     0
S    6   1.00
  21917.1000000              0.0018690
   3301.4900000              0.0142300
    754.1460000              0.0696960
    212.7110000              0.2384870
     67.9896000              0.4833070
     23.0515000              0.3380740
SP   6   1.00
    423.7350000             -0.0023767              0.0040610
    100.7100000             -0.0316930              0.0306810
     32.1599000             -0.1133170              0.1304520
     11.8079000              0.0560900              0.3272050
      4.6311000              0.5922550              0.4528510
      1.8702500              0.4550060              0.2560420
SP   3   1.00
      2.6158400             -0.2503740             -0.0145110
      0.9221670              0.0669570              0.3102630
      0.3412870              1.0545100              0.7544830
SP   1   1.00
      0.1171670              1.0000000              1.0000000
D    1   1.00
      1.3000000              1.0000000
D    1   1.00
      0.3250000              1.0000000
F    1   1.00
      0.5500000              1.0000000
****
Cl     0
S    6   1.00
  25180.1000000              0.0018330
   3780.3500000              0.0140340
    860.4740000              0.0690970
    242.1450000              0.2374520
     77.3349000              0.4830340
     26.2470000              0.3398560
SP   6   1.00
    491.7650000             -0.0022974              0.0039894
    116.9840000             -0.0307140              0.0303180
     37.4153000             -0.1125280              0.1298800
     13.7834000              0.0450160              0.3279510
      5.4521500              0.5893530              0.4535270
      2.2258800              0.4652060              0.2521540
SP   3   1.00
      3.1864900             -0.2518300             -0.0142990
      1.1442700              0.0615890              0.3235720
      0.4203770              1.0601800              0.7435070
SP   1   1.00
      0.1426570              1.0000000              1.0000000
D    1   1.00
      1.5000000              1.0000000
D    1   1.00
      0.3750000              1.0000000
F    1   1.00
      0.7000000              1.0000000
****
}

set {
reference uhf
freeze_core true
e_convergence 10
d_convergence 10
dft_spherical_points 1202
dft_radial_points 99
}

e = energy('b3lyp')

print_out('Grab this energy {0}'.format(e))
--------------------------------------------------------------------------

    Molecular point group: c1

    Geometry (in Bohr), charge = 0, multiplicity = 2:

       Center              X                  Y                   Z               Mass
    ------------   -----------------  -----------------  -----------------  -----------------
         C           -0.259138720976     0.801636748242     0.001498343840    12.000000000000
         O           -2.187805949276    -0.333461934558     0.000232149640    15.994914619570
         C            2.406491682524    -0.242909526358    -0.002092283960    12.000000000000
         H            2.389152618624    -2.307629652858     0.001526068940     1.007825032230
         H            3.382552819124     0.473751378942    -1.663026488660     1.007825032230
         H            3.382198790924     0.473491851042     1.664887979740     1.007825032230

  Charge       = 0
  Multiplicity = 2
  Basis Set: ANONYMOUSA6DA3A9D
    Blend: 6-31G_2DFP_
  Basis Set: (ANONYMOUSA6DA3A9D AUX)
    Blend: DEF2-UNIVERSAL-JKFIT

    Orbital Energies [Eh]
    ---------------------

    Alpha Occupied:

       1A    -19.186705     2A    -10.270880     3A    -10.209936
       4A     -1.082512     5A     -0.762416     6A     -0.543774
       7A     -0.466875     8A     -0.457796     9A     -0.456979
      10A     -0.388002    11A     -0.386104    12A     -0.191434

    Alpha Virtual:

      13A     -0.017990    14A      0.091920    15A      0.136872
      16A      0.141566    17A      0.218881    18A      0.268576
      19A      0.428400    20A      0.431435    21A      0.444322
      22A      0.493849    23A      0.506169    24A      0.530318
      25A      0.563323    26A      0.577751    27A      0.610396
      28A      0.616249    29A      0.644700    30A      0.718049
      31A      0.766214    32A      0.785851    33A      0.832481
      34A      0.917184    35A      0.926632    36A      0.935576
      37A      1.025094    38A      1.087862    39A      1.107401
      40A      1.152904    41A      1.223644    42A      1.307229
      43A      1.317512    44A      1.327792    45A      1.403032
      46A      1.409010    47A      1.469221    48A      1.559961
      49A      1.632359    50A      1.654955    51A      1.721287
      52A      1.814852    53A      1.836016    54A      1.902501
      55A      2.067021    56A      2.168445    57A      2.499144
      58A      2.681247    59A      2.745243    60A      2.784501
      61A      2.842990    62A      2.894605    63A      2.974984
      64A      3.031281    65A      3.059126    66A      3.103469
      67A      3.116670    68A      3.181526    69A      3.314093
      70A      3.370270    71A      3.393693    72A      3.441700
      73A      3.465921    74A      3.486418    75A      3.570924
      76A      3.743646    77A      3.766062    78A      3.944142
      79A      3.986948    80A      4.060247    81A      4.111272
      82A      4.120978    83A      4.189229    84A      4.391670
      85A      4.437425    86A      4.450038    87A      4.536341
      88A      4.920497    89A      5.037481    90A      5.042622
      91A      5.200536    92A      5.208690    93A      5.477887
      94A      5.487089    95A      5.826429    96A      5.935043
      97A      6.108787    98A      6.771169    99A      6.773367
     100A      7.071263   101A      7.135404   102A      7.531956

    Beta Occupied:

       1A    -19.178635     2A    -10.260830     3A    -10.206566
       4A     -1.066608     5A     -0.750618     6A     -0.524123
       7A     -0.452430     8A     -0.446943     9A     -0.439287
      10A     -0.382825    11A     -0.348148

    Beta Virtual:

      12A     -0.051971    13A     -0.001716    14A      0.094636
      15A      0.142617    16A      0.144689    17A      0.229195
      18A      0.274206    19A      0.433412    20A      0.435548
      21A      0.466480    22A      0.500569    23A      0.527516
      24A      0.539236    25A      0.569699    26A      0.581945
      27A      0.623426    28A      0.628675    29A      0.650665
      30A      0.740197    31A      0.777300    32A      0.795764
      33A      0.833270    34A      0.922037    35A      0.943192
      36A      0.950711    37A      1.029327    38A      1.094031
      39A      1.109432    40A      1.159118    41A      1.232856
      42A      1.312850    43A      1.320364    44A      1.334552
      45A      1.412760    46A      1.415145    47A      1.481596
      48A      1.571044    49A      1.645707    50A      1.669366
      51A      1.727580    52A      1.817989    53A      1.850154
      54A      1.909250    55A      2.073747    56A      2.189877
      57A      2.511836    58A      2.695561    59A      2.759688
      60A      2.805556    61A      2.858212    62A      2.896278
      63A      2.984583    64A      3.048104    65A      3.067763
      66A      3.122044    67A      3.125098    68A      3.216099
      69A      3.357638    70A      3.381486    71A      3.399947
      72A      3.449920    73A      3.481593    74A      3.509976
      75A      3.583972    76A      3.769242    77A      3.775595
      78A      3.952828    79A      3.996258    80A      4.076590
      81A      4.123686    82A      4.125977    83A      4.200887
      84A      4.393913    85A      4.443639    86A      4.454257
      87A      4.547278    88A      4.924421    89A      5.054978
      90A      5.060644    91A      5.202713    92A      5.214437
      93A      5.490488    94A      5.500993    95A      5.839690
      96A      5.940639    97A      6.131990    98A      6.800470
      99A      6.803013   100A      7.075566   101A      7.164789
     102A      7.543615

    Final Occupation by Irrep:
              A
    DOCC [    11 ]
    SOCC [     1 ]

  @DF-UKS Final Energy:  -153.18845030607559

   => Energetics <=

    Nuclear Repulsion Energy =             62.8838673892063653
    One-Electron Energy =                -331.7620388404711775
    Two-Electron Energy =                 132.2731640306329268
    DFT Exchange-Correlation Energy =     -16.5834428854437235
    Empirical Dispersion Energy =           0.0000000000000000
    VV10 Nonlocal Energy =                  0.0000000000000000
    Total Energy =                       -153.1884503060755947

  UHF NO Occupations:
  HONO-2 :   10  A 1.9997861
  HONO-1 :   11  A 1.9992039
  HONO-0 :   12  A 1.0000000
  LUNO+0 :   13  A 0.0007961
  LUNO+1 :   14  A 0.0002139
  LUNO+2 :   15  A 0.0001782
  LUNO+3 :   16  A 0.0000614

Computation Completed

Properties will be evaluated at   0.000000,   0.000000,   0.000000 [a0]

Properties computed using the SCF density matrix

  Nuclear Dipole Moment: [e a0]
     X:     4.5356      Y:    -0.6757      Z:     0.0017

  Electronic Dipole Moment: [e a0]
     X:    -3.6075      Y:     0.6261      Z:    -0.0020

  Dipole Moment: [e a0]
     X:     0.9281      Y:    -0.0497      Z:    -0.0004     Total:     0.9294

  Dipole Moment: [D]
     X:     2.3589      Y:    -0.1262      Z:    -0.0009     Total:     2.3623

*** tstop() called on n044 at Thu Nov  4 14:49:52 2021
Module time:
	user time   =      62.79 seconds =       1.05 minutes
	system time =       0.43 seconds =       0.01 minutes
	total time  =         64 seconds =       1.07 minutes
Total time:
	user time   =      62.79 seconds =       1.05 minutes
	system time =       0.43 seconds =       0.01 minutes
	total time  =         64 seconds =       1.07 minutes
Grab this energy -153.1884503060756
    Psi4 stopped on: Thursday, 04 November 2021 02:49PM
    Psi4 wall time for execution: 0:01:03.26

*** Psi4 exiting successfully. Buy a developer a beer!
