                               Psi4 1.4a2.dev629

  ==> Input File <==

--------------------------------------------------------------------------
import os
memory 14 GB

molecule {
 C   -0.2617153039    0.8068035932    0.0000000000
 O   -2.1962601216   -0.3369957156    0.0000000000
 C    2.4107690573   -0.2478873900   -0.0000000000
 H    2.3784159533   -2.3066826120    0.0000000000
 H    3.3967141986    0.4695638861   -1.6642156013
 H    3.3967141986    0.4695638861    1.6642156013
units bohr
0 2
}

basis {

assign 6-31g_2dfp_

[ 6-31g_2dfp_ ]

spherical

!----------------------------------------------------------------------
! Basis Set Exchange
! Version v0.8.13
! https://www.basissetexchange.org
!----------------------------------------------------------------------
!   Basis set: 6-31G(2df,p)
! Description: 6-31G(2df,p)
!        Role: orbital
!     Version: 0  (Data from the original Basis Set Exchange)
!----------------------------------------------------------------------

****
H     0
S    3   1.00
     18.7311370              0.03349460
      2.8253937              0.23472695
      0.6401217              0.81375733
S    1   1.00
      0.1612778              1.00000000
P    1   1.00
      1.5000000              1.0000000
P    1   1.00
      0.3750000              1.0000000
****
B     0
S    6   1.00
   2068.8823000              0.0018663
    310.6495700              0.0142515
     70.6830330              0.0695516
     19.8610800              0.2325729
      6.2993048              0.4670787
      2.1270270              0.3634314
SP   3   1.00
      4.7279710             -0.1303938              0.0745976
      1.1903377             -0.1307889              0.3078467
      0.3594117              1.1309444              0.7434568
SP   1   1.00
      0.1267512              1.0000000              1.0000000
D    1   1.00
      0.8020000              1.0000000
D    1   1.00
      0.2005000              1.0000000
F    1   1.00
      0.5000000              1.0000000
****
C     0
S    6   1.00
   3047.5249000              0.0018347
    457.3695100              0.0140373
    103.9486900              0.0688426
     29.2101550              0.2321844
      9.2866630              0.4679413
      3.1639270              0.3623120
SP   3   1.00
      7.8682724             -0.1193324              0.0689991
      1.8812885             -0.1608542              0.3164240
      0.5442493              1.1434564              0.7443083
SP   1   1.00
      0.1687144              1.0000000              1.0000000
D    1   1.00
      1.2520000              1.0000000
D    1   1.00
      0.3130000              1.0000000
F    1   1.00
      0.8000000              1.0000000
****
N     0
S    6   1.00
   4173.5110000              0.0018348
    627.4579000              0.0139950
    142.9021000              0.0685870
     40.2343300              0.2322410
     12.8202100              0.4690700
      4.3904370              0.3604550
SP   3   1.00
     11.6263580             -0.1149610              0.0675800
      2.7162800             -0.1691180              0.3239070
      0.7722180              1.1458520              0.7408950
SP   1   1.00
      0.2120313              1.0000000              1.0000000
D    1   1.00
      1.8260000              1.0000000
D    1   1.00
      0.4565000              1.0000000
F    1   1.00
      1.0000000              1.0000000
****
O     0
S    6   1.00
   5484.6717000              0.0018311
    825.2349500              0.0139501
    188.0469600              0.0684451
     52.9645000              0.2327143
     16.8975700              0.4701930
      5.7996353              0.3585209
SP   3   1.00
     15.5396160             -0.1107775              0.0708743
      3.5999336             -0.1480263              0.3397528
      1.0137618              1.1307670              0.7271586
SP   1   1.00
      0.2700058              1.0000000              1.0000000
D    1   1.00
      2.5840000              1.0000000
D    1   1.00
      0.6460000              1.0000000
F    1   1.00
      1.4000000              1.0000000
****
F     0
S    6   1.00
   7001.7130900              0.0018196169
   1051.3660900              0.0139160796
    239.2856900              0.0684053245
     67.3974453              0.233185760
     21.5199573              0.471267439
      7.40310130             0.356618546
SP   3   1.00
     20.8479528             -0.108506975            0.0716287243
      4.80830834            -0.146451658            0.3459121030
      1.34406986             1.128688580            0.7224699570
SP   1   1.00
      0.358151393            1.0000000              1.0000000
D    1   1.00
      3.5000000              1.0000000
D    1   1.00
      0.8750000              1.0000000
F    1   1.00
      1.8500000              1.0000000
****
Al     0
S    6   1.00
  13983.1000000              0.00194267
   2098.7500000              0.0148599
    477.7050000              0.0728494
    134.3600000              0.2468300
     42.8709000              0.4872580
     14.5189000              0.3234960
SP   6   1.00
    239.6680000             -0.00292619             0.00460285
     57.4419000             -0.0374080              0.0331990
     18.2859000             -0.1144870              0.1362820
      6.5991400              0.1156350              0.3304760
      2.4904900              0.6125950              0.4491460
      0.9445400              0.3937990              0.2657040
SP   3   1.00
      1.2779000             -0.2276060             -0.0175130
      0.3975900              0.00144583             0.2445330
      0.1600950              1.0927900              0.8049340
SP   1   1.00
      0.0556577              1.0000000              1.0000000
D    1   1.00
      0.6500000              1.0000000
D    1   1.00
      0.1625000              1.0000000
F    1   1.00
      0.2500000              1.0000000
****
Si     0
S    6   1.00
  16115.9000000              0.00195948
   2425.5800000              0.01492880
    553.8670000              0.07284780
    156.3400000              0.24613000
     50.0683000              0.48591400
     17.0178000              0.32500200
SP   6   1.00
    292.7180000             -0.00278094             0.00443826
     69.8731000             -0.03571460             0.03266790
     22.3363000             -0.11498500             0.13472100
      8.1503900              0.09356340             0.32867800
      3.1345800              0.60301700             0.44964000
      1.2254300              0.41895900             0.26137200
SP   3   1.00
      1.7273800             -0.24463000            -0.01779510
      0.5729220              0.00431572             0.25353900
      0.2221920              1.09818000             0.80066900
SP   1   1.00
      0.0778369              1.00000000             1.00000000
D    1   1.00
      0.9000000              1.0000000
D    1   1.00
      0.2250000              1.0000000
F    1   1.00
      0.3200000              1.0000000
****
P     0
S    6   1.00
  19413.3000000              0.0018516
   2909.4200000              0.0142062
    661.3640000              0.0699995
    185.7590000              0.2400790
     59.1943000              0.4847620
     20.0310000              0.3352000
SP   6   1.00
    339.4780000             -0.00278217             0.00456462
     81.0101000             -0.0360499              0.03369360
     25.8780000             -0.1166310              0.13975500
      9.4522100              0.0968328              0.33936200
      3.6656600              0.6144180              0.45092100
      1.4674600              0.4037980              0.23858600
SP   3   1.00
      2.1562300             -0.2529230             -0.01776530
      0.7489970              0.0328517              0.27405800
      0.2831450              1.0812500              0.78542100
SP   1   1.00
      0.0998317              1.0000000              1.00000000
D    1   1.00
      1.1000000              1.0000000
D    1   1.00
      0.2750000              1.0000000
F    1   1.00
      0.4500000              1.0000000
****
S     0
S    6   1.00
  21917.1000000              0.0018690
   3301.4900000              0.0142300
    754.1460000              0.0696960
    212.7110000              0.2384870
     67.9896000              0.4833070
     23.0515000              0.3380740
SP   6   1.00
    423.7350000             -0.0023767              0.0040610
    100.7100000             -0.0316930              0.0306810
     32.1599000             -0.1133170              0.1304520
     11.8079000              0.0560900              0.3272050
      4.6311000              0.5922550              0.4528510
      1.8702500              0.4550060              0.2560420
SP   3   1.00
      2.6158400             -0.2503740             -0.0145110
      0.9221670              0.0669570              0.3102630
      0.3412870              1.0545100              0.7544830
SP   1   1.00
      0.1171670              1.0000000              1.0000000
D    1   1.00
      1.3000000              1.0000000
D    1   1.00
      0.3250000              1.0000000
F    1   1.00
      0.5500000              1.0000000
****
Cl     0
S    6   1.00
  25180.1000000              0.0018330
   3780.3500000              0.0140340
    860.4740000              0.0690970
    242.1450000              0.2374520
     77.3349000              0.4830340
     26.2470000              0.3398560
SP   6   1.00
    491.7650000             -0.0022974              0.0039894
    116.9840000             -0.0307140              0.0303180
     37.4153000             -0.1125280              0.1298800
     13.7834000              0.0450160              0.3279510
      5.4521500              0.5893530              0.4535270
      2.2258800              0.4652060              0.2521540
SP   3   1.00
      3.1864900             -0.2518300             -0.0142990
      1.1442700              0.0615890              0.3235720
      0.4203770              1.0601800              0.7435070
SP   1   1.00
      0.1426570              1.0000000              1.0000000
D    1   1.00
      1.5000000              1.0000000
D    1   1.00
      0.3750000              1.0000000
F    1   1.00
      0.7000000              1.0000000
****
}

set {
reference uhf
freeze_core true
e_convergence 10
d_convergence 10
dft_spherical_points 1202
dft_radial_points 99
}

e = energy('b3lyp')

print_out('Grab this energy {0}'.format(e))
--------------------------------------------------------------------------

    Molecular point group: cs

    Geometry (in Bohr), charge = 0, multiplicity = 2:

       Center              X                  Y                   Z               Mass
    ------------   -----------------  -----------------  -----------------  -----------------
         C           -0.259466643291     0.808232732242     0.000000000000    12.000000000000
         O           -2.194011460991    -0.335566576558     0.000000000000    15.994914619570
         C            2.413017717909    -0.246458250958     0.000000000000    12.000000000000
         H            2.380664613909    -2.305253472958     0.000000000000     1.007825032230
         H            3.398962859209     0.470993025142    -1.664215601300     1.007825032230
         H            3.398962859209     0.470993025142     1.664215601300     1.007825032230

  Charge       = 0
  Multiplicity = 2
  Basis Set: ANONYMOUSECE3DBB3
    Blend: 6-31G_2DFP_
  Basis Set: (ANONYMOUSECE3DBB3 AUX)
    Blend: DEF2-UNIVERSAL-JKFIT

    Orbital Energies [Eh]
    ---------------------

    Alpha Occupied:

       1Ap   -19.187069     2Ap   -10.272295     3Ap   -10.210841
       4Ap    -1.079952     5Ap    -0.761518     6Ap    -0.544081
       7Ap    -0.466332     8Ap    -0.457124     1App   -0.455348
       2App   -0.386855     9Ap    -0.386089    10Ap    -0.192931

    Alpha Virtual:

       3App   -0.019745    11Ap     0.091513    12Ap     0.137316
       4App    0.140655    13Ap     0.216685    14Ap     0.267780
      15Ap     0.427596     5App    0.432236    16Ap     0.442974
       6App    0.493398    17Ap     0.506366    18Ap     0.530462
       7App    0.562482    19Ap     0.577327    20Ap     0.606420
       8App    0.615236    21Ap     0.643641    22Ap     0.717265
       9App    0.766099    23Ap     0.784806    10App    0.832039
      11App    0.917441    24Ap     0.927383    25Ap     0.935905
      12App    1.021442    26Ap     1.083218    27Ap     1.108153
      13App    1.153235    28Ap     1.218621    29Ap     1.305704
      14App    1.315037    30Ap     1.327616    31Ap     1.404613
      15App    1.406417    32Ap     1.466901    33Ap     1.560458
      34Ap     1.628560    16App    1.652678    35Ap     1.719631
      17App    1.811126    36Ap     1.832944    37Ap     1.900955
      18App    2.063470    38Ap     2.163885    39Ap     2.491705
      19App    2.678755    40Ap     2.742719    41Ap     2.783553
      20App    2.841492    21App    2.894051    42Ap     2.971600
      43Ap     3.032185    22App    3.058003    23App    3.106938
      44Ap     3.112621    45Ap     3.183470    24App    3.314426
      46Ap     3.368499    25App    3.392665    26App    3.439260
      27App    3.464972    47Ap     3.485083    48Ap     3.570536
      49Ap     3.734925    50Ap     3.758278    51Ap     3.940670
      28App    3.978694    52Ap     4.050564    53Ap     4.109552
      29App    4.118121    54Ap     4.188538    30App    4.383632
      55Ap     4.431368    31App    4.449177    56Ap     4.529545
      57Ap     4.917975    58Ap     5.036584    32App    5.041829
      33App    5.195359    59Ap     5.206777    60Ap     5.469233
      34App    5.477403    61Ap     5.826773    35App    5.925502
      62Ap     6.099242    63Ap     6.770139    36App    6.772222
      37App    7.070696    64Ap     7.134880    65Ap     7.527677

    Beta Occupied:

       1Ap   -19.178998     2Ap   -10.262228     3Ap   -10.207451
       4Ap    -1.063986     5Ap    -0.749726     6Ap    -0.524283
       1App   -0.450815     7Ap    -0.447212     8Ap    -0.438363
       2App   -0.381680     9Ap    -0.347558

    Beta Virtual:

      10Ap    -0.053451     3App   -0.003467    11Ap     0.094192
      12Ap     0.142948     4App    0.143785    13Ap     0.227240
      14Ap     0.273530     5App    0.434208    15Ap     0.434829
      16Ap     0.464897     6App    0.500053    17Ap     0.527761
      18Ap     0.539391     7App    0.568819    19Ap     0.581523
       8App    0.622482    20Ap     0.625307    21Ap     0.649106
      22Ap     0.739015     9App    0.777291    23Ap     0.794867
      10App    0.832796    11App    0.922278    24Ap     0.943668
      25Ap     0.951314    12App    1.025597    26Ap     1.089322
      27Ap     1.110234    13App    1.159446    28Ap     1.227922
      29Ap     1.311299    14App    1.317807    30Ap     1.334416
      15App    1.411941    31Ap     1.415064    32Ap     1.479206
      33Ap     1.571585    34Ap     1.641796    16App    1.667052
      35Ap     1.725845    17App    1.814280    36Ap     1.847040
      37Ap     1.907550    18App    2.070185    38Ap     2.185280
      39Ap     2.504366    19App    2.692999    40Ap     2.757173
      41Ap     2.804735    20App    2.856974    21App    2.895647
      42Ap     2.981004    43Ap     3.048808    22App    3.066559
      44Ap     3.121132    23App    3.125526    45Ap     3.218298
      24App    3.358160    46Ap     3.380264    25App    3.399010
      26App    3.447255    27App    3.480992    47Ap     3.507481
      48Ap     3.584122    49Ap     3.760373    50Ap     3.768016
      51Ap     3.949354    28App    3.987964    52Ap     4.067018
      29App    4.120898    53Ap     4.124177    54Ap     4.200363
      30App    4.385926    55Ap     4.437536    31App    4.453306
      56Ap     4.540381    57Ap     4.921780    58Ap     5.054127
      32App    5.059847    33App    5.197511    59Ap     5.212489
      60Ap     5.481922    34App    5.491292    61Ap     5.840009
      35App    5.931085    62Ap     6.122453    63Ap     6.799444
      36App    6.801866    37App    7.074998    64Ap     7.164279
      65Ap     7.539359

    Final Occupation by Irrep:
             Ap   App
    DOCC [     9,    2 ]
    SOCC [     1,    0 ]

  @DF-UKS Final Energy:  -153.18838061703772

   => Energetics <=

    Nuclear Repulsion Energy =             62.6928184846317151
    One-Electron Energy =                -331.3915866366564842
    Two-Electron Energy =                 132.0878333111737106
    DFT Exchange-Correlation Energy =     -16.5774457761866891
    Empirical Dispersion Energy =           0.0000000000000000
    VV10 Nonlocal Energy =                  0.0000000000000000
    Total Energy =                       -153.1883806170377227

  UHF NO Occupations:
  HONO-2 :    8 Ap 1.9997827
  HONO-1 :    9 Ap 1.9991988
  HONO-0 :   10 Ap 1.0000000
  LUNO+0 :   11 Ap 0.0008012
  LUNO+1 :   12 Ap 0.0002173
  LUNO+2 :    3App 0.0001813
  LUNO+3 :   13 Ap 0.0000618

Computation Completed

Properties will be evaluated at   0.000000,   0.000000,   0.000000 [a0]

Properties computed using the SCF density matrix

  Nuclear Dipole Moment: [e a0]
     X:     4.5478      Y:    -0.6772      Z:     0.0000

  Electronic Dipole Moment: [e a0]
     X:    -3.6129      Y:     0.6272      Z:     0.0000

  Dipole Moment: [e a0]
     X:     0.9349      Y:    -0.0499      Z:     0.0000     Total:     0.9362

  Dipole Moment: [D]
     X:     2.3763      Y:    -0.1269      Z:     0.0000     Total:     2.3797

*** tstop() called on n061 at Tue Mar 15 10:30:26 2022
Module time:
	user time   =      53.39 seconds =       0.89 minutes
	system time =       0.50 seconds =       0.01 minutes
	total time  =         54 seconds =       0.90 minutes
Total time:
	user time   =      53.39 seconds =       0.89 minutes
	system time =       0.50 seconds =       0.01 minutes
	total time  =         54 seconds =       0.90 minutes
Grab this energy -153.18838061703772
    Psi4 stopped on: Tuesday, 15 March 2022 10:30AM
    Psi4 wall time for execution: 0:00:53.93

*** Psi4 exiting successfully. Buy a developer a beer!
