                               Psi4 1.4a2.dev629

  ==> Input File <==

--------------------------------------------------------------------------
import os
memory 14 GB

molecule {
 C   -0.2633280246    0.8098563430   -0.0000000002
 O   -2.1902138752   -0.3382865817    0.0000000102
 C    2.4107892764   -0.2415794510    0.0000000098
 H    2.3905078400   -2.3046412831    0.0000000294
 H    3.3894211916    0.4723927110   -1.6647158981
 H    3.3894215419    0.4723928817    1.6647156689
units bohr
0 2
}

basis {

assign 6-31g_2dfp_

[ 6-31g_2dfp_ ]

spherical

!----------------------------------------------------------------------
! Basis Set Exchange
! Version v0.8.13
! https://www.basissetexchange.org
!----------------------------------------------------------------------
!   Basis set: 6-31G(2df,p)
! Description: 6-31G(2df,p)
!        Role: orbital
!     Version: 0  (Data from the original Basis Set Exchange)
!----------------------------------------------------------------------

****
H     0
S    3   1.00
     18.7311370              0.03349460
      2.8253937              0.23472695
      0.6401217              0.81375733
S    1   1.00
      0.1612778              1.00000000
P    1   1.00
      1.5000000              1.0000000
P    1   1.00
      0.3750000              1.0000000
****
B     0
S    6   1.00
   2068.8823000              0.0018663
    310.6495700              0.0142515
     70.6830330              0.0695516
     19.8610800              0.2325729
      6.2993048              0.4670787
      2.1270270              0.3634314
SP   3   1.00
      4.7279710             -0.1303938              0.0745976
      1.1903377             -0.1307889              0.3078467
      0.3594117              1.1309444              0.7434568
SP   1   1.00
      0.1267512              1.0000000              1.0000000
D    1   1.00
      0.8020000              1.0000000
D    1   1.00
      0.2005000              1.0000000
F    1   1.00
      0.5000000              1.0000000
****
C     0
S    6   1.00
   3047.5249000              0.0018347
    457.3695100              0.0140373
    103.9486900              0.0688426
     29.2101550              0.2321844
      9.2866630              0.4679413
      3.1639270              0.3623120
SP   3   1.00
      7.8682724             -0.1193324              0.0689991
      1.8812885             -0.1608542              0.3164240
      0.5442493              1.1434564              0.7443083
SP   1   1.00
      0.1687144              1.0000000              1.0000000
D    1   1.00
      1.2520000              1.0000000
D    1   1.00
      0.3130000              1.0000000
F    1   1.00
      0.8000000              1.0000000
****
N     0
S    6   1.00
   4173.5110000              0.0018348
    627.4579000              0.0139950
    142.9021000              0.0685870
     40.2343300              0.2322410
     12.8202100              0.4690700
      4.3904370              0.3604550
SP   3   1.00
     11.6263580             -0.1149610              0.0675800
      2.7162800             -0.1691180              0.3239070
      0.7722180              1.1458520              0.7408950
SP   1   1.00
      0.2120313              1.0000000              1.0000000
D    1   1.00
      1.8260000              1.0000000
D    1   1.00
      0.4565000              1.0000000
F    1   1.00
      1.0000000              1.0000000
****
O     0
S    6   1.00
   5484.6717000              0.0018311
    825.2349500              0.0139501
    188.0469600              0.0684451
     52.9645000              0.2327143
     16.8975700              0.4701930
      5.7996353              0.3585209
SP   3   1.00
     15.5396160             -0.1107775              0.0708743
      3.5999336             -0.1480263              0.3397528
      1.0137618              1.1307670              0.7271586
SP   1   1.00
      0.2700058              1.0000000              1.0000000
D    1   1.00
      2.5840000              1.0000000
D    1   1.00
      0.6460000              1.0000000
F    1   1.00
      1.4000000              1.0000000
****
F     0
S    6   1.00
   7001.7130900              0.0018196169
   1051.3660900              0.0139160796
    239.2856900              0.0684053245
     67.3974453              0.233185760
     21.5199573              0.471267439
      7.40310130             0.356618546
SP   3   1.00
     20.8479528             -0.108506975            0.0716287243
      4.80830834            -0.146451658            0.3459121030
      1.34406986             1.128688580            0.7224699570
SP   1   1.00
      0.358151393            1.0000000              1.0000000
D    1   1.00
      3.5000000              1.0000000
D    1   1.00
      0.8750000              1.0000000
F    1   1.00
      1.8500000              1.0000000
****
Al     0
S    6   1.00
  13983.1000000              0.00194267
   2098.7500000              0.0148599
    477.7050000              0.0728494
    134.3600000              0.2468300
     42.8709000              0.4872580
     14.5189000              0.3234960
SP   6   1.00
    239.6680000             -0.00292619             0.00460285
     57.4419000             -0.0374080              0.0331990
     18.2859000             -0.1144870              0.1362820
      6.5991400              0.1156350              0.3304760
      2.4904900              0.6125950              0.4491460
      0.9445400              0.3937990              0.2657040
SP   3   1.00
      1.2779000             -0.2276060             -0.0175130
      0.3975900              0.00144583             0.2445330
      0.1600950              1.0927900              0.8049340
SP   1   1.00
      0.0556577              1.0000000              1.0000000
D    1   1.00
      0.6500000              1.0000000
D    1   1.00
      0.1625000              1.0000000
F    1   1.00
      0.2500000              1.0000000
****
Si     0
S    6   1.00
  16115.9000000              0.00195948
   2425.5800000              0.01492880
    553.8670000              0.07284780
    156.3400000              0.24613000
     50.0683000              0.48591400
     17.0178000              0.32500200
SP   6   1.00
    292.7180000             -0.00278094             0.00443826
     69.8731000             -0.03571460             0.03266790
     22.3363000             -0.11498500             0.13472100
      8.1503900              0.09356340             0.32867800
      3.1345800              0.60301700             0.44964000
      1.2254300              0.41895900             0.26137200
SP   3   1.00
      1.7273800             -0.24463000            -0.01779510
      0.5729220              0.00431572             0.25353900
      0.2221920              1.09818000             0.80066900
SP   1   1.00
      0.0778369              1.00000000             1.00000000
D    1   1.00
      0.9000000              1.0000000
D    1   1.00
      0.2250000              1.0000000
F    1   1.00
      0.3200000              1.0000000
****
P     0
S    6   1.00
  19413.3000000              0.0018516
   2909.4200000              0.0142062
    661.3640000              0.0699995
    185.7590000              0.2400790
     59.1943000              0.4847620
     20.0310000              0.3352000
SP   6   1.00
    339.4780000             -0.00278217             0.00456462
     81.0101000             -0.0360499              0.03369360
     25.8780000             -0.1166310              0.13975500
      9.4522100              0.0968328              0.33936200
      3.6656600              0.6144180              0.45092100
      1.4674600              0.4037980              0.23858600
SP   3   1.00
      2.1562300             -0.2529230             -0.01776530
      0.7489970              0.0328517              0.27405800
      0.2831450              1.0812500              0.78542100
SP   1   1.00
      0.0998317              1.0000000              1.00000000
D    1   1.00
      1.1000000              1.0000000
D    1   1.00
      0.2750000              1.0000000
F    1   1.00
      0.4500000              1.0000000
****
S     0
S    6   1.00
  21917.1000000              0.0018690
   3301.4900000              0.0142300
    754.1460000              0.0696960
    212.7110000              0.2384870
     67.9896000              0.4833070
     23.0515000              0.3380740
SP   6   1.00
    423.7350000             -0.0023767              0.0040610
    100.7100000             -0.0316930              0.0306810
     32.1599000             -0.1133170              0.1304520
     11.8079000              0.0560900              0.3272050
      4.6311000              0.5922550              0.4528510
      1.8702500              0.4550060              0.2560420
SP   3   1.00
      2.6158400             -0.2503740             -0.0145110
      0.9221670              0.0669570              0.3102630
      0.3412870              1.0545100              0.7544830
SP   1   1.00
      0.1171670              1.0000000              1.0000000
D    1   1.00
      1.3000000              1.0000000
D    1   1.00
      0.3250000              1.0000000
F    1   1.00
      0.5500000              1.0000000
****
Cl     0
S    6   1.00
  25180.1000000              0.0018330
   3780.3500000              0.0140340
    860.4740000              0.0690970
    242.1450000              0.2374520
     77.3349000              0.4830340
     26.2470000              0.3398560
SP   6   1.00
    491.7650000             -0.0022974              0.0039894
    116.9840000             -0.0307140              0.0303180
     37.4153000             -0.1125280              0.1298800
     13.7834000              0.0450160              0.3279510
      5.4521500              0.5893530              0.4535270
      2.2258800              0.4652060              0.2521540
SP   3   1.00
      3.1864900             -0.2518300             -0.0142990
      1.1442700              0.0615890              0.3235720
      0.4203770              1.0601800              0.7435070
SP   1   1.00
      0.1426570              1.0000000              1.0000000
D    1   1.00
      1.5000000              1.0000000
D    1   1.00
      0.3750000              1.0000000
F    1   1.00
      0.7000000              1.0000000
****
}

set {
reference uhf
freeze_core true
e_convergence 10
d_convergence 10
dft_spherical_points 1202
dft_radial_points 99
}

e = energy('b3lyp')

print_out('Grab this energy {0}'.format(e))
--------------------------------------------------------------------------

    Molecular point group: c1

    Geometry (in Bohr), charge = 0, multiplicity = 2:

       Center              X                  Y                   Z               Mass
    ------------   -----------------  -----------------  -----------------  -----------------
         C           -0.262824800893     0.808973903931    -0.000000001990    12.000000000000
         O           -2.189710651493    -0.339169020769     0.000000008410    15.994914619570
         C            2.411292500107    -0.242461890069     0.000000008010    12.000000000000
         H            2.391011063707    -2.305523722169     0.000000027610     1.007825032230
         H            3.389924415307     0.471510271931    -1.664715899890     1.007825032230
         H            3.389924765607     0.471510442631     1.664715667110     1.007825032230

  Charge       = 0
  Multiplicity = 2
  Basis Set: ANONYMOUS6E77BED3
    Blend: 6-31G_2DFP_
  Basis Set: (ANONYMOUS6E77BED3 AUX)
    Blend: DEF2-UNIVERSAL-JKFIT

    Orbital Energies [Eh]
    ---------------------

    Alpha Occupied:

       1A    -19.187141     2A    -10.271933     3A    -10.210333
       4A     -1.081344     5A     -0.761402     6A     -0.544058
       7A     -0.466170     8A     -0.457307     9A     -0.456207
      10A     -0.387715    11A     -0.385939    12A     -0.192810

    Alpha Virtual:

      13A     -0.019023    14A      0.091942    15A      0.137036
      16A      0.141431    17A      0.216969    18A      0.268180
      19A      0.428245    20A      0.431950    21A      0.443415
      22A      0.493431    23A      0.506319    24A      0.530276
      25A      0.563208    26A      0.577569    27A      0.607605
      28A      0.615385    29A      0.643946    30A      0.717750
      31A      0.766564    32A      0.785288    33A      0.832673
      34A      0.917088    35A      0.926892    36A      0.935754
      37A      1.022421    38A      1.085983    39A      1.107660
      40A      1.152665    41A      1.220656    42A      1.305493
      43A      1.317362    44A      1.327010    45A      1.403550
      46A      1.406775    47A      1.467016    48A      1.559259
      49A      1.628843    50A      1.653477    51A      1.720476
      52A      1.813688    53A      1.833738    54A      1.901713
      55A      2.063919    56A      2.163474    57A      2.495368
      58A      2.679731    59A      2.743023    60A      2.783588
      61A      2.842740    62A      2.895136    63A      2.971955
      64A      3.032990    65A      3.058614    66A      3.105658
      67A      3.113135    68A      3.183526    69A      3.314106
      70A      3.369727    71A      3.394487    72A      3.438704
      73A      3.464582    74A      3.486284    75A      3.571490
      76A      3.737758    77A      3.758596    78A      3.942085
      79A      3.979994    80A      4.052576    81A      4.107455
      82A      4.121427    83A      4.188674    84A      4.390052
      85A      4.430861    86A      4.447318    87A      4.531537
      88A      4.918994    89A      5.036966    90A      5.041947
      91A      5.198804    92A      5.208506    93A      5.472761
      94A      5.480839    95A      5.825603    96A      5.929146
      97A      6.101665    98A      6.770283    99A      6.772410
     100A      7.070136   101A      7.134979   102A      7.529252

    Beta Occupied:

       1A    -19.179059     2A    -10.261896     3A    -10.206923
       4A     -1.065397     5A     -0.749601     6A     -0.524290
       7A     -0.451665     8A     -0.446552     9A     -0.438585
      10A     -0.382522    11A     -0.347798

    Beta Virtual:

      12A     -0.053457    13A     -0.002726    14A      0.094650
      15A      0.142701    16A      0.144532    17A      0.227552
      18A      0.273874    19A      0.433920    20A      0.435848
      21A      0.465080    22A      0.500114    23A      0.527753
      24A      0.539116    25A      0.569684    26A      0.581738
      27A      0.622490    28A      0.626262    29A      0.649535
      30A      0.739584    31A      0.777682    32A      0.795276
      33A      0.833430    34A      0.921922    35A      0.943673
      36A      0.950744    37A      1.026610    38A      1.092077
      39A      1.109776    40A      1.158925    41A      1.229880
      42A      1.311092    43A      1.320226    44A      1.333808
      45A      1.412305    46A      1.413935    47A      1.479381
      48A      1.570566    49A      1.642010    50A      1.667884
      51A      1.726677    52A      1.816787    53A      1.847827
      54A      1.908383    55A      2.070635    56A      2.184865
      57A      2.508062    58A      2.694016    59A      2.757430
      60A      2.804702    61A      2.857962    62A      2.896783
      63A      2.981524    64A      3.049619    65A      3.067161
      66A      3.121580    67A      3.124279    68A      3.218152
      69A      3.357778    70A      3.381153    71A      3.400737
      72A      3.447249    73A      3.480143    74A      3.509420
      75A      3.584704    76A      3.763188    77A      3.768332
      78A      3.950813    79A      3.989325    80A      4.069110
      81A      4.122602    82A      4.124232    83A      4.199914
      84A      4.392311    85A      4.437044    86A      4.451487
      87A      4.542382    88A      4.922891    89A      5.054509
      90A      5.060008    91A      5.200974    92A      5.214175
      93A      5.485414    94A      5.494746    95A      5.838843
      96A      5.934733    97A      6.124890    98A      6.799648
      99A      6.802113   100A      7.074441   101A      7.164406
     102A      7.540933

    Final Occupation by Irrep:
              A
    DOCC [    11 ]
    SOCC [     1 ]

  @DF-UKS Final Energy:  -153.18841643282298

   => Energetics <=

    Nuclear Repulsion Energy =             62.7576894632841800
    One-Electron Energy =                -331.5159186741740882
    Two-Electron Energy =                 132.1495425682184646
    DFT Exchange-Correlation Energy =     -16.5797297901515464
    Empirical Dispersion Energy =           0.0000000000000000
    VV10 Nonlocal Energy =                  0.0000000000000000
    Total Energy =                       -153.1884164328229758

  UHF NO Occupations:
  HONO-2 :   10  A 1.9997803
  HONO-1 :   11  A 1.9992004
  HONO-0 :   12  A 1.0000000
  LUNO+0 :   13  A 0.0007996
  LUNO+1 :   14  A 0.0002197
  LUNO+2 :   15  A 0.0001786
  LUNO+3 :   16  A 0.0000618

Computation Completed

Properties will be evaluated at   0.000000,   0.000000,   0.000000 [a0]

Properties computed using the SCF density matrix

  Nuclear Dipole Moment: [e a0]
     X:     4.5440      Y:    -0.6768      Z:    -0.0000

  Electronic Dipole Moment: [e a0]
     X:    -3.6155      Y:     0.6281      Z:     0.0000

  Dipole Moment: [e a0]
     X:     0.9284      Y:    -0.0487      Z:    -0.0000     Total:     0.9297

  Dipole Moment: [D]
     X:     2.3599      Y:    -0.1237      Z:    -0.0000     Total:     2.3631

*** tstop() called on n059 at Thu Nov  4 14:55:23 2021
Module time:
	user time   =      50.59 seconds =       0.84 minutes
	system time =       0.51 seconds =       0.01 minutes
	total time  =         51 seconds =       0.85 minutes
Total time:
	user time   =      50.59 seconds =       0.84 minutes
	system time =       0.51 seconds =       0.01 minutes
	total time  =         51 seconds =       0.85 minutes
Grab this energy -153.18841643282298
    Psi4 stopped on: Thursday, 04 November 2021 02:55PM
    Psi4 wall time for execution: 0:00:51.14

*** Psi4 exiting successfully. Buy a developer a beer!
