                               Psi4 1.4a2.dev629

  ==> Input File <==

--------------------------------------------------------------------------
import os
memory 14 GB

molecule {
 C   -0.2603117745    0.8032861739    0.0041372188
 O   -2.1906162504   -0.3365324172   -0.0028122769
 C    2.4105233311   -0.2386756806    0.0012598633
 H    2.3867786749   -2.3051673118   -0.0004430847
 H    3.3901711092    0.4724178696   -1.6655542719
 H    3.3900528596    0.4748059861    1.6634123715
units bohr
0 2
}

basis {

assign 6-31g_2dfp_

[ 6-31g_2dfp_ ]

spherical

!----------------------------------------------------------------------
! Basis Set Exchange
! Version v0.8.13
! https://www.basissetexchange.org
!----------------------------------------------------------------------
!   Basis set: 6-31G(2df,p)
! Description: 6-31G(2df,p)
!        Role: orbital
!     Version: 0  (Data from the original Basis Set Exchange)
!----------------------------------------------------------------------

****
H     0
S    3   1.00
     18.7311370              0.03349460
      2.8253937              0.23472695
      0.6401217              0.81375733
S    1   1.00
      0.1612778              1.00000000
P    1   1.00
      1.5000000              1.0000000
P    1   1.00
      0.3750000              1.0000000
****
B     0
S    6   1.00
   2068.8823000              0.0018663
    310.6495700              0.0142515
     70.6830330              0.0695516
     19.8610800              0.2325729
      6.2993048              0.4670787
      2.1270270              0.3634314
SP   3   1.00
      4.7279710             -0.1303938              0.0745976
      1.1903377             -0.1307889              0.3078467
      0.3594117              1.1309444              0.7434568
SP   1   1.00
      0.1267512              1.0000000              1.0000000
D    1   1.00
      0.8020000              1.0000000
D    1   1.00
      0.2005000              1.0000000
F    1   1.00
      0.5000000              1.0000000
****
C     0
S    6   1.00
   3047.5249000              0.0018347
    457.3695100              0.0140373
    103.9486900              0.0688426
     29.2101550              0.2321844
      9.2866630              0.4679413
      3.1639270              0.3623120
SP   3   1.00
      7.8682724             -0.1193324              0.0689991
      1.8812885             -0.1608542              0.3164240
      0.5442493              1.1434564              0.7443083
SP   1   1.00
      0.1687144              1.0000000              1.0000000
D    1   1.00
      1.2520000              1.0000000
D    1   1.00
      0.3130000              1.0000000
F    1   1.00
      0.8000000              1.0000000
****
N     0
S    6   1.00
   4173.5110000              0.0018348
    627.4579000              0.0139950
    142.9021000              0.0685870
     40.2343300              0.2322410
     12.8202100              0.4690700
      4.3904370              0.3604550
SP   3   1.00
     11.6263580             -0.1149610              0.0675800
      2.7162800             -0.1691180              0.3239070
      0.7722180              1.1458520              0.7408950
SP   1   1.00
      0.2120313              1.0000000              1.0000000
D    1   1.00
      1.8260000              1.0000000
D    1   1.00
      0.4565000              1.0000000
F    1   1.00
      1.0000000              1.0000000
****
O     0
S    6   1.00
   5484.6717000              0.0018311
    825.2349500              0.0139501
    188.0469600              0.0684451
     52.9645000              0.2327143
     16.8975700              0.4701930
      5.7996353              0.3585209
SP   3   1.00
     15.5396160             -0.1107775              0.0708743
      3.5999336             -0.1480263              0.3397528
      1.0137618              1.1307670              0.7271586
SP   1   1.00
      0.2700058              1.0000000              1.0000000
D    1   1.00
      2.5840000              1.0000000
D    1   1.00
      0.6460000              1.0000000
F    1   1.00
      1.4000000              1.0000000
****
F     0
S    6   1.00
   7001.7130900              0.0018196169
   1051.3660900              0.0139160796
    239.2856900              0.0684053245
     67.3974453              0.233185760
     21.5199573              0.471267439
      7.40310130             0.356618546
SP   3   1.00
     20.8479528             -0.108506975            0.0716287243
      4.80830834            -0.146451658            0.3459121030
      1.34406986             1.128688580            0.7224699570
SP   1   1.00
      0.358151393            1.0000000              1.0000000
D    1   1.00
      3.5000000              1.0000000
D    1   1.00
      0.8750000              1.0000000
F    1   1.00
      1.8500000              1.0000000
****
Al     0
S    6   1.00
  13983.1000000              0.00194267
   2098.7500000              0.0148599
    477.7050000              0.0728494
    134.3600000              0.2468300
     42.8709000              0.4872580
     14.5189000              0.3234960
SP   6   1.00
    239.6680000             -0.00292619             0.00460285
     57.4419000             -0.0374080              0.0331990
     18.2859000             -0.1144870              0.1362820
      6.5991400              0.1156350              0.3304760
      2.4904900              0.6125950              0.4491460
      0.9445400              0.3937990              0.2657040
SP   3   1.00
      1.2779000             -0.2276060             -0.0175130
      0.3975900              0.00144583             0.2445330
      0.1600950              1.0927900              0.8049340
SP   1   1.00
      0.0556577              1.0000000              1.0000000
D    1   1.00
      0.6500000              1.0000000
D    1   1.00
      0.1625000              1.0000000
F    1   1.00
      0.2500000              1.0000000
****
Si     0
S    6   1.00
  16115.9000000              0.00195948
   2425.5800000              0.01492880
    553.8670000              0.07284780
    156.3400000              0.24613000
     50.0683000              0.48591400
     17.0178000              0.32500200
SP   6   1.00
    292.7180000             -0.00278094             0.00443826
     69.8731000             -0.03571460             0.03266790
     22.3363000             -0.11498500             0.13472100
      8.1503900              0.09356340             0.32867800
      3.1345800              0.60301700             0.44964000
      1.2254300              0.41895900             0.26137200
SP   3   1.00
      1.7273800             -0.24463000            -0.01779510
      0.5729220              0.00431572             0.25353900
      0.2221920              1.09818000             0.80066900
SP   1   1.00
      0.0778369              1.00000000             1.00000000
D    1   1.00
      0.9000000              1.0000000
D    1   1.00
      0.2250000              1.0000000
F    1   1.00
      0.3200000              1.0000000
****
P     0
S    6   1.00
  19413.3000000              0.0018516
   2909.4200000              0.0142062
    661.3640000              0.0699995
    185.7590000              0.2400790
     59.1943000              0.4847620
     20.0310000              0.3352000
SP   6   1.00
    339.4780000             -0.00278217             0.00456462
     81.0101000             -0.0360499              0.03369360
     25.8780000             -0.1166310              0.13975500
      9.4522100              0.0968328              0.33936200
      3.6656600              0.6144180              0.45092100
      1.4674600              0.4037980              0.23858600
SP   3   1.00
      2.1562300             -0.2529230             -0.01776530
      0.7489970              0.0328517              0.27405800
      0.2831450              1.0812500              0.78542100
SP   1   1.00
      0.0998317              1.0000000              1.00000000
D    1   1.00
      1.1000000              1.0000000
D    1   1.00
      0.2750000              1.0000000
F    1   1.00
      0.4500000              1.0000000
****
S     0
S    6   1.00
  21917.1000000              0.0018690
   3301.4900000              0.0142300
    754.1460000              0.0696960
    212.7110000              0.2384870
     67.9896000              0.4833070
     23.0515000              0.3380740
SP   6   1.00
    423.7350000             -0.0023767              0.0040610
    100.7100000             -0.0316930              0.0306810
     32.1599000             -0.1133170              0.1304520
     11.8079000              0.0560900              0.3272050
      4.6311000              0.5922550              0.4528510
      1.8702500              0.4550060              0.2560420
SP   3   1.00
      2.6158400             -0.2503740             -0.0145110
      0.9221670              0.0669570              0.3102630
      0.3412870              1.0545100              0.7544830
SP   1   1.00
      0.1171670              1.0000000              1.0000000
D    1   1.00
      1.3000000              1.0000000
D    1   1.00
      0.3250000              1.0000000
F    1   1.00
      0.5500000              1.0000000
****
Cl     0
S    6   1.00
  25180.1000000              0.0018330
   3780.3500000              0.0140340
    860.4740000              0.0690970
    242.1450000              0.2374520
     77.3349000              0.4830340
     26.2470000              0.3398560
SP   6   1.00
    491.7650000             -0.0022974              0.0039894
    116.9840000             -0.0307140              0.0303180
     37.4153000             -0.1125280              0.1298800
     13.7834000              0.0450160              0.3279510
      5.4521500              0.5893530              0.4535270
      2.2258800              0.4652060              0.2521540
SP   3   1.00
      3.1864900             -0.2518300             -0.0142990
      1.1442700              0.0615890              0.3235720
      0.4203770              1.0601800              0.7435070
SP   1   1.00
      0.1426570              1.0000000              1.0000000
D    1   1.00
      1.5000000              1.0000000
D    1   1.00
      0.3750000              1.0000000
F    1   1.00
      0.7000000              1.0000000
****
}

set {
reference uhf
freeze_core true
e_convergence 10
d_convergence 10
dft_spherical_points 1202
dft_radial_points 99
}

e = energy('b3lyp')

print_out('Grab this energy {0}'.format(e))
--------------------------------------------------------------------------

    Molecular point group: c1

    Geometry (in Bohr), charge = 0, multiplicity = 2:

       Center              X                  Y                   Z               Mass
    ------------   -----------------  -----------------  -----------------  -----------------
         C           -0.260371133408     0.802729453100     0.003737909488    12.000000000000
         O           -2.190675609308    -0.337089138000    -0.003211586212    15.994914619570
         C            2.410463972192    -0.239232401400     0.000860553988    12.000000000000
         H            2.386719315992    -2.305724032600    -0.000842394012     1.007825032230
         H            3.390111750292     0.471861148800    -1.665953581212     1.007825032230
         H            3.389993500692     0.474249265300     1.663013062188     1.007825032230

  Charge       = 0
  Multiplicity = 2
  Basis Set: ANONYMOUS5F90A9F2
    Blend: 6-31G_2DFP_
  Basis Set: (ANONYMOUS5F90A9F2 AUX)
    Blend: DEF2-UNIVERSAL-JKFIT

    Orbital Energies [Eh]
    ---------------------

    Alpha Occupied:

       1A    -19.186871     2A    -10.271486     3A    -10.210388
       4A     -1.081462     5A     -0.762044     6A     -0.543934
       7A     -0.466542     8A     -0.457328     9A     -0.456550
      10A     -0.387705    11A     -0.386016    12A     -0.191825

    Alpha Virtual:

      13A     -0.018798    14A      0.091784    15A      0.136505
      16A      0.141541    17A      0.218095    18A      0.268275
      19A      0.428254    20A      0.431524    21A      0.443883
      22A      0.493540    23A      0.506217    24A      0.530035
      25A      0.563046    26A      0.577369    27A      0.608772
      28A      0.616172    29A      0.644000    30A      0.717745
      31A      0.766040    32A      0.785347    33A      0.832278
      34A      0.917195    35A      0.927214    36A      0.935628
      37A      1.023191    38A      1.085086    39A      1.107383
      40A      1.153932    41A      1.223083    42A      1.306290
      43A      1.317477    44A      1.327245    45A      1.402740
      46A      1.407159    47A      1.468269    48A      1.559438
      49A      1.630872    50A      1.653978    51A      1.720130
      52A      1.814061    53A      1.834583    54A      1.900701
      55A      2.065725    56A      2.167266    57A      2.495994
      58A      2.680735    59A      2.744373    60A      2.783962
      61A      2.841804    62A      2.894980    63A      2.973827
      64A      3.030170    65A      3.057828    66A      3.104467
      67A      3.115870    68A      3.181905    69A      3.314499
      70A      3.369263    71A      3.393126    72A      3.440192
      73A      3.466221    74A      3.486120    75A      3.570155
      76A      3.740290    77A      3.762133    78A      3.944000
      79A      3.981674    80A      4.056497    81A      4.109588
      82A      4.119984    83A      4.189750    84A      4.391940
      85A      4.433793    86A      4.446985    87A      4.532214
      88A      4.918776    89A      5.037090    90A      5.042342
      91A      5.198745    92A      5.206649    93A      5.474267
      94A      5.483242    95A      5.826722    96A      5.931077
      97A      6.105044    98A      6.770754    99A      6.772974
     100A      7.071181   101A      7.134978   102A      7.530280

    Beta Occupied:

       1A    -19.178815     2A    -10.261421     3A    -10.207016
       4A     -1.065553     5A     -0.750258     6A     -0.524251
       7A     -0.452047     8A     -0.446459     9A     -0.439087
      10A     -0.382527    11A     -0.347940

    Beta Virtual:

      12A     -0.052358    13A     -0.002527    14A      0.094508
      15A      0.142225    16A      0.144658    17A      0.228513
      18A      0.273944    19A      0.433493    20A      0.435437
      21A      0.465942    22A      0.500246    23A      0.527541
      24A      0.539006    25A      0.569442    26A      0.581559
      27A      0.623345    28A      0.627344    29A      0.649752
      30A      0.739788    31A      0.777189    32A      0.795311
      33A      0.833071    34A      0.922035    35A      0.943491
      36A      0.951019    37A      1.027377    38A      1.091220
      39A      1.109496    40A      1.160124    41A      1.232337
      42A      1.311790    43A      1.320331    44A      1.334048
      45A      1.412635    46A      1.413077    47A      1.480538
      48A      1.570731    49A      1.644130    50A      1.668336
      51A      1.726348    52A      1.817252    53A      1.848738
      54A      1.907358    55A      2.072422    56A      2.188676
      57A      2.508671    58A      2.694981    59A      2.758859
      60A      2.805021    61A      2.857204    62A      2.896653
      63A      2.983277    64A      3.047010    65A      3.066399
      66A      3.123135    67A      3.124402    68A      3.216624
      69A      3.358148    70A      3.380692    71A      3.399319
      72A      3.448507    73A      3.481844    74A      3.509294
      75A      3.583284    76A      3.766083    77A      3.771481
      78A      3.952716    79A      3.990968    80A      4.072824
      81A      4.122825    82A      4.124284    83A      4.201420
      84A      4.394150    85A      4.440018    86A      4.451227
      87A      4.543097    88A      4.922681    89A      5.054560
      90A      5.060321    91A      5.200917    92A      5.212359
      93A      5.486897    94A      5.497118    95A      5.839956
      96A      5.936664    97A      6.128228    98A      6.799996
      99A      6.802556   100A      7.075476   101A      7.164321
     102A      7.541934

    Final Occupation by Irrep:
              A
    DOCC [    11 ]
    SOCC [     1 ]

  @DF-UKS Final Energy:  -153.18843817842958

   => Energetics <=

    Nuclear Repulsion Energy =             62.7993510114535169
    One-Electron Energy =                -331.5976829862863724
    Two-Electron Energy =                 132.1907041764633561
    DFT Exchange-Correlation Energy =     -16.5808103800600435
    Empirical Dispersion Energy =           0.0000000000000000
    VV10 Nonlocal Energy =                  0.0000000000000000
    Total Energy =                       -153.1884381784295783

  UHF NO Occupations:
  HONO-2 :   10  A 1.9997852
  HONO-1 :   11  A 1.9992029
  HONO-0 :   12  A 1.0000000
  LUNO+0 :   13  A 0.0007971
  LUNO+1 :   14  A 0.0002148
  LUNO+2 :   15  A 0.0001804
  LUNO+3 :   16  A 0.0000614

Computation Completed

Properties will be evaluated at   0.000000,   0.000000,   0.000000 [a0]

Properties computed using the SCF density matrix

  Nuclear Dipole Moment: [e a0]
     X:     4.5420      Y:    -0.6753      Z:    -0.0019

  Electronic Dipole Moment: [e a0]
     X:    -3.6105      Y:     0.6270      Z:     0.0019

  Dipole Moment: [e a0]
     X:     0.9315      Y:    -0.0484      Z:    -0.0000     Total:     0.9327

  Dipole Moment: [D]
     X:     2.3675      Y:    -0.1229      Z:    -0.0000     Total:     2.3707

*** tstop() called on n040 at Thu Nov  4 14:50:36 2021
Module time:
	user time   =      62.47 seconds =       1.04 minutes
	system time =       0.46 seconds =       0.01 minutes
	total time  =         63 seconds =       1.05 minutes
Total time:
	user time   =      62.47 seconds =       1.04 minutes
	system time =       0.46 seconds =       0.01 minutes
	total time  =         63 seconds =       1.05 minutes
Grab this energy -153.18843817842958
    Psi4 stopped on: Thursday, 04 November 2021 02:50PM
    Psi4 wall time for execution: 0:01:02.98

*** Psi4 exiting successfully. Buy a developer a beer!
