                               Psi4 1.4a2.dev629

  ==> Input File <==

--------------------------------------------------------------------------
import os
memory 14 GB

molecule {
 C   -0.2564035764    0.8044992578   -0.0000000000
 O   -2.1862562743   -0.3291466610   -0.0000000000
 C    2.4090946999   -0.2448309766   -0.0000000000
 H    2.3870455360   -2.3160028380   -0.0000000000
 H    3.3855787985    0.4699234328   -1.6592972801
 H    3.3855787985    0.4699234328    1.6592972801
units bohr
0 2
}

basis {

assign 6-31g_2dfp_

[ 6-31g_2dfp_ ]

spherical

!----------------------------------------------------------------------
! Basis Set Exchange
! Version v0.8.13
! https://www.basissetexchange.org
!----------------------------------------------------------------------
!   Basis set: 6-31G(2df,p)
! Description: 6-31G(2df,p)
!        Role: orbital
!     Version: 0  (Data from the original Basis Set Exchange)
!----------------------------------------------------------------------

****
H     0
S    3   1.00
     18.7311370              0.03349460
      2.8253937              0.23472695
      0.6401217              0.81375733
S    1   1.00
      0.1612778              1.00000000
P    1   1.00
      1.5000000              1.0000000
P    1   1.00
      0.3750000              1.0000000
****
B     0
S    6   1.00
   2068.8823000              0.0018663
    310.6495700              0.0142515
     70.6830330              0.0695516
     19.8610800              0.2325729
      6.2993048              0.4670787
      2.1270270              0.3634314
SP   3   1.00
      4.7279710             -0.1303938              0.0745976
      1.1903377             -0.1307889              0.3078467
      0.3594117              1.1309444              0.7434568
SP   1   1.00
      0.1267512              1.0000000              1.0000000
D    1   1.00
      0.8020000              1.0000000
D    1   1.00
      0.2005000              1.0000000
F    1   1.00
      0.5000000              1.0000000
****
C     0
S    6   1.00
   3047.5249000              0.0018347
    457.3695100              0.0140373
    103.9486900              0.0688426
     29.2101550              0.2321844
      9.2866630              0.4679413
      3.1639270              0.3623120
SP   3   1.00
      7.8682724             -0.1193324              0.0689991
      1.8812885             -0.1608542              0.3164240
      0.5442493              1.1434564              0.7443083
SP   1   1.00
      0.1687144              1.0000000              1.0000000
D    1   1.00
      1.2520000              1.0000000
D    1   1.00
      0.3130000              1.0000000
F    1   1.00
      0.8000000              1.0000000
****
N     0
S    6   1.00
   4173.5110000              0.0018348
    627.4579000              0.0139950
    142.9021000              0.0685870
     40.2343300              0.2322410
     12.8202100              0.4690700
      4.3904370              0.3604550
SP   3   1.00
     11.6263580             -0.1149610              0.0675800
      2.7162800             -0.1691180              0.3239070
      0.7722180              1.1458520              0.7408950
SP   1   1.00
      0.2120313              1.0000000              1.0000000
D    1   1.00
      1.8260000              1.0000000
D    1   1.00
      0.4565000              1.0000000
F    1   1.00
      1.0000000              1.0000000
****
O     0
S    6   1.00
   5484.6717000              0.0018311
    825.2349500              0.0139501
    188.0469600              0.0684451
     52.9645000              0.2327143
     16.8975700              0.4701930
      5.7996353              0.3585209
SP   3   1.00
     15.5396160             -0.1107775              0.0708743
      3.5999336             -0.1480263              0.3397528
      1.0137618              1.1307670              0.7271586
SP   1   1.00
      0.2700058              1.0000000              1.0000000
D    1   1.00
      2.5840000              1.0000000
D    1   1.00
      0.6460000              1.0000000
F    1   1.00
      1.4000000              1.0000000
****
F     0
S    6   1.00
   7001.7130900              0.0018196169
   1051.3660900              0.0139160796
    239.2856900              0.0684053245
     67.3974453              0.233185760
     21.5199573              0.471267439
      7.40310130             0.356618546
SP   3   1.00
     20.8479528             -0.108506975            0.0716287243
      4.80830834            -0.146451658            0.3459121030
      1.34406986             1.128688580            0.7224699570
SP   1   1.00
      0.358151393            1.0000000              1.0000000
D    1   1.00
      3.5000000              1.0000000
D    1   1.00
      0.8750000              1.0000000
F    1   1.00
      1.8500000              1.0000000
****
Al     0
S    6   1.00
  13983.1000000              0.00194267
   2098.7500000              0.0148599
    477.7050000              0.0728494
    134.3600000              0.2468300
     42.8709000              0.4872580
     14.5189000              0.3234960
SP   6   1.00
    239.6680000             -0.00292619             0.00460285
     57.4419000             -0.0374080              0.0331990
     18.2859000             -0.1144870              0.1362820
      6.5991400              0.1156350              0.3304760
      2.4904900              0.6125950              0.4491460
      0.9445400              0.3937990              0.2657040
SP   3   1.00
      1.2779000             -0.2276060             -0.0175130
      0.3975900              0.00144583             0.2445330
      0.1600950              1.0927900              0.8049340
SP   1   1.00
      0.0556577              1.0000000              1.0000000
D    1   1.00
      0.6500000              1.0000000
D    1   1.00
      0.1625000              1.0000000
F    1   1.00
      0.2500000              1.0000000
****
Si     0
S    6   1.00
  16115.9000000              0.00195948
   2425.5800000              0.01492880
    553.8670000              0.07284780
    156.3400000              0.24613000
     50.0683000              0.48591400
     17.0178000              0.32500200
SP   6   1.00
    292.7180000             -0.00278094             0.00443826
     69.8731000             -0.03571460             0.03266790
     22.3363000             -0.11498500             0.13472100
      8.1503900              0.09356340             0.32867800
      3.1345800              0.60301700             0.44964000
      1.2254300              0.41895900             0.26137200
SP   3   1.00
      1.7273800             -0.24463000            -0.01779510
      0.5729220              0.00431572             0.25353900
      0.2221920              1.09818000             0.80066900
SP   1   1.00
      0.0778369              1.00000000             1.00000000
D    1   1.00
      0.9000000              1.0000000
D    1   1.00
      0.2250000              1.0000000
F    1   1.00
      0.3200000              1.0000000
****
P     0
S    6   1.00
  19413.3000000              0.0018516
   2909.4200000              0.0142062
    661.3640000              0.0699995
    185.7590000              0.2400790
     59.1943000              0.4847620
     20.0310000              0.3352000
SP   6   1.00
    339.4780000             -0.00278217             0.00456462
     81.0101000             -0.0360499              0.03369360
     25.8780000             -0.1166310              0.13975500
      9.4522100              0.0968328              0.33936200
      3.6656600              0.6144180              0.45092100
      1.4674600              0.4037980              0.23858600
SP   3   1.00
      2.1562300             -0.2529230             -0.01776530
      0.7489970              0.0328517              0.27405800
      0.2831450              1.0812500              0.78542100
SP   1   1.00
      0.0998317              1.0000000              1.00000000
D    1   1.00
      1.1000000              1.0000000
D    1   1.00
      0.2750000              1.0000000
F    1   1.00
      0.4500000              1.0000000
****
S     0
S    6   1.00
  21917.1000000              0.0018690
   3301.4900000              0.0142300
    754.1460000              0.0696960
    212.7110000              0.2384870
     67.9896000              0.4833070
     23.0515000              0.3380740
SP   6   1.00
    423.7350000             -0.0023767              0.0040610
    100.7100000             -0.0316930              0.0306810
     32.1599000             -0.1133170              0.1304520
     11.8079000              0.0560900              0.3272050
      4.6311000              0.5922550              0.4528510
      1.8702500              0.4550060              0.2560420
SP   3   1.00
      2.6158400             -0.2503740             -0.0145110
      0.9221670              0.0669570              0.3102630
      0.3412870              1.0545100              0.7544830
SP   1   1.00
      0.1171670              1.0000000              1.0000000
D    1   1.00
      1.3000000              1.0000000
D    1   1.00
      0.3250000              1.0000000
F    1   1.00
      0.5500000              1.0000000
****
Cl     0
S    6   1.00
  25180.1000000              0.0018330
   3780.3500000              0.0140340
    860.4740000              0.0690970
    242.1450000              0.2374520
     77.3349000              0.4830340
     26.2470000              0.3398560
SP   6   1.00
    491.7650000             -0.0022974              0.0039894
    116.9840000             -0.0307140              0.0303180
     37.4153000             -0.1125280              0.1298800
     13.7834000              0.0450160              0.3279510
      5.4521500              0.5893530              0.4535270
      2.2258800              0.4652060              0.2521540
SP   3   1.00
      3.1864900             -0.2518300             -0.0142990
      1.1442700              0.0615890              0.3235720
      0.4203770              1.0601800              0.7435070
SP   1   1.00
      0.1426570              1.0000000              1.0000000
D    1   1.00
      1.5000000              1.0000000
D    1   1.00
      0.3750000              1.0000000
F    1   1.00
      0.7000000              1.0000000
****
}

set {
reference uhf
freeze_core true
e_convergence 10
d_convergence 10
dft_spherical_points 1202
dft_radial_points 99
}

e = energy('b3lyp')

print_out('Grab this energy {0}'.format(e))
--------------------------------------------------------------------------

    Molecular point group: cs

    Geometry (in Bohr), charge = 0, multiplicity = 2:

       Center              X                  Y                   Z               Mass
    ------------   -----------------  -----------------  -----------------  -----------------
         C           -0.258569566489     0.803001707623     0.000000000000    12.000000000000
         O           -2.188422264389    -0.330644211177     0.000000000000    15.994914619570
         C            2.406928709811    -0.246328526777     0.000000000000    12.000000000000
         H            2.384879545911    -2.317500388177     0.000000000000     1.007825032230
         H            3.383412808411     0.468425882623    -1.659297280100     1.007825032230
         H            3.383412808411     0.468425882623     1.659297280100     1.007825032230

  Charge       = 0
  Multiplicity = 2
  Basis Set: ANONYMOUS11E9CB48
    Blend: 6-31G_2DFP_
  Basis Set: (ANONYMOUS11E9CB48 AUX)
    Blend: DEF2-UNIVERSAL-JKFIT

    Orbital Energies [Eh]
    ---------------------

    Alpha Occupied:

       1Ap   -19.186785     2Ap   -10.271011     3Ap   -10.209890
       4Ap    -1.082485     5Ap    -0.762342     6Ap    -0.543806
       7Ap    -0.466937     8Ap    -0.457452     1App   -0.457067
       2App   -0.388098     9Ap    -0.386165    10Ap    -0.191582

    Alpha Virtual:

       3App   -0.018033    11Ap     0.092210    12Ap     0.136267
       4App    0.142057    13Ap     0.218658    14Ap     0.268481
      15Ap     0.428586     5App    0.431132    16Ap     0.444378
       6App    0.494143    17Ap     0.506031    18Ap     0.530215
       7App    0.563695    19Ap     0.577588    20Ap     0.610168
       8App    0.616707    21Ap     0.644365    22Ap     0.717981
       9App    0.766178    23Ap     0.785796    10App    0.832780
      11App    0.917227    24Ap     0.926802    25Ap     0.935143
      12App    1.025170    26Ap     1.086807    27Ap     1.108525
      13App    1.152932    28Ap     1.222673    29Ap     1.307114
      14App    1.317283    30Ap     1.327395    31Ap     1.403865
      15App    1.409185    32Ap     1.468818    33Ap     1.559773
      34Ap     1.632027    16App    1.654951    35Ap     1.721714
      17App    1.816368    36Ap     1.834933    37Ap     1.902187
      18App    2.067218    38Ap     2.167780    39Ap     2.498962
      19App    2.681323    40Ap     2.744865    41Ap     2.783743
      20App    2.845107    21App    2.894399    42Ap     2.973908
      43Ap     3.030997    22App    3.058862    23App    3.103685
      44Ap     3.116312    45Ap     3.182617    24App    3.313648
      46Ap     3.371244    25App    3.393151    26App    3.440659
      27App    3.466085    47Ap     3.487096    48Ap     3.570367
      49Ap     3.743297    50Ap     3.764097    51Ap     3.943822
      28App    3.986887    52Ap     4.060208    53Ap     4.111402
      29App    4.120367    54Ap     4.189159    30App    4.393239
      55Ap     4.436355    31App    4.451063    56Ap     4.534480
      57Ap     4.921253    58Ap     5.037433    32App    5.042574
      59Ap     5.203824    33App    5.205937    60Ap     5.477496
      34App    5.487210    61Ap     5.826261    35App    5.934696
      62Ap     6.108015    63Ap     6.771058    36App    6.773256
      37App    7.070964    64Ap     7.135257    65Ap     7.531712

    Beta Occupied:

       1Ap   -19.178716     2Ap   -10.260969     3Ap   -10.206514
       4Ap    -1.066582     5Ap    -0.750558     6Ap    -0.524190
       1App   -0.452510     7Ap    -0.446518     8Ap    -0.439388
       2App   -0.382925     9Ap    -0.348185

    Beta Virtual:

      10Ap    -0.052208     3App   -0.001752    11Ap     0.094996
      12Ap     0.141993     4App    0.145151    13Ap     0.229029
      14Ap     0.274111     5App    0.433117    15Ap     0.435873
      16Ap     0.466404     6App    0.500872    17Ap     0.527401
      18Ap     0.539193     7App    0.570145    19Ap     0.581752
       8App    0.623808    20Ap     0.628392    21Ap     0.650271
      22Ap     0.740116     9App    0.777269    23Ap     0.795699
      10App    0.833575    11App    0.922074    24Ap     0.943021
      25Ap     0.950646    12App    1.029401    26Ap     1.093034
      27Ap     1.110519    13App    1.159146    28Ap     1.231872
      29Ap     1.312786    14App    1.320156    30Ap     1.334167
      31Ap     1.414246    15App    1.414672    32Ap     1.481154
      33Ap     1.570918    34Ap     1.645302    16App    1.669365
      35Ap     1.728018    17App    1.819499    36Ap     1.849084
      37Ap     1.908903    18App    2.073944    38Ap     2.189196
      39Ap     2.511649    19App    2.695642    40Ap     2.759215
      41Ap     2.804811    20App    2.860426    21App    2.896072
      42Ap     2.983529    43Ap     3.047917    22App    3.067375
      23App    3.122267    44Ap     3.124637    45Ap     3.217174
      24App    3.357146    46Ap     3.382514    25App    3.399538
      26App    3.449134    27App    3.481462    47Ap     3.510627
      48Ap     3.583283    49Ap     3.768811    50Ap     3.773782
      51Ap     3.952502    28App    3.996221    52Ap     4.076638
      29App    4.123272    53Ap     4.126651    54Ap     4.200142
      30App    4.395446    55Ap     4.442570    31App    4.455263
      56Ap     4.545378    57Ap     4.925229    58Ap     5.054884
      32App    5.060598    33App    5.208158    59Ap     5.209563
      60Ap     5.490094    34App    5.501074    61Ap     5.839514
      35App    5.940288    62Ap     6.131216    63Ap     6.800360
      36App    6.802904    37App    7.075264    64Ap     7.164638
      65Ap     7.543370

    Final Occupation by Irrep:
             Ap   App
    DOCC [     9,    2 ]
    SOCC [     1,    0 ]

  @DF-UKS Final Energy:  -153.18842960899568

   => Energetics <=

    Nuclear Repulsion Energy =             62.8733323701350386
    One-Electron Energy =                -331.7407693552470391
    Two-Electron Energy =                 132.2623122846740671
    DFT Exchange-Correlation Energy =     -16.5833049085577215
    Empirical Dispersion Energy =           0.0000000000000000
    VV10 Nonlocal Energy =                  0.0000000000000000
    Total Energy =                       -153.1884296089956763

  UHF NO Occupations:
  HONO-2 :    8 Ap 1.9997846
  HONO-1 :    9 Ap 1.9992038
  HONO-0 :   10 Ap 1.0000000
  LUNO+0 :   11 Ap 0.0007962
  LUNO+1 :   12 Ap 0.0002154
  LUNO+2 :    3App 0.0001779
  LUNO+3 :   13 Ap 0.0000614

Computation Completed

Properties will be evaluated at   0.000000,   0.000000,   0.000000 [a0]

Properties computed using the SCF density matrix

  Nuclear Dipole Moment: [e a0]
     X:     4.5345      Y:    -0.6858      Z:     0.0000

  Electronic Dipole Moment: [e a0]
     X:    -3.6068      Y:     0.6358      Z:     0.0000

  Dipole Moment: [e a0]
     X:     0.9277      Y:    -0.0499      Z:     0.0000     Total:     0.9291

  Dipole Moment: [D]
     X:     2.3581      Y:    -0.1269      Z:     0.0000     Total:     2.3615

*** tstop() called on n061 at Tue Mar 15 10:34:38 2022
Module time:
	user time   =      50.58 seconds =       0.84 minutes
	system time =       0.58 seconds =       0.01 minutes
	total time  =         51 seconds =       0.85 minutes
Total time:
	user time   =      50.58 seconds =       0.84 minutes
	system time =       0.58 seconds =       0.01 minutes
	total time  =         51 seconds =       0.85 minutes
Grab this energy -153.18842960899568
    Psi4 stopped on: Tuesday, 15 March 2022 10:34AM
    Psi4 wall time for execution: 0:00:51.20

*** Psi4 exiting successfully. Buy a developer a beer!
