                               Psi4 1.4a2.dev629

  ==> Input File <==

--------------------------------------------------------------------------
import os
memory 14 GB

molecule {
 C   -0.2540071167    0.8063888643    0.0010324246
 O   -2.1942690875   -0.3347972105    0.0040780389
 C    2.4098968787   -0.2449495106   -0.0007982009
 H    2.3829049301   -2.3094491233   -0.0033299955
 H    3.3967836982    0.4665139614   -1.6650113910
 H    3.3833286794    0.4706586664    1.6640291239
units bohr
0 2
}

basis {

assign 6-31g_2dfp_

[ 6-31g_2dfp_ ]

spherical

!----------------------------------------------------------------------
! Basis Set Exchange
! Version v0.8.13
! https://www.basissetexchange.org
!----------------------------------------------------------------------
!   Basis set: 6-31G(2df,p)
! Description: 6-31G(2df,p)
!        Role: orbital
!     Version: 0  (Data from the original Basis Set Exchange)
!----------------------------------------------------------------------

****
H     0
S    3   1.00
     18.7311370              0.03349460
      2.8253937              0.23472695
      0.6401217              0.81375733
S    1   1.00
      0.1612778              1.00000000
P    1   1.00
      1.5000000              1.0000000
P    1   1.00
      0.3750000              1.0000000
****
B     0
S    6   1.00
   2068.8823000              0.0018663
    310.6495700              0.0142515
     70.6830330              0.0695516
     19.8610800              0.2325729
      6.2993048              0.4670787
      2.1270270              0.3634314
SP   3   1.00
      4.7279710             -0.1303938              0.0745976
      1.1903377             -0.1307889              0.3078467
      0.3594117              1.1309444              0.7434568
SP   1   1.00
      0.1267512              1.0000000              1.0000000
D    1   1.00
      0.8020000              1.0000000
D    1   1.00
      0.2005000              1.0000000
F    1   1.00
      0.5000000              1.0000000
****
C     0
S    6   1.00
   3047.5249000              0.0018347
    457.3695100              0.0140373
    103.9486900              0.0688426
     29.2101550              0.2321844
      9.2866630              0.4679413
      3.1639270              0.3623120
SP   3   1.00
      7.8682724             -0.1193324              0.0689991
      1.8812885             -0.1608542              0.3164240
      0.5442493              1.1434564              0.7443083
SP   1   1.00
      0.1687144              1.0000000              1.0000000
D    1   1.00
      1.2520000              1.0000000
D    1   1.00
      0.3130000              1.0000000
F    1   1.00
      0.8000000              1.0000000
****
N     0
S    6   1.00
   4173.5110000              0.0018348
    627.4579000              0.0139950
    142.9021000              0.0685870
     40.2343300              0.2322410
     12.8202100              0.4690700
      4.3904370              0.3604550
SP   3   1.00
     11.6263580             -0.1149610              0.0675800
      2.7162800             -0.1691180              0.3239070
      0.7722180              1.1458520              0.7408950
SP   1   1.00
      0.2120313              1.0000000              1.0000000
D    1   1.00
      1.8260000              1.0000000
D    1   1.00
      0.4565000              1.0000000
F    1   1.00
      1.0000000              1.0000000
****
O     0
S    6   1.00
   5484.6717000              0.0018311
    825.2349500              0.0139501
    188.0469600              0.0684451
     52.9645000              0.2327143
     16.8975700              0.4701930
      5.7996353              0.3585209
SP   3   1.00
     15.5396160             -0.1107775              0.0708743
      3.5999336             -0.1480263              0.3397528
      1.0137618              1.1307670              0.7271586
SP   1   1.00
      0.2700058              1.0000000              1.0000000
D    1   1.00
      2.5840000              1.0000000
D    1   1.00
      0.6460000              1.0000000
F    1   1.00
      1.4000000              1.0000000
****
F     0
S    6   1.00
   7001.7130900              0.0018196169
   1051.3660900              0.0139160796
    239.2856900              0.0684053245
     67.3974453              0.233185760
     21.5199573              0.471267439
      7.40310130             0.356618546
SP   3   1.00
     20.8479528             -0.108506975            0.0716287243
      4.80830834            -0.146451658            0.3459121030
      1.34406986             1.128688580            0.7224699570
SP   1   1.00
      0.358151393            1.0000000              1.0000000
D    1   1.00
      3.5000000              1.0000000
D    1   1.00
      0.8750000              1.0000000
F    1   1.00
      1.8500000              1.0000000
****
Al     0
S    6   1.00
  13983.1000000              0.00194267
   2098.7500000              0.0148599
    477.7050000              0.0728494
    134.3600000              0.2468300
     42.8709000              0.4872580
     14.5189000              0.3234960
SP   6   1.00
    239.6680000             -0.00292619             0.00460285
     57.4419000             -0.0374080              0.0331990
     18.2859000             -0.1144870              0.1362820
      6.5991400              0.1156350              0.3304760
      2.4904900              0.6125950              0.4491460
      0.9445400              0.3937990              0.2657040
SP   3   1.00
      1.2779000             -0.2276060             -0.0175130
      0.3975900              0.00144583             0.2445330
      0.1600950              1.0927900              0.8049340
SP   1   1.00
      0.0556577              1.0000000              1.0000000
D    1   1.00
      0.6500000              1.0000000
D    1   1.00
      0.1625000              1.0000000
F    1   1.00
      0.2500000              1.0000000
****
Si     0
S    6   1.00
  16115.9000000              0.00195948
   2425.5800000              0.01492880
    553.8670000              0.07284780
    156.3400000              0.24613000
     50.0683000              0.48591400
     17.0178000              0.32500200
SP   6   1.00
    292.7180000             -0.00278094             0.00443826
     69.8731000             -0.03571460             0.03266790
     22.3363000             -0.11498500             0.13472100
      8.1503900              0.09356340             0.32867800
      3.1345800              0.60301700             0.44964000
      1.2254300              0.41895900             0.26137200
SP   3   1.00
      1.7273800             -0.24463000            -0.01779510
      0.5729220              0.00431572             0.25353900
      0.2221920              1.09818000             0.80066900
SP   1   1.00
      0.0778369              1.00000000             1.00000000
D    1   1.00
      0.9000000              1.0000000
D    1   1.00
      0.2250000              1.0000000
F    1   1.00
      0.3200000              1.0000000
****
P     0
S    6   1.00
  19413.3000000              0.0018516
   2909.4200000              0.0142062
    661.3640000              0.0699995
    185.7590000              0.2400790
     59.1943000              0.4847620
     20.0310000              0.3352000
SP   6   1.00
    339.4780000             -0.00278217             0.00456462
     81.0101000             -0.0360499              0.03369360
     25.8780000             -0.1166310              0.13975500
      9.4522100              0.0968328              0.33936200
      3.6656600              0.6144180              0.45092100
      1.4674600              0.4037980              0.23858600
SP   3   1.00
      2.1562300             -0.2529230             -0.01776530
      0.7489970              0.0328517              0.27405800
      0.2831450              1.0812500              0.78542100
SP   1   1.00
      0.0998317              1.0000000              1.00000000
D    1   1.00
      1.1000000              1.0000000
D    1   1.00
      0.2750000              1.0000000
F    1   1.00
      0.4500000              1.0000000
****
S     0
S    6   1.00
  21917.1000000              0.0018690
   3301.4900000              0.0142300
    754.1460000              0.0696960
    212.7110000              0.2384870
     67.9896000              0.4833070
     23.0515000              0.3380740
SP   6   1.00
    423.7350000             -0.0023767              0.0040610
    100.7100000             -0.0316930              0.0306810
     32.1599000             -0.1133170              0.1304520
     11.8079000              0.0560900              0.3272050
      4.6311000              0.5922550              0.4528510
      1.8702500              0.4550060              0.2560420
SP   3   1.00
      2.6158400             -0.2503740             -0.0145110
      0.9221670              0.0669570              0.3102630
      0.3412870              1.0545100              0.7544830
SP   1   1.00
      0.1171670              1.0000000              1.0000000
D    1   1.00
      1.3000000              1.0000000
D    1   1.00
      0.3250000              1.0000000
F    1   1.00
      0.5500000              1.0000000
****
Cl     0
S    6   1.00
  25180.1000000              0.0018330
   3780.3500000              0.0140340
    860.4740000              0.0690970
    242.1450000              0.2374520
     77.3349000              0.4830340
     26.2470000              0.3398560
SP   6   1.00
    491.7650000             -0.0022974              0.0039894
    116.9840000             -0.0307140              0.0303180
     37.4153000             -0.1125280              0.1298800
     13.7834000              0.0450160              0.3279510
      5.4521500              0.5893530              0.4535270
      2.2258800              0.4652060              0.2521540
SP   3   1.00
      3.1864900             -0.2518300             -0.0142990
      1.1442700              0.0615890              0.3235720
      0.4203770              1.0601800              0.7435070
SP   1   1.00
      0.1426570              1.0000000              1.0000000
D    1   1.00
      1.5000000              1.0000000
D    1   1.00
      0.3750000              1.0000000
F    1   1.00
      0.7000000              1.0000000
****
}

set {
reference uhf
freeze_core true
e_convergence 10
d_convergence 10
dft_spherical_points 1202
dft_radial_points 99
}

e = energy('b3lyp')

print_out('Grab this energy {0}'.format(e))
--------------------------------------------------------------------------

    Molecular point group: c1

    Geometry (in Bohr), charge = 0, multiplicity = 2:

       Center              X                  Y                   Z               Mass
    ------------   -----------------  -----------------  -----------------  -----------------
         C           -0.254198863778     0.806407348389    -0.000448164577    12.000000000000
         O           -2.194460834578    -0.334778726411     0.002597449723    15.994914619570
         C            2.409705131622    -0.244931026511    -0.002278790077    12.000000000000
         H            2.382713183022    -2.309430639211    -0.004810584677     1.007825032230
         H            3.396591951122     0.466532445489    -1.666491980177     1.007825032230
         H            3.383136932322     0.470677150489     1.662548534723     1.007825032230

  Charge       = 0
  Multiplicity = 2
  Basis Set: ANONYMOUSDD9331B3
    Blend: 6-31G_2DFP_
  Basis Set: (ANONYMOUSDD9331B3 AUX)
    Blend: DEF2-UNIVERSAL-JKFIT

    Orbital Energies [Eh]
    ---------------------

    Alpha Occupied:

       1A    -19.186844     2A    -10.272262     3A    -10.210675
       4A     -1.078737     5A     -0.762693     6A     -0.544215
       7A     -0.466021     8A     -0.457288     9A     -0.456241
      10A     -0.386442    11A     -0.385254    12A     -0.193102

    Alpha Virtual:

      13A     -0.020110    14A      0.091552    15A      0.136446
      16A      0.141097    17A      0.217932    18A      0.267996
      19A      0.427924    20A      0.431381    21A      0.443797
      22A      0.493677    23A      0.506174    24A      0.529848
      25A      0.562951    26A      0.577280    27A      0.605888
      28A      0.616012    29A      0.643719    30A      0.716799
      31A      0.765759    32A      0.785022    33A      0.831998
      34A      0.918277    35A      0.928105    36A      0.936119
      37A      1.022944    38A      1.084906    39A      1.106724
      40A      1.153561    41A      1.222131    42A      1.306533
      43A      1.316801    44A      1.327709    45A      1.403094
      46A      1.407156    47A      1.467556    48A      1.560218
      49A      1.628582    50A      1.652433    51A      1.719160
      52A      1.812777    53A      1.833970    54A      1.901062
      55A      2.064122    56A      2.165216    57A      2.489071
      58A      2.680396    59A      2.744199    60A      2.783951
      61A      2.841032    62A      2.894191    63A      2.972864
      64A      3.030441    65A      3.057380    66A      3.105693
      67A      3.115295    68A      3.182389    69A      3.314730
      70A      3.366665    71A      3.392992    72A      3.439139
      73A      3.466000    74A      3.484829    75A      3.570872
      76A      3.734362    77A      3.762427    78A      3.942966
      79A      3.984979    80A      4.054452    81A      4.111051
      82A      4.119278    83A      4.187937    84A      4.390023
      85A      4.435524    86A      4.448704    87A      4.533195
      88A      4.919347    89A      5.036982    90A      5.041990
      91A      5.197941    92A      5.206613    93A      5.467525
      94A      5.476475    95A      5.827968    96A      5.923511
      97A      6.099057    98A      6.770287    99A      6.772304
     100A      7.072023   101A      7.134939   102A      7.526747

    Beta Occupied:

       1A    -19.178755     2A    -10.262172     3A    -10.207342
       4A     -1.062707     5A     -0.750932     6A     -0.524445
       7A     -0.451930     8A     -0.447032     9A     -0.438214
      10A     -0.381197    11A     -0.346719

    Beta Virtual:

      12A     -0.053502    13A     -0.003809    14A      0.094235
      15A      0.142166    16A      0.144193    17A      0.228240
      18A      0.273761    19A      0.433253    20A      0.435080
      21A      0.465956    22A      0.500367    23A      0.527314
      24A      0.538907    25A      0.569289    26A      0.581517
      27A      0.623199    28A      0.624862    29A      0.649143
      30A      0.738520    31A      0.776982    32A      0.795117
      33A      0.832779    34A      0.923112    35A      0.944133
      36A      0.951873    37A      1.027119    38A      1.091040
      39A      1.108830    40A      1.159760    41A      1.231323
      42A      1.312076    43A      1.319657    44A      1.334506
      45A      1.412587    46A      1.413496    47A      1.479876
      48A      1.571547    49A      1.641693    50A      1.666820
      51A      1.725434    52A      1.815922    53A      1.848031
      54A      1.907712    55A      2.070853    56A      2.186699
      57A      2.501713    58A      2.694659    59A      2.758616
      60A      2.805077    61A      2.856409    62A      2.895825
      63A      2.982299    64A      3.047088    65A      3.065963
      66A      3.123006    67A      3.124921    68A      3.217096
      69A      3.358620    70A      3.378157    71A      3.399152
      72A      3.446520    73A      3.482562    74A      3.507968
      75A      3.584035    76A      3.760170    77A      3.771761
      78A      3.951656    79A      3.994223    80A      4.070800
      81A      4.122113    82A      4.125540    83A      4.199830
      84A      4.392260    85A      4.441741    86A      4.452929
      87A      4.544063    88A      4.923230    89A      5.054523
      90A      5.060045    91A      5.200141    92A      5.212337
      93A      5.480230    94A      5.490345    95A      5.841233
      96A      5.929106    97A      6.122316    98A      6.799644
      99A      6.802009   100A      7.076343   101A      7.164417
     102A      7.538462

    Final Occupation by Irrep:
              A
    DOCC [    11 ]
    SOCC [     1 ]

  @DF-UKS Final Energy:  -153.18835022240052

   => Energetics <=

    Nuclear Repulsion Energy =             62.7208212489665371
    One-Electron Energy =                -331.4487034701400034
    Two-Electron Energy =                 132.1174872713911270
    DFT Exchange-Correlation Energy =     -16.5779552726181976
    Empirical Dispersion Energy =           0.0000000000000000
    VV10 Nonlocal Energy =                  0.0000000000000000
    Total Energy =                       -153.1883502224005156

  UHF NO Occupations:
  HONO-2 :   10  A 1.9997883
  HONO-1 :   11  A 1.9991939
  HONO-0 :   12  A 1.0000000
  LUNO+0 :   13  A 0.0008061
  LUNO+1 :   14  A 0.0002117
  LUNO+2 :   15  A 0.0001822
  LUNO+3 :   16  A 0.0000620

Computation Completed

Properties will be evaluated at   0.000000,   0.000000,   0.000000 [a0]

Properties computed using the SCF density matrix

  Nuclear Dipole Moment: [e a0]
     X:     4.5398      Y:    -0.6816      Z:    -0.0043

  Electronic Dipole Moment: [e a0]
     X:    -3.5999      Y:     0.6323      Z:     0.0034

  Dipole Moment: [e a0]
     X:     0.9399      Y:    -0.0493      Z:    -0.0010     Total:     0.9412

  Dipole Moment: [D]
     X:     2.3891      Y:    -0.1254      Z:    -0.0025     Total:     2.3924

*** tstop() called on n065 at Tue Mar 15 10:32:54 2022
Module time:
	user time   =      50.68 seconds =       0.84 minutes
	system time =       0.55 seconds =       0.01 minutes
	total time  =         51 seconds =       0.85 minutes
Total time:
	user time   =      50.68 seconds =       0.84 minutes
	system time =       0.55 seconds =       0.01 minutes
	total time  =         51 seconds =       0.85 minutes
Grab this energy -153.18835022240052
    Psi4 stopped on: Tuesday, 15 March 2022 10:32AM
    Psi4 wall time for execution: 0:00:51.27

*** Psi4 exiting successfully. Buy a developer a beer!
