                               Psi4 1.4a2.dev629

  ==> Input File <==

--------------------------------------------------------------------------
import os
memory 14 GB

molecule {
 C   -0.2595700622    0.8060295433    0.0041444823
 O   -2.1912763642   -0.3331854550   -0.0028186752
 C    2.4105519907   -0.2442757337    0.0012615993
 H    2.3825290550   -2.3140674967   -0.0004372602
 H    3.3912584618    0.4687413034   -1.6606374286
 H    3.3911449012    0.4711234866    1.6584872824
units bohr
0 2
}

basis {

assign 6-31g_2dfp_

[ 6-31g_2dfp_ ]

spherical

!----------------------------------------------------------------------
! Basis Set Exchange
! Version v0.8.13
! https://www.basissetexchange.org
!----------------------------------------------------------------------
!   Basis set: 6-31G(2df,p)
! Description: 6-31G(2df,p)
!        Role: orbital
!     Version: 0  (Data from the original Basis Set Exchange)
!----------------------------------------------------------------------

****
H     0
S    3   1.00
     18.7311370              0.03349460
      2.8253937              0.23472695
      0.6401217              0.81375733
S    1   1.00
      0.1612778              1.00000000
P    1   1.00
      1.5000000              1.0000000
P    1   1.00
      0.3750000              1.0000000
****
B     0
S    6   1.00
   2068.8823000              0.0018663
    310.6495700              0.0142515
     70.6830330              0.0695516
     19.8610800              0.2325729
      6.2993048              0.4670787
      2.1270270              0.3634314
SP   3   1.00
      4.7279710             -0.1303938              0.0745976
      1.1903377             -0.1307889              0.3078467
      0.3594117              1.1309444              0.7434568
SP   1   1.00
      0.1267512              1.0000000              1.0000000
D    1   1.00
      0.8020000              1.0000000
D    1   1.00
      0.2005000              1.0000000
F    1   1.00
      0.5000000              1.0000000
****
C     0
S    6   1.00
   3047.5249000              0.0018347
    457.3695100              0.0140373
    103.9486900              0.0688426
     29.2101550              0.2321844
      9.2866630              0.4679413
      3.1639270              0.3623120
SP   3   1.00
      7.8682724             -0.1193324              0.0689991
      1.8812885             -0.1608542              0.3164240
      0.5442493              1.1434564              0.7443083
SP   1   1.00
      0.1687144              1.0000000              1.0000000
D    1   1.00
      1.2520000              1.0000000
D    1   1.00
      0.3130000              1.0000000
F    1   1.00
      0.8000000              1.0000000
****
N     0
S    6   1.00
   4173.5110000              0.0018348
    627.4579000              0.0139950
    142.9021000              0.0685870
     40.2343300              0.2322410
     12.8202100              0.4690700
      4.3904370              0.3604550
SP   3   1.00
     11.6263580             -0.1149610              0.0675800
      2.7162800             -0.1691180              0.3239070
      0.7722180              1.1458520              0.7408950
SP   1   1.00
      0.2120313              1.0000000              1.0000000
D    1   1.00
      1.8260000              1.0000000
D    1   1.00
      0.4565000              1.0000000
F    1   1.00
      1.0000000              1.0000000
****
O     0
S    6   1.00
   5484.6717000              0.0018311
    825.2349500              0.0139501
    188.0469600              0.0684451
     52.9645000              0.2327143
     16.8975700              0.4701930
      5.7996353              0.3585209
SP   3   1.00
     15.5396160             -0.1107775              0.0708743
      3.5999336             -0.1480263              0.3397528
      1.0137618              1.1307670              0.7271586
SP   1   1.00
      0.2700058              1.0000000              1.0000000
D    1   1.00
      2.5840000              1.0000000
D    1   1.00
      0.6460000              1.0000000
F    1   1.00
      1.4000000              1.0000000
****
F     0
S    6   1.00
   7001.7130900              0.0018196169
   1051.3660900              0.0139160796
    239.2856900              0.0684053245
     67.3974453              0.233185760
     21.5199573              0.471267439
      7.40310130             0.356618546
SP   3   1.00
     20.8479528             -0.108506975            0.0716287243
      4.80830834            -0.146451658            0.3459121030
      1.34406986             1.128688580            0.7224699570
SP   1   1.00
      0.358151393            1.0000000              1.0000000
D    1   1.00
      3.5000000              1.0000000
D    1   1.00
      0.8750000              1.0000000
F    1   1.00
      1.8500000              1.0000000
****
Al     0
S    6   1.00
  13983.1000000              0.00194267
   2098.7500000              0.0148599
    477.7050000              0.0728494
    134.3600000              0.2468300
     42.8709000              0.4872580
     14.5189000              0.3234960
SP   6   1.00
    239.6680000             -0.00292619             0.00460285
     57.4419000             -0.0374080              0.0331990
     18.2859000             -0.1144870              0.1362820
      6.5991400              0.1156350              0.3304760
      2.4904900              0.6125950              0.4491460
      0.9445400              0.3937990              0.2657040
SP   3   1.00
      1.2779000             -0.2276060             -0.0175130
      0.3975900              0.00144583             0.2445330
      0.1600950              1.0927900              0.8049340
SP   1   1.00
      0.0556577              1.0000000              1.0000000
D    1   1.00
      0.6500000              1.0000000
D    1   1.00
      0.1625000              1.0000000
F    1   1.00
      0.2500000              1.0000000
****
Si     0
S    6   1.00
  16115.9000000              0.00195948
   2425.5800000              0.01492880
    553.8670000              0.07284780
    156.3400000              0.24613000
     50.0683000              0.48591400
     17.0178000              0.32500200
SP   6   1.00
    292.7180000             -0.00278094             0.00443826
     69.8731000             -0.03571460             0.03266790
     22.3363000             -0.11498500             0.13472100
      8.1503900              0.09356340             0.32867800
      3.1345800              0.60301700             0.44964000
      1.2254300              0.41895900             0.26137200
SP   3   1.00
      1.7273800             -0.24463000            -0.01779510
      0.5729220              0.00431572             0.25353900
      0.2221920              1.09818000             0.80066900
SP   1   1.00
      0.0778369              1.00000000             1.00000000
D    1   1.00
      0.9000000              1.0000000
D    1   1.00
      0.2250000              1.0000000
F    1   1.00
      0.3200000              1.0000000
****
P     0
S    6   1.00
  19413.3000000              0.0018516
   2909.4200000              0.0142062
    661.3640000              0.0699995
    185.7590000              0.2400790
     59.1943000              0.4847620
     20.0310000              0.3352000
SP   6   1.00
    339.4780000             -0.00278217             0.00456462
     81.0101000             -0.0360499              0.03369360
     25.8780000             -0.1166310              0.13975500
      9.4522100              0.0968328              0.33936200
      3.6656600              0.6144180              0.45092100
      1.4674600              0.4037980              0.23858600
SP   3   1.00
      2.1562300             -0.2529230             -0.01776530
      0.7489970              0.0328517              0.27405800
      0.2831450              1.0812500              0.78542100
SP   1   1.00
      0.0998317              1.0000000              1.00000000
D    1   1.00
      1.1000000              1.0000000
D    1   1.00
      0.2750000              1.0000000
F    1   1.00
      0.4500000              1.0000000
****
S     0
S    6   1.00
  21917.1000000              0.0018690
   3301.4900000              0.0142300
    754.1460000              0.0696960
    212.7110000              0.2384870
     67.9896000              0.4833070
     23.0515000              0.3380740
SP   6   1.00
    423.7350000             -0.0023767              0.0040610
    100.7100000             -0.0316930              0.0306810
     32.1599000             -0.1133170              0.1304520
     11.8079000              0.0560900              0.3272050
      4.6311000              0.5922550              0.4528510
      1.8702500              0.4550060              0.2560420
SP   3   1.00
      2.6158400             -0.2503740             -0.0145110
      0.9221670              0.0669570              0.3102630
      0.3412870              1.0545100              0.7544830
SP   1   1.00
      0.1171670              1.0000000              1.0000000
D    1   1.00
      1.3000000              1.0000000
D    1   1.00
      0.3250000              1.0000000
F    1   1.00
      0.5500000              1.0000000
****
Cl     0
S    6   1.00
  25180.1000000              0.0018330
   3780.3500000              0.0140340
    860.4740000              0.0690970
    242.1450000              0.2374520
     77.3349000              0.4830340
     26.2470000              0.3398560
SP   6   1.00
    491.7650000             -0.0022974              0.0039894
    116.9840000             -0.0307140              0.0303180
     37.4153000             -0.1125280              0.1298800
     13.7834000              0.0450160              0.3279510
      5.4521500              0.5893530              0.4535270
      2.2258800              0.4652060              0.2521540
SP   3   1.00
      3.1864900             -0.2518300             -0.0142990
      1.1442700              0.0615890              0.3235720
      0.4203770              1.0601800              0.7435070
SP   1   1.00
      0.1426570              1.0000000              1.0000000
D    1   1.00
      1.5000000              1.0000000
D    1   1.00
      0.3750000              1.0000000
F    1   1.00
      0.7000000              1.0000000
****
}

set {
reference uhf
freeze_core true
e_convergence 10
d_convergence 10
dft_spherical_points 1202
dft_radial_points 99
}

e = energy('b3lyp')

print_out('Grab this energy {0}'.format(e))
--------------------------------------------------------------------------

    Molecular point group: c1

    Geometry (in Bohr), charge = 0, multiplicity = 2:

       Center              X                  Y                   Z               Mass
    ------------   -----------------  -----------------  -----------------  -----------------
         C           -0.259550375231     0.805406160533     0.003745098287    12.000000000000
         O           -2.191256677231    -0.333808837767    -0.003218059213    15.994914619570
         C            2.410571677669    -0.244899116467     0.000862215287    12.000000000000
         H            2.382548741969    -2.314690879467    -0.000836644213     1.007825032230
         H            3.391278148769     0.468117920633    -1.661036812613     1.007825032230
         H            3.391164588169     0.470500103833     1.658087898387     1.007825032230

  Charge       = 0
  Multiplicity = 2
  Basis Set: ANONYMOUS728068D4
    Blend: 6-31G_2DFP_
  Basis Set: (ANONYMOUS728068D4 AUX)
    Blend: DEF2-UNIVERSAL-JKFIT

    Orbital Energies [Eh]
    ---------------------

    Alpha Occupied:

       1A    -19.186961     2A    -10.271684     3A    -10.210343
       4A     -1.081279     5A     -0.761916     6A     -0.543962
       7A     -0.466637     8A     -0.457098     9A     -0.456358
      10A     -0.387626    11A     -0.386119    12A     -0.192211

    Alpha Virtual:

      13A     -0.018889    14A      0.092028    15A      0.136282
      16A      0.141757    17A      0.217669    18A      0.268117
      19A      0.428262    20A      0.431430    21A      0.443791
      22A      0.493889    23A      0.506119    24A      0.530187
      25A      0.563314    26A      0.577296    27A      0.608311
      28A      0.616341    29A      0.643768    30A      0.717617
      31A      0.766088    32A      0.785277    33A      0.832558
      34A      0.917318    35A      0.927246    36A      0.935278
      37A      1.023304    38A      1.084382    39A      1.108718
      40A      1.153385    41A      1.220829    42A      1.306309
      43A      1.316442    44A      1.327173    45A      1.404142
      46A      1.407840    47A      1.467737    48A      1.559760
      49A      1.630286    50A      1.653870    51A      1.720709
      52A      1.814866    53A      1.833521    54A      1.900977
      55A      2.065607    56A      2.165864    57A      2.495429
      58A      2.680321    59A      2.743736    60A      2.783238
      61A      2.844210    62A      2.894334    63A      2.972380
      64A      3.030926    65A      3.058073    66A      3.105144
      67A      3.114728    68A      3.183372    69A      3.313887
      70A      3.370319    71A      3.392639    72A      3.439335
      73A      3.465842    74A      3.486585    75A      3.569961
      76A      3.739316    77A      3.760135    78A      3.942613
      79A      3.982365    80A      4.055778    81A      4.110246
      82A      4.119139    83A      4.189097    84A      4.390647
      85A      4.433160    86A      4.449630    87A      4.530878
      88A      4.919862    89A      5.036986    90A      5.042214
      91A      5.202390    92A      5.203640    93A      5.473395
      94A      5.482689    95A      5.826503    96A      5.930195
      97A      6.103596    98A      6.770577    99A      6.772745
     100A      7.070745   101A      7.134933   102A      7.529738

    Beta Occupied:

       1A    -19.178896     2A    -10.261630     3A    -10.206960
       4A     -1.065354     5A     -0.750139     6A     -0.524287
       7A     -0.451854     8A     -0.446442     9A     -0.439005
      10A     -0.382440    11A     -0.347919

    Beta Virtual:

      12A     -0.052828    13A     -0.002606    14A      0.094804
      15A      0.141954    16A      0.144860    17A      0.228154
      18A      0.273799    19A      0.433398    20A      0.435607
      21A      0.465701    22A      0.500595    23A      0.527500
      24A      0.539185    25A      0.569757    26A      0.581458
      27A      0.623462    28A      0.626848    29A      0.649425
      30A      0.739586    31A      0.777237    32A      0.795246
      33A      0.833343    34A      0.922156    35A      0.943276
      36A      0.950961    37A      1.027493    38A      1.090584
      39A      1.110747    40A      1.159592    41A      1.230071
      42A      1.311928    43A      1.319299    44A      1.333964
      45A      1.413317    46A      1.414554    47A      1.480017
      48A      1.570991    49A      1.643496    50A      1.668253
      51A      1.726957    52A      1.818023    53A      1.847666
      54A      1.907606    55A      2.072320    56A      2.187260
      57A      2.508101    58A      2.694592    59A      2.758102
      60A      2.804349    61A      2.859682    62A      2.895978
      63A      2.981884    64A      3.047781    65A      3.066542
      66A      3.123030    67A      3.123842    68A      3.218067
      69A      3.357476    70A      3.381836    71A      3.399039
      72A      3.447780    73A      3.481315    74A      3.509595
      75A      3.583089    76A      3.765095    77A      3.769576
      78A      3.951302    79A      3.991683    80A      4.072226
      81A      4.122020    82A      4.125565    83A      4.200150
      84A      4.392866    85A      4.439344    86A      4.453819
      87A      4.541724    88A      4.923789    89A      5.054444
      90A      5.060222    91A      5.205836    92A      5.208123
      93A      5.486033    94A      5.496539    95A      5.839738
      96A      5.935780    97A      6.126793    98A      6.799861
      99A      6.802371   100A      7.075042   101A      7.164305
     102A      7.541402

    Final Occupation by Irrep:
              A
    DOCC [    11 ]
    SOCC [     1 ]

  @DF-UKS Final Energy:  -153.18841837037780

   => Energetics <=

    Nuclear Repulsion Energy =             62.7813991640776692
    One-Electron Energy =                -331.5624031871321904
    Two-Electron Energy =                 132.1730089171807663
    DFT Exchange-Correlation Energy =     -16.5804232645040912
    Empirical Dispersion Energy =           0.0000000000000000
    VV10 Nonlocal Energy =                  0.0000000000000000
    Total Energy =                       -153.1884183703778035

  UHF NO Occupations:
  HONO-2 :   10  A 1.9997832
  HONO-1 :   11  A 1.9992018
  HONO-0 :   12  A 1.0000000
  LUNO+0 :   13  A 0.0007982
  LUNO+1 :   14  A 0.0002168
  LUNO+2 :   15  A 0.0001797
  LUNO+3 :   16  A 0.0000616

Computation Completed

Properties will be evaluated at   0.000000,   0.000000,   0.000000 [a0]

Properties computed using the SCF density matrix

  Nuclear Dipole Moment: [e a0]
     X:     4.5411      Y:    -0.6835      Z:    -0.0019

  Electronic Dipole Moment: [e a0]
     X:    -3.6099      Y:     0.6344      Z:     0.0019

  Dipole Moment: [e a0]
     X:     0.9312      Y:    -0.0491      Z:    -0.0000     Total:     0.9325

  Dipole Moment: [D]
     X:     2.3668      Y:    -0.1247      Z:    -0.0000     Total:     2.3701

*** tstop() called on n046 at Tue Mar 15 10:31:11 2022
Module time:
	user time   =      51.70 seconds =       0.86 minutes
	system time =       0.48 seconds =       0.01 minutes
	total time  =         52 seconds =       0.87 minutes
Total time:
	user time   =      51.70 seconds =       0.86 minutes
	system time =       0.48 seconds =       0.01 minutes
	total time  =         52 seconds =       0.87 minutes
Grab this energy -153.1884183703778
    Psi4 stopped on: Tuesday, 15 March 2022 10:31AM
    Psi4 wall time for execution: 0:00:52.22

*** Psi4 exiting successfully. Buy a developer a beer!
