                               Psi4 1.4a2.dev629

  ==> Input File <==

--------------------------------------------------------------------------
import os
memory 14 GB

molecule {
 C   -0.2585956426    0.8117595578   -0.0000000002
 O   -2.1932471105   -0.3402447974    0.0000000102
 C    2.4109648927   -0.2408914316    0.0000000098
 H    2.3905415218   -2.3051333283    0.0000000293
 H    3.3884669691    0.4723222243   -1.6650173616
 H    3.3884673194    0.4723223952    1.6650171326
units bohr
0 2
}

basis {

assign 6-31g_2dfp_

[ 6-31g_2dfp_ ]

spherical

!----------------------------------------------------------------------
! Basis Set Exchange
! Version v0.8.13
! https://www.basissetexchange.org
!----------------------------------------------------------------------
!   Basis set: 6-31G(2df,p)
! Description: 6-31G(2df,p)
!        Role: orbital
!     Version: 0  (Data from the original Basis Set Exchange)
!----------------------------------------------------------------------

****
H     0
S    3   1.00
     18.7311370              0.03349460
      2.8253937              0.23472695
      0.6401217              0.81375733
S    1   1.00
      0.1612778              1.00000000
P    1   1.00
      1.5000000              1.0000000
P    1   1.00
      0.3750000              1.0000000
****
B     0
S    6   1.00
   2068.8823000              0.0018663
    310.6495700              0.0142515
     70.6830330              0.0695516
     19.8610800              0.2325729
      6.2993048              0.4670787
      2.1270270              0.3634314
SP   3   1.00
      4.7279710             -0.1303938              0.0745976
      1.1903377             -0.1307889              0.3078467
      0.3594117              1.1309444              0.7434568
SP   1   1.00
      0.1267512              1.0000000              1.0000000
D    1   1.00
      0.8020000              1.0000000
D    1   1.00
      0.2005000              1.0000000
F    1   1.00
      0.5000000              1.0000000
****
C     0
S    6   1.00
   3047.5249000              0.0018347
    457.3695100              0.0140373
    103.9486900              0.0688426
     29.2101550              0.2321844
      9.2866630              0.4679413
      3.1639270              0.3623120
SP   3   1.00
      7.8682724             -0.1193324              0.0689991
      1.8812885             -0.1608542              0.3164240
      0.5442493              1.1434564              0.7443083
SP   1   1.00
      0.1687144              1.0000000              1.0000000
D    1   1.00
      1.2520000              1.0000000
D    1   1.00
      0.3130000              1.0000000
F    1   1.00
      0.8000000              1.0000000
****
N     0
S    6   1.00
   4173.5110000              0.0018348
    627.4579000              0.0139950
    142.9021000              0.0685870
     40.2343300              0.2322410
     12.8202100              0.4690700
      4.3904370              0.3604550
SP   3   1.00
     11.6263580             -0.1149610              0.0675800
      2.7162800             -0.1691180              0.3239070
      0.7722180              1.1458520              0.7408950
SP   1   1.00
      0.2120313              1.0000000              1.0000000
D    1   1.00
      1.8260000              1.0000000
D    1   1.00
      0.4565000              1.0000000
F    1   1.00
      1.0000000              1.0000000
****
O     0
S    6   1.00
   5484.6717000              0.0018311
    825.2349500              0.0139501
    188.0469600              0.0684451
     52.9645000              0.2327143
     16.8975700              0.4701930
      5.7996353              0.3585209
SP   3   1.00
     15.5396160             -0.1107775              0.0708743
      3.5999336             -0.1480263              0.3397528
      1.0137618              1.1307670              0.7271586
SP   1   1.00
      0.2700058              1.0000000              1.0000000
D    1   1.00
      2.5840000              1.0000000
D    1   1.00
      0.6460000              1.0000000
F    1   1.00
      1.4000000              1.0000000
****
F     0
S    6   1.00
   7001.7130900              0.0018196169
   1051.3660900              0.0139160796
    239.2856900              0.0684053245
     67.3974453              0.233185760
     21.5199573              0.471267439
      7.40310130             0.356618546
SP   3   1.00
     20.8479528             -0.108506975            0.0716287243
      4.80830834            -0.146451658            0.3459121030
      1.34406986             1.128688580            0.7224699570
SP   1   1.00
      0.358151393            1.0000000              1.0000000
D    1   1.00
      3.5000000              1.0000000
D    1   1.00
      0.8750000              1.0000000
F    1   1.00
      1.8500000              1.0000000
****
Al     0
S    6   1.00
  13983.1000000              0.00194267
   2098.7500000              0.0148599
    477.7050000              0.0728494
    134.3600000              0.2468300
     42.8709000              0.4872580
     14.5189000              0.3234960
SP   6   1.00
    239.6680000             -0.00292619             0.00460285
     57.4419000             -0.0374080              0.0331990
     18.2859000             -0.1144870              0.1362820
      6.5991400              0.1156350              0.3304760
      2.4904900              0.6125950              0.4491460
      0.9445400              0.3937990              0.2657040
SP   3   1.00
      1.2779000             -0.2276060             -0.0175130
      0.3975900              0.00144583             0.2445330
      0.1600950              1.0927900              0.8049340
SP   1   1.00
      0.0556577              1.0000000              1.0000000
D    1   1.00
      0.6500000              1.0000000
D    1   1.00
      0.1625000              1.0000000
F    1   1.00
      0.2500000              1.0000000
****
Si     0
S    6   1.00
  16115.9000000              0.00195948
   2425.5800000              0.01492880
    553.8670000              0.07284780
    156.3400000              0.24613000
     50.0683000              0.48591400
     17.0178000              0.32500200
SP   6   1.00
    292.7180000             -0.00278094             0.00443826
     69.8731000             -0.03571460             0.03266790
     22.3363000             -0.11498500             0.13472100
      8.1503900              0.09356340             0.32867800
      3.1345800              0.60301700             0.44964000
      1.2254300              0.41895900             0.26137200
SP   3   1.00
      1.7273800             -0.24463000            -0.01779510
      0.5729220              0.00431572             0.25353900
      0.2221920              1.09818000             0.80066900
SP   1   1.00
      0.0778369              1.00000000             1.00000000
D    1   1.00
      0.9000000              1.0000000
D    1   1.00
      0.2250000              1.0000000
F    1   1.00
      0.3200000              1.0000000
****
P     0
S    6   1.00
  19413.3000000              0.0018516
   2909.4200000              0.0142062
    661.3640000              0.0699995
    185.7590000              0.2400790
     59.1943000              0.4847620
     20.0310000              0.3352000
SP   6   1.00
    339.4780000             -0.00278217             0.00456462
     81.0101000             -0.0360499              0.03369360
     25.8780000             -0.1166310              0.13975500
      9.4522100              0.0968328              0.33936200
      3.6656600              0.6144180              0.45092100
      1.4674600              0.4037980              0.23858600
SP   3   1.00
      2.1562300             -0.2529230             -0.01776530
      0.7489970              0.0328517              0.27405800
      0.2831450              1.0812500              0.78542100
SP   1   1.00
      0.0998317              1.0000000              1.00000000
D    1   1.00
      1.1000000              1.0000000
D    1   1.00
      0.2750000              1.0000000
F    1   1.00
      0.4500000              1.0000000
****
S     0
S    6   1.00
  21917.1000000              0.0018690
   3301.4900000              0.0142300
    754.1460000              0.0696960
    212.7110000              0.2384870
     67.9896000              0.4833070
     23.0515000              0.3380740
SP   6   1.00
    423.7350000             -0.0023767              0.0040610
    100.7100000             -0.0316930              0.0306810
     32.1599000             -0.1133170              0.1304520
     11.8079000              0.0560900              0.3272050
      4.6311000              0.5922550              0.4528510
      1.8702500              0.4550060              0.2560420
SP   3   1.00
      2.6158400             -0.2503740             -0.0145110
      0.9221670              0.0669570              0.3102630
      0.3412870              1.0545100              0.7544830
SP   1   1.00
      0.1171670              1.0000000              1.0000000
D    1   1.00
      1.3000000              1.0000000
D    1   1.00
      0.3250000              1.0000000
F    1   1.00
      0.5500000              1.0000000
****
Cl     0
S    6   1.00
  25180.1000000              0.0018330
   3780.3500000              0.0140340
    860.4740000              0.0690970
    242.1450000              0.2374520
     77.3349000              0.4830340
     26.2470000              0.3398560
SP   6   1.00
    491.7650000             -0.0022974              0.0039894
    116.9840000             -0.0307140              0.0303180
     37.4153000             -0.1125280              0.1298800
     13.7834000              0.0450160              0.3279510
      5.4521500              0.5893530              0.4535270
      2.2258800              0.4652060              0.2521540
SP   3   1.00
      3.1864900             -0.2518300             -0.0142990
      1.1442700              0.0615890              0.3235720
      0.4203770              1.0601800              0.7435070
SP   1   1.00
      0.1426570              1.0000000              1.0000000
D    1   1.00
      1.5000000              1.0000000
D    1   1.00
      0.3750000              1.0000000
F    1   1.00
      0.7000000              1.0000000
****
}

set {
reference uhf
freeze_core true
e_convergence 10
d_convergence 10
dft_spherical_points 1202
dft_radial_points 99
}

e = energy('b3lyp')

print_out('Grab this energy {0}'.format(e))
--------------------------------------------------------------------------

    Molecular point group: c1

    Geometry (in Bohr), charge = 0, multiplicity = 2:

       Center              X                  Y                   Z               Mass
    ------------   -----------------  -----------------  -----------------  -----------------
         C           -0.258289781154     0.810897218375    -0.000000001992    12.000000000000
         O           -2.192941249054    -0.341107136825     0.000000008408    15.994914619570
         C            2.411270754146    -0.241753771025     0.000000008008    12.000000000000
         H            2.390847383246    -2.305995667725     0.000000027508     1.007825032230
         H            3.388772830546     0.471459884875    -1.665017363392     1.007825032230
         H            3.388773180846     0.471460055775     1.665017130808     1.007825032230

  Charge       = 0
  Multiplicity = 2
  Basis Set: ANONYMOUS1D18443C
    Blend: 6-31G_2DFP_
  Basis Set: (ANONYMOUS1D18443C AUX)
    Blend: DEF2-UNIVERSAL-JKFIT

    Orbital Energies [Eh]
    ---------------------

    Alpha Occupied:

       1A    -19.187104     2A    -10.272641     3A    -10.210620
       4A     -1.078776     5A     -0.762100     6A     -0.544343
       7A     -0.465602     8A     -0.457082     9A     -0.456261
      10A     -0.386639    11A     -0.385127    12A     -0.193845

    Alpha Virtual:

      13A     -0.020289    14A      0.091754    15A      0.136588
      16A      0.141272    17A      0.217016    18A      0.267958
      19A      0.428128    20A      0.431575    21A      0.443463
      22A      0.493510    23A      0.506250    24A      0.529849
      25A      0.563223    26A      0.577356    27A      0.604907
      28A      0.615511    29A      0.643583    30A      0.716882
      31A      0.766199    32A      0.784983    33A      0.832407
      34A      0.918086    35A      0.927920    36A      0.936164
      37A      1.022140    38A      1.085484    39A      1.106809
      40A      1.152816    41A      1.221017    42A      1.305698
      43A      1.317407    44A      1.327152    45A      1.403141
      46A      1.406471    47A      1.466438    48A      1.559466
      49A      1.626863    50A      1.652045    51A      1.719345
      52A      1.813114    53A      1.833185    54A      1.901430
      55A      2.062632    56A      2.162142    57A      2.488825
      58A      2.679885    59A      2.743114    60A      2.783530
      61A      2.841658    62A      2.894805    63A      2.971365
      64A      3.032229    65A      3.057676    66A      3.106471
      67A      3.113322    68A      3.183638    69A      3.314481
      70A      3.366983    71A      3.394222    72A      3.437753
      73A      3.464701    74A      3.485203    75A      3.571860
      76A      3.732468    77A      3.758928    78A      3.942135
      79A      3.982602    80A      4.051234    81A      4.108338
      82A      4.121018    83A      4.187409    84A      4.391007
      85A      4.432307    86A      4.447140    87A      4.532097
      88A      4.919247    89A      5.036905    90A      5.041674
      91A      5.198513    92A      5.207800    93A      5.466519
      94A      5.474752    95A      5.826886    96A      5.922109
      97A      6.096322    98A      6.769884    99A      6.771860
     100A      7.071138   101A      7.134860   102A      7.526004

    Beta Occupied:

       1A    -19.178998     2A    -10.262575     3A    -10.207254
       4A     -1.062725     5A     -0.750331     6A     -0.524514
       7A     -0.451803     8A     -0.446752     9A     -0.437879
      10A     -0.381376    11A     -0.346640

    Beta Virtual:

      12A     -0.054363    13A     -0.003965    14A      0.094439
      15A      0.142279    16A      0.144341    17A      0.227476
      18A      0.273736    19A      0.433530    20A      0.435597
      21A      0.465261    22A      0.500188    23A      0.527475
      24A      0.538796    25A      0.569666    26A      0.581570
      27A      0.622604    28A      0.623916    29A      0.648910
      30A      0.738459    31A      0.777395    32A      0.795088
      33A      0.833165    34A      0.922911    35A      0.944348
      36A      0.951605    37A      1.026311    38A      1.091570
      39A      1.108954    40A      1.159075    41A      1.230177
      42A      1.311298    43A      1.320270    44A      1.333960
      45A      1.411956    46A      1.413518    47A      1.478806
      48A      1.570942    49A      1.639843    50A      1.666460
      51A      1.725586    52A      1.816197    53A      1.847204
      54A      1.908085    55A      2.069365    56A      2.183604
      57A      2.501484    58A      2.694165    59A      2.757480
      60A      2.804670    61A      2.856884    62A      2.896443
      63A      2.980880    64A      3.048750    65A      3.066218
      66A      3.121717    67A      3.124976    68A      3.218262
      69A      3.358414    70A      3.378416    71A      3.400357
      72A      3.445433    73A      3.481124    74A      3.508440
      75A      3.584978    76A      3.758035    77A      3.768522
      78A      3.950856    79A      3.991883    80A      4.067732
      81A      4.123372    82A      4.123836    83A      4.198800
      84A      4.393247    85A      4.438548    86A      4.451307
      87A      4.542922    88A      4.923150    89A      5.054487
      90A      5.059786    91A      5.200716    92A      5.213469
      93A      5.479234    94A      5.488641    95A      5.840149
      96A      5.927702    97A      6.119609    98A      6.799327
      99A      6.801647   100A      7.075464   101A      7.164392
     102A      7.537736

    Final Occupation by Irrep:
              A
    DOCC [    11 ]
    SOCC [     1 ]

  @DF-UKS Final Energy:  -153.18832741210173

   => Energetics <=

    Nuclear Repulsion Energy =             62.6867408907209409
    One-Electron Energy =                -331.3812851140825728
    Two-Electron Energy =                 132.0833426274222973
    DFT Exchange-Correlation Energy =     -16.5771258161623969
    Empirical Dispersion Energy =           0.0000000000000000
    VV10 Nonlocal Energy =                  0.0000000000000000
    Total Energy =                       -153.1883274121017280

  UHF NO Occupations:
  HONO-2 :   10  A 1.9997841
  HONO-1 :   11  A 1.9991923
  HONO-0 :   12  A 1.0000000
  LUNO+0 :   13  A 0.0008077
  LUNO+1 :   14  A 0.0002159
  LUNO+2 :   15  A 0.0001808
  LUNO+3 :   16  A 0.0000623

Computation Completed

Properties will be evaluated at   0.000000,   0.000000,   0.000000 [a0]

Properties computed using the SCF density matrix

  Nuclear Dipole Moment: [e a0]
     X:     4.5427      Y:    -0.6771      Z:    -0.0000

  Electronic Dipole Moment: [e a0]
     X:    -3.6058      Y:     0.6295      Z:     0.0000

  Dipole Moment: [e a0]
     X:     0.9369      Y:    -0.0476      Z:    -0.0000     Total:     0.9381

  Dipole Moment: [D]
     X:     2.3815      Y:    -0.1210      Z:    -0.0000     Total:     2.3845

*** tstop() called on n090 at Thu Nov  4 14:53:47 2021
Module time:
	user time   =      44.18 seconds =       0.74 minutes
	system time =       0.49 seconds =       0.01 minutes
	total time  =         45 seconds =       0.75 minutes
Total time:
	user time   =      44.18 seconds =       0.74 minutes
	system time =       0.49 seconds =       0.01 minutes
	total time  =         45 seconds =       0.75 minutes
Grab this energy -153.18832741210173
    Psi4 stopped on: Thursday, 04 November 2021 02:53PM
    Psi4 wall time for execution: 0:00:44.71

*** Psi4 exiting successfully. Buy a developer a beer!
