                               Psi4 1.4a2.dev629

  ==> Input File <==

--------------------------------------------------------------------------
import os
memory 14 GB

molecule {
 C   -0.2582196366    0.8029275350    0.0000000000
 O   -2.1911350617   -0.3324943916    0.0000000000
 C    2.4115334189   -0.2473850261    0.0000000000
 H    2.3823405149   -2.3037991588    0.0000000000
 H    3.3900593733    0.4675583447   -1.6691166786
 H    3.3900593733    0.4675583447    1.6691166786
units bohr
0 2
}

basis {

assign 6-31g_2dfp_

[ 6-31g_2dfp_ ]

spherical

!----------------------------------------------------------------------
! Basis Set Exchange
! Version v0.8.13
! https://www.basissetexchange.org
!----------------------------------------------------------------------
!   Basis set: 6-31G(2df,p)
! Description: 6-31G(2df,p)
!        Role: orbital
!     Version: 0  (Data from the original Basis Set Exchange)
!----------------------------------------------------------------------

****
H     0
S    3   1.00
     18.7311370              0.03349460
      2.8253937              0.23472695
      0.6401217              0.81375733
S    1   1.00
      0.1612778              1.00000000
P    1   1.00
      1.5000000              1.0000000
P    1   1.00
      0.3750000              1.0000000
****
B     0
S    6   1.00
   2068.8823000              0.0018663
    310.6495700              0.0142515
     70.6830330              0.0695516
     19.8610800              0.2325729
      6.2993048              0.4670787
      2.1270270              0.3634314
SP   3   1.00
      4.7279710             -0.1303938              0.0745976
      1.1903377             -0.1307889              0.3078467
      0.3594117              1.1309444              0.7434568
SP   1   1.00
      0.1267512              1.0000000              1.0000000
D    1   1.00
      0.8020000              1.0000000
D    1   1.00
      0.2005000              1.0000000
F    1   1.00
      0.5000000              1.0000000
****
C     0
S    6   1.00
   3047.5249000              0.0018347
    457.3695100              0.0140373
    103.9486900              0.0688426
     29.2101550              0.2321844
      9.2866630              0.4679413
      3.1639270              0.3623120
SP   3   1.00
      7.8682724             -0.1193324              0.0689991
      1.8812885             -0.1608542              0.3164240
      0.5442493              1.1434564              0.7443083
SP   1   1.00
      0.1687144              1.0000000              1.0000000
D    1   1.00
      1.2520000              1.0000000
D    1   1.00
      0.3130000              1.0000000
F    1   1.00
      0.8000000              1.0000000
****
N     0
S    6   1.00
   4173.5110000              0.0018348
    627.4579000              0.0139950
    142.9021000              0.0685870
     40.2343300              0.2322410
     12.8202100              0.4690700
      4.3904370              0.3604550
SP   3   1.00
     11.6263580             -0.1149610              0.0675800
      2.7162800             -0.1691180              0.3239070
      0.7722180              1.1458520              0.7408950
SP   1   1.00
      0.2120313              1.0000000              1.0000000
D    1   1.00
      1.8260000              1.0000000
D    1   1.00
      0.4565000              1.0000000
F    1   1.00
      1.0000000              1.0000000
****
O     0
S    6   1.00
   5484.6717000              0.0018311
    825.2349500              0.0139501
    188.0469600              0.0684451
     52.9645000              0.2327143
     16.8975700              0.4701930
      5.7996353              0.3585209
SP   3   1.00
     15.5396160             -0.1107775              0.0708743
      3.5999336             -0.1480263              0.3397528
      1.0137618              1.1307670              0.7271586
SP   1   1.00
      0.2700058              1.0000000              1.0000000
D    1   1.00
      2.5840000              1.0000000
D    1   1.00
      0.6460000              1.0000000
F    1   1.00
      1.4000000              1.0000000
****
F     0
S    6   1.00
   7001.7130900              0.0018196169
   1051.3660900              0.0139160796
    239.2856900              0.0684053245
     67.3974453              0.233185760
     21.5199573              0.471267439
      7.40310130             0.356618546
SP   3   1.00
     20.8479528             -0.108506975            0.0716287243
      4.80830834            -0.146451658            0.3459121030
      1.34406986             1.128688580            0.7224699570
SP   1   1.00
      0.358151393            1.0000000              1.0000000
D    1   1.00
      3.5000000              1.0000000
D    1   1.00
      0.8750000              1.0000000
F    1   1.00
      1.8500000              1.0000000
****
Al     0
S    6   1.00
  13983.1000000              0.00194267
   2098.7500000              0.0148599
    477.7050000              0.0728494
    134.3600000              0.2468300
     42.8709000              0.4872580
     14.5189000              0.3234960
SP   6   1.00
    239.6680000             -0.00292619             0.00460285
     57.4419000             -0.0374080              0.0331990
     18.2859000             -0.1144870              0.1362820
      6.5991400              0.1156350              0.3304760
      2.4904900              0.6125950              0.4491460
      0.9445400              0.3937990              0.2657040
SP   3   1.00
      1.2779000             -0.2276060             -0.0175130
      0.3975900              0.00144583             0.2445330
      0.1600950              1.0927900              0.8049340
SP   1   1.00
      0.0556577              1.0000000              1.0000000
D    1   1.00
      0.6500000              1.0000000
D    1   1.00
      0.1625000              1.0000000
F    1   1.00
      0.2500000              1.0000000
****
Si     0
S    6   1.00
  16115.9000000              0.00195948
   2425.5800000              0.01492880
    553.8670000              0.07284780
    156.3400000              0.24613000
     50.0683000              0.48591400
     17.0178000              0.32500200
SP   6   1.00
    292.7180000             -0.00278094             0.00443826
     69.8731000             -0.03571460             0.03266790
     22.3363000             -0.11498500             0.13472100
      8.1503900              0.09356340             0.32867800
      3.1345800              0.60301700             0.44964000
      1.2254300              0.41895900             0.26137200
SP   3   1.00
      1.7273800             -0.24463000            -0.01779510
      0.5729220              0.00431572             0.25353900
      0.2221920              1.09818000             0.80066900
SP   1   1.00
      0.0778369              1.00000000             1.00000000
D    1   1.00
      0.9000000              1.0000000
D    1   1.00
      0.2250000              1.0000000
F    1   1.00
      0.3200000              1.0000000
****
P     0
S    6   1.00
  19413.3000000              0.0018516
   2909.4200000              0.0142062
    661.3640000              0.0699995
    185.7590000              0.2400790
     59.1943000              0.4847620
     20.0310000              0.3352000
SP   6   1.00
    339.4780000             -0.00278217             0.00456462
     81.0101000             -0.0360499              0.03369360
     25.8780000             -0.1166310              0.13975500
      9.4522100              0.0968328              0.33936200
      3.6656600              0.6144180              0.45092100
      1.4674600              0.4037980              0.23858600
SP   3   1.00
      2.1562300             -0.2529230             -0.01776530
      0.7489970              0.0328517              0.27405800
      0.2831450              1.0812500              0.78542100
SP   1   1.00
      0.0998317              1.0000000              1.00000000
D    1   1.00
      1.1000000              1.0000000
D    1   1.00
      0.2750000              1.0000000
F    1   1.00
      0.4500000              1.0000000
****
S     0
S    6   1.00
  21917.1000000              0.0018690
   3301.4900000              0.0142300
    754.1460000              0.0696960
    212.7110000              0.2384870
     67.9896000              0.4833070
     23.0515000              0.3380740
SP   6   1.00
    423.7350000             -0.0023767              0.0040610
    100.7100000             -0.0316930              0.0306810
     32.1599000             -0.1133170              0.1304520
     11.8079000              0.0560900              0.3272050
      4.6311000              0.5922550              0.4528510
      1.8702500              0.4550060              0.2560420
SP   3   1.00
      2.6158400             -0.2503740             -0.0145110
      0.9221670              0.0669570              0.3102630
      0.3412870              1.0545100              0.7544830
SP   1   1.00
      0.1171670              1.0000000              1.0000000
D    1   1.00
      1.3000000              1.0000000
D    1   1.00
      0.3250000              1.0000000
F    1   1.00
      0.5500000              1.0000000
****
Cl     0
S    6   1.00
  25180.1000000              0.0018330
   3780.3500000              0.0140340
    860.4740000              0.0690970
    242.1450000              0.2374520
     77.3349000              0.4830340
     26.2470000              0.3398560
SP   6   1.00
    491.7650000             -0.0022974              0.0039894
    116.9840000             -0.0307140              0.0303180
     37.4153000             -0.1125280              0.1298800
     13.7834000              0.0450160              0.3279510
      5.4521500              0.5893530              0.4535270
      2.2258800              0.4652060              0.2521540
SP   3   1.00
      3.1864900             -0.2518300             -0.0142990
      1.1442700              0.0615890              0.3235720
      0.4203770              1.0601800              0.7435070
SP   1   1.00
      0.1426570              1.0000000              1.0000000
D    1   1.00
      1.5000000              1.0000000
D    1   1.00
      0.3750000              1.0000000
F    1   1.00
      0.7000000              1.0000000
****
}

set {
reference uhf
freeze_core true
e_convergence 10
d_convergence 10
dft_spherical_points 1202
dft_radial_points 99
}

e = energy('b3lyp')

print_out('Grab this energy {0}'.format(e))
--------------------------------------------------------------------------

    Molecular point group: cs

    Geometry (in Bohr), charge = 0, multiplicity = 2:

       Center              X                  Y                   Z               Mass
    ------------   -----------------  -----------------  -----------------  -----------------
         C           -0.258845019290     0.803650522364     0.000000000000    12.000000000000
         O           -2.191760444390    -0.331771404236     0.000000000000    15.994914619570
         C            2.410908036210    -0.246662038736     0.000000000000    12.000000000000
         H            2.381715132210    -2.303076171436     0.000000000000     1.007825032230
         H            3.389433990610     0.468281332064    -1.669116678600     1.007825032230
         H            3.389433990610     0.468281332064     1.669116678600     1.007825032230

  Charge       = 0
  Multiplicity = 2
  Basis Set: ANONYMOUSC0D90C00
    Blend: 6-31G_2DFP_
  Basis Set: (ANONYMOUSC0D90C00 AUX)
    Blend: DEF2-UNIVERSAL-JKFIT

    Orbital Energies [Eh]
    ---------------------

    Alpha Occupied:

       1Ap   -19.186832     2Ap   -10.271444     3Ap   -10.210375
       4Ap    -1.081426     5Ap    -0.761927     6Ap    -0.543757
       7Ap    -0.466502     8Ap    -0.457585     1App   -0.456330
       2App   -0.387601     9Ap    -0.386170    10Ap    -0.191829

    Alpha Virtual:

       3App   -0.018700    11Ap     0.091523    12Ap     0.137620
       4App    0.140872    13Ap     0.217537    14Ap     0.268246
      15Ap     0.427832     5App    0.431995    16Ap     0.443560
       6App    0.493354    17Ap     0.506487    18Ap     0.530498
       7App    0.562967    19Ap     0.577843    20Ap     0.608776
       8App    0.615414    21Ap     0.644345    22Ap     0.717807
       9App    0.766209    23Ap     0.785426    10App    0.831895
      11App    0.917212    24Ap     0.926913    25Ap     0.936132
      12App    1.023237    26Ap     1.086319    27Ap     1.105837
      13App    1.153379    28Ap     1.222763    29Ap     1.306023
      14App    1.316536    30Ap     1.327344    31Ap     1.403471
      15App    1.408090    32Ap     1.468750    33Ap     1.559929
      34Ap     1.630983    16App    1.653956    35Ap     1.720990
      17App    1.811968    36Ap     1.835226    37Ap     1.900920
      18App    2.065472    38Ap     2.167254    39Ap     2.495976
      19App    2.680218    40Ap     2.744013    41Ap     2.785132
      20App    2.840219    21App    2.894866    42Ap     2.974357
      43Ap     3.031629    22App    3.058499    23App    3.104825
      44Ap     3.114592    45Ap     3.181130    24App    3.314426
      46Ap     3.368926    25App    3.393650    26App    3.441429
      27App    3.465354    47Ap     3.484988    48Ap     3.572482
      49Ap     3.740045    50Ap     3.762435    51Ap     3.942029
      28App    3.982486    52Ap     4.055188    53Ap     4.109620
      29App    4.119432    54Ap     4.188613    30App    4.389555
      55Ap     4.435439    31App    4.448841    56Ap     4.532429
      57Ap     4.920795    58Ap     5.037164    32App    5.042261
      33App    5.193501    59Ap     5.212331    60Ap     5.474282
      34App    5.482306    61Ap     5.826671    35App    5.931039
      62Ap     6.104810    63Ap     6.770737    36App    6.772921
      37App    7.071086    64Ap     7.135144    65Ap     7.530231

    Beta Occupied:

       1Ap   -19.178773     2Ap   -10.261382     3Ap   -10.206992
       4Ap    -1.065516     5Ap    -0.750119     6Ap    -0.523992
       1App   -0.451787     7Ap    -0.447293     8Ap    -0.438683
       2App   -0.382433     9Ap    -0.347978

    Beta Virtual:

      10Ap    -0.052325     3App   -0.002428    11Ap     0.094175
      12Ap     0.143310     4App    0.143989    13Ap     0.227992
      14Ap     0.273930     5App    0.433974    15Ap     0.435013
      16Ap     0.465550     6App    0.500034    17Ap     0.527868
      18Ap     0.539426     7App    0.569303    19Ap     0.582068
       8App    0.622665    20Ap     0.627380    21Ap     0.650107
      22Ap     0.739802     9App    0.777350    23Ap     0.795407
      10App    0.832665    11App    0.922058    24Ap     0.943634
      25Ap     0.951060    12App    1.027433    26Ap     1.092426
      27Ap     1.107968    13App    1.159586    28Ap     1.232050
      29Ap     1.311510    14App    1.319300    30Ap     1.334140
      15App    1.413647    31Ap     1.413780    32Ap     1.481067
      33Ap     1.571051    34Ap     1.644375    16App    1.668325
      35Ap     1.727222    17App    1.815120    36Ap     1.849311
      37Ap     1.907605    18App    2.072183    38Ap     2.188659
      39Ap     2.508659    19App    2.694500    40Ap     2.758562
      41Ap     2.806221    20App    2.855497    21App    2.896499
      42Ap     2.983776    43Ap     3.048380    22App    3.067255
      44Ap     3.123049    23App    3.123504    45Ap     3.215850
      24App    3.358081    46Ap     3.380386    25App    3.399895
      26App    3.449477    27App    3.481274    47Ap     3.508180
      48Ap     3.585735    49Ap     3.765734    50Ap     3.771839
      51Ap     3.950743    28App    3.991770    52Ap     4.071501
      29App    4.122186    53Ap     4.123444    54Ap     4.201111
      30App    4.391912    55Ap     4.441647    31App    4.452933
      56Ap     4.543315    57Ap     4.924661    58Ap     5.054683
      32App    5.060246    33App    5.195618    59Ap     5.218031
      60Ap     5.486914    34App    5.496227    61Ap     5.839911
      35App    5.936627    62Ap     6.127988    63Ap     6.799988
      36App    6.802511    37App    7.075382    64Ap     7.164491
      65Ap     7.541886

    Final Occupation by Irrep:
             Ap   App
    DOCC [     9,    2 ]
    SOCC [     1,    0 ]

  @DF-UKS Final Energy:  -153.18841721538780

   => Energetics <=

    Nuclear Repulsion Energy =             62.7917577953956041
    One-Electron Energy =                -331.5832482760491757
    Two-Electron Energy =                 132.1838848550072214
    DFT Exchange-Correlation Energy =     -16.5808115897414439
    Empirical Dispersion Energy =           0.0000000000000000
    VV10 Nonlocal Energy =                  0.0000000000000000
    Total Energy =                       -153.1884172153878012

  UHF NO Occupations:
  HONO-2 :    8 Ap 1.9997846
  HONO-1 :    9 Ap 1.9992035
  HONO-0 :   10 Ap 1.0000000
  LUNO+0 :   11 Ap 0.0007965
  LUNO+1 :   12 Ap 0.0002154
  LUNO+2 :    3App 0.0001802
  LUNO+3 :   13 Ap 0.0000615

Computation Completed

Properties will be evaluated at   0.000000,   0.000000,   0.000000 [a0]

Properties computed using the SCF density matrix

  Nuclear Dipole Moment: [e a0]
     X:     4.5389      Y:    -0.6788      Z:     0.0000

  Electronic Dipole Moment: [e a0]
     X:    -3.6083      Y:     0.6269      Z:     0.0000

  Dipole Moment: [e a0]
     X:     0.9306      Y:    -0.0518      Z:     0.0000     Total:     0.9321

  Dipole Moment: [D]
     X:     2.3654      Y:    -0.1317      Z:     0.0000     Total:     2.3690

*** tstop() called on n078 at Tue Mar 15 10:26:02 2022
Module time:
	user time   =      44.16 seconds =       0.74 minutes
	system time =       0.50 seconds =       0.01 minutes
	total time  =         45 seconds =       0.75 minutes
Total time:
	user time   =      44.16 seconds =       0.74 minutes
	system time =       0.50 seconds =       0.01 minutes
	total time  =         45 seconds =       0.75 minutes
Grab this energy -153.1884172153878
    Psi4 stopped on: Tuesday, 15 March 2022 10:26AM
    Psi4 wall time for execution: 0:00:44.71

*** Psi4 exiting successfully. Buy a developer a beer!
