                               Psi4 1.4a2.dev629

  ==> Input File <==

--------------------------------------------------------------------------
import os
memory 14 GB

molecule {
 C   -0.2622265043    0.8060010202   -0.0000000000
 O   -2.1962236622   -0.3368778078    0.0000000000
 C    2.4138111306   -0.2454730794   -0.0000000000
 H    2.3774983313   -2.3069535009    0.0000000000
 H    3.3958893435    0.4688345078   -1.6647096027
 H    3.3958893435    0.4688345078    1.6647096027
units bohr
0 2
}

basis {

assign 6-31g_2dfp_

[ 6-31g_2dfp_ ]

spherical

!----------------------------------------------------------------------
! Basis Set Exchange
! Version v0.8.13
! https://www.basissetexchange.org
!----------------------------------------------------------------------
!   Basis set: 6-31G(2df,p)
! Description: 6-31G(2df,p)
!        Role: orbital
!     Version: 0  (Data from the original Basis Set Exchange)
!----------------------------------------------------------------------

****
H     0
S    3   1.00
     18.7311370              0.03349460
      2.8253937              0.23472695
      0.6401217              0.81375733
S    1   1.00
      0.1612778              1.00000000
P    1   1.00
      1.5000000              1.0000000
P    1   1.00
      0.3750000              1.0000000
****
B     0
S    6   1.00
   2068.8823000              0.0018663
    310.6495700              0.0142515
     70.6830330              0.0695516
     19.8610800              0.2325729
      6.2993048              0.4670787
      2.1270270              0.3634314
SP   3   1.00
      4.7279710             -0.1303938              0.0745976
      1.1903377             -0.1307889              0.3078467
      0.3594117              1.1309444              0.7434568
SP   1   1.00
      0.1267512              1.0000000              1.0000000
D    1   1.00
      0.8020000              1.0000000
D    1   1.00
      0.2005000              1.0000000
F    1   1.00
      0.5000000              1.0000000
****
C     0
S    6   1.00
   3047.5249000              0.0018347
    457.3695100              0.0140373
    103.9486900              0.0688426
     29.2101550              0.2321844
      9.2866630              0.4679413
      3.1639270              0.3623120
SP   3   1.00
      7.8682724             -0.1193324              0.0689991
      1.8812885             -0.1608542              0.3164240
      0.5442493              1.1434564              0.7443083
SP   1   1.00
      0.1687144              1.0000000              1.0000000
D    1   1.00
      1.2520000              1.0000000
D    1   1.00
      0.3130000              1.0000000
F    1   1.00
      0.8000000              1.0000000
****
N     0
S    6   1.00
   4173.5110000              0.0018348
    627.4579000              0.0139950
    142.9021000              0.0685870
     40.2343300              0.2322410
     12.8202100              0.4690700
      4.3904370              0.3604550
SP   3   1.00
     11.6263580             -0.1149610              0.0675800
      2.7162800             -0.1691180              0.3239070
      0.7722180              1.1458520              0.7408950
SP   1   1.00
      0.2120313              1.0000000              1.0000000
D    1   1.00
      1.8260000              1.0000000
D    1   1.00
      0.4565000              1.0000000
F    1   1.00
      1.0000000              1.0000000
****
O     0
S    6   1.00
   5484.6717000              0.0018311
    825.2349500              0.0139501
    188.0469600              0.0684451
     52.9645000              0.2327143
     16.8975700              0.4701930
      5.7996353              0.3585209
SP   3   1.00
     15.5396160             -0.1107775              0.0708743
      3.5999336             -0.1480263              0.3397528
      1.0137618              1.1307670              0.7271586
SP   1   1.00
      0.2700058              1.0000000              1.0000000
D    1   1.00
      2.5840000              1.0000000
D    1   1.00
      0.6460000              1.0000000
F    1   1.00
      1.4000000              1.0000000
****
F     0
S    6   1.00
   7001.7130900              0.0018196169
   1051.3660900              0.0139160796
    239.2856900              0.0684053245
     67.3974453              0.233185760
     21.5199573              0.471267439
      7.40310130             0.356618546
SP   3   1.00
     20.8479528             -0.108506975            0.0716287243
      4.80830834            -0.146451658            0.3459121030
      1.34406986             1.128688580            0.7224699570
SP   1   1.00
      0.358151393            1.0000000              1.0000000
D    1   1.00
      3.5000000              1.0000000
D    1   1.00
      0.8750000              1.0000000
F    1   1.00
      1.8500000              1.0000000
****
Al     0
S    6   1.00
  13983.1000000              0.00194267
   2098.7500000              0.0148599
    477.7050000              0.0728494
    134.3600000              0.2468300
     42.8709000              0.4872580
     14.5189000              0.3234960
SP   6   1.00
    239.6680000             -0.00292619             0.00460285
     57.4419000             -0.0374080              0.0331990
     18.2859000             -0.1144870              0.1362820
      6.5991400              0.1156350              0.3304760
      2.4904900              0.6125950              0.4491460
      0.9445400              0.3937990              0.2657040
SP   3   1.00
      1.2779000             -0.2276060             -0.0175130
      0.3975900              0.00144583             0.2445330
      0.1600950              1.0927900              0.8049340
SP   1   1.00
      0.0556577              1.0000000              1.0000000
D    1   1.00
      0.6500000              1.0000000
D    1   1.00
      0.1625000              1.0000000
F    1   1.00
      0.2500000              1.0000000
****
Si     0
S    6   1.00
  16115.9000000              0.00195948
   2425.5800000              0.01492880
    553.8670000              0.07284780
    156.3400000              0.24613000
     50.0683000              0.48591400
     17.0178000              0.32500200
SP   6   1.00
    292.7180000             -0.00278094             0.00443826
     69.8731000             -0.03571460             0.03266790
     22.3363000             -0.11498500             0.13472100
      8.1503900              0.09356340             0.32867800
      3.1345800              0.60301700             0.44964000
      1.2254300              0.41895900             0.26137200
SP   3   1.00
      1.7273800             -0.24463000            -0.01779510
      0.5729220              0.00431572             0.25353900
      0.2221920              1.09818000             0.80066900
SP   1   1.00
      0.0778369              1.00000000             1.00000000
D    1   1.00
      0.9000000              1.0000000
D    1   1.00
      0.2250000              1.0000000
F    1   1.00
      0.3200000              1.0000000
****
P     0
S    6   1.00
  19413.3000000              0.0018516
   2909.4200000              0.0142062
    661.3640000              0.0699995
    185.7590000              0.2400790
     59.1943000              0.4847620
     20.0310000              0.3352000
SP   6   1.00
    339.4780000             -0.00278217             0.00456462
     81.0101000             -0.0360499              0.03369360
     25.8780000             -0.1166310              0.13975500
      9.4522100              0.0968328              0.33936200
      3.6656600              0.6144180              0.45092100
      1.4674600              0.4037980              0.23858600
SP   3   1.00
      2.1562300             -0.2529230             -0.01776530
      0.7489970              0.0328517              0.27405800
      0.2831450              1.0812500              0.78542100
SP   1   1.00
      0.0998317              1.0000000              1.00000000
D    1   1.00
      1.1000000              1.0000000
D    1   1.00
      0.2750000              1.0000000
F    1   1.00
      0.4500000              1.0000000
****
S     0
S    6   1.00
  21917.1000000              0.0018690
   3301.4900000              0.0142300
    754.1460000              0.0696960
    212.7110000              0.2384870
     67.9896000              0.4833070
     23.0515000              0.3380740
SP   6   1.00
    423.7350000             -0.0023767              0.0040610
    100.7100000             -0.0316930              0.0306810
     32.1599000             -0.1133170              0.1304520
     11.8079000              0.0560900              0.3272050
      4.6311000              0.5922550              0.4528510
      1.8702500              0.4550060              0.2560420
SP   3   1.00
      2.6158400             -0.2503740             -0.0145110
      0.9221670              0.0669570              0.3102630
      0.3412870              1.0545100              0.7544830
SP   1   1.00
      0.1171670              1.0000000              1.0000000
D    1   1.00
      1.3000000              1.0000000
D    1   1.00
      0.3250000              1.0000000
F    1   1.00
      0.5500000              1.0000000
****
Cl     0
S    6   1.00
  25180.1000000              0.0018330
   3780.3500000              0.0140340
    860.4740000              0.0690970
    242.1450000              0.2374520
     77.3349000              0.4830340
     26.2470000              0.3398560
SP   6   1.00
    491.7650000             -0.0022974              0.0039894
    116.9840000             -0.0307140              0.0303180
     37.4153000             -0.1125280              0.1298800
     13.7834000              0.0450160              0.3279510
      5.4521500              0.5893530              0.4535270
      2.2258800              0.4652060              0.2521540
SP   3   1.00
      3.1864900             -0.2518300             -0.0142990
      1.1442700              0.0615890              0.3235720
      0.4203770              1.0601800              0.7435070
SP   1   1.00
      0.1426570              1.0000000              1.0000000
D    1   1.00
      1.5000000              1.0000000
D    1   1.00
      0.3750000              1.0000000
F    1   1.00
      0.7000000              1.0000000
****
}

set {
reference uhf
freeze_core true
e_convergence 10
d_convergence 10
dft_spherical_points 1202
dft_radial_points 99
}

e = energy('b3lyp')

print_out('Grab this energy {0}'.format(e))
--------------------------------------------------------------------------

    Molecular point group: cs

    Geometry (in Bohr), charge = 0, multiplicity = 2:

       Center              X                  Y                   Z               Mass
    ------------   -----------------  -----------------  -----------------  -----------------
         C           -0.260637241180     0.806977246047     0.000000000000    12.000000000000
         O           -2.194634399080    -0.335901581953     0.000000000000    15.994914619570
         C            2.415400393720    -0.244496853553     0.000000000000    12.000000000000
         H            2.379087594420    -2.305977275053     0.000000000000     1.007825032230
         H            3.397478606620     0.469810733647    -1.664709602700     1.007825032230
         H            3.397478606620     0.469810733647     1.664709602700     1.007825032230

  Charge       = 0
  Multiplicity = 2
  Basis Set: ANONYMOUSAD003E02
    Blend: 6-31G_2DFP_
  Basis Set: (ANONYMOUSAD003E02 AUX)
    Blend: DEF2-UNIVERSAL-JKFIT

    Orbital Energies [Eh]
    ---------------------

    Alpha Occupied:

       1Ap   -19.187086     2Ap   -10.272246     3Ap   -10.210780
       4Ap    -1.080196     5Ap    -0.761428     6Ap    -0.543940
       7Ap    -0.466275     8Ap    -0.456869     1App   -0.455735
       2App   -0.387235     9Ap    -0.386169    10Ap    -0.192601

    Alpha Virtual:

       3App   -0.019594    11Ap     0.091643    12Ap     0.137007
       4App    0.141073    13Ap     0.216321    14Ap     0.267781
      15Ap     0.427698     5App    0.431976    16Ap     0.443045
       6App    0.493394    17Ap     0.506435    18Ap     0.530396
       7App    0.562967    19Ap     0.577375    20Ap     0.606640
       8App    0.615505    21Ap     0.643432    22Ap     0.717373
       9App    0.766087    23Ap     0.784860    10App    0.831965
      11App    0.917338    24Ap     0.927529    25Ap     0.935829
      12App    1.021483    26Ap     1.082884    27Ap     1.107104
      13App    1.153856    28Ap     1.219974    29Ap     1.305094
      14App    1.315455    30Ap     1.326808    31Ap     1.404362
      15App    1.407130    32Ap     1.467283    33Ap     1.559703
      34Ap     1.628874    16App    1.652873    35Ap     1.720520
      17App    1.811984    36Ap     1.832775    37Ap     1.899322
      18App    2.064051    38Ap     2.164686    39Ap     2.492275
      19App    2.679297    40Ap     2.742550    41Ap     2.783841
      20App    2.841430    21App    2.894568    42Ap     2.971735
      43Ap     3.031256    22App    3.057465    23App    3.106452
      44Ap     3.112675    45Ap     3.183027    24App    3.314201
      46Ap     3.368879    25App    3.392424    26App    3.439248
      27App    3.465224    47Ap     3.485141    48Ap     3.571556
      49Ap     3.735536    50Ap     3.756703    51Ap     3.940568
      28App    3.977973    52Ap     4.050695    53Ap     4.108744
      29App    4.117718    54Ap     4.188174    30App    4.388683
      55Ap     4.431222    31App    4.448208    56Ap     4.526976
      57Ap     4.920151    58Ap     5.036677    32App    5.041864
      33App    5.196639    59Ap     5.205979    60Ap     5.469808
      34App    5.477914    61Ap     5.826669    35App    5.926194
      62Ap     6.099584    63Ap     6.770152    36App    6.772302
      37App    7.070588    64Ap     7.134699    65Ap     7.527993

    Beta Occupied:

       1Ap   -19.179032     2Ap   -10.262180     3Ap   -10.207385
       4Ap    -1.064265     5Ap    -0.749640     6Ap    -0.524153
       1App   -0.451223     7Ap    -0.446808     8Ap    -0.438389
       2App   -0.382048     9Ap    -0.347745

    Beta Virtual:

      10Ap    -0.053182     3App   -0.003313    11Ap     0.094351
      12Ap     0.142616     4App    0.144183    13Ap     0.226948
      14Ap     0.273518     5App    0.433967    15Ap     0.435058
      16Ap     0.464786     6App    0.500058    17Ap     0.527843
      18Ap     0.539411     7App    0.569369    19Ap     0.581559
       8App    0.622701    20Ap     0.625465    21Ap     0.648926
      22Ap     0.739191     9App    0.777293    23Ap     0.794898
      10App    0.832729    11App    0.922168    24Ap     0.943726
      25Ap     0.951299    12App    1.025636    26Ap     1.089053
      27Ap     1.109206    13App    1.160056    28Ap     1.229289
      29Ap     1.310589    14App    1.318230    30Ap     1.333621
      15App    1.412650    31Ap     1.414725    32Ap     1.479509
      33Ap     1.570980    34Ap     1.642115    16App    1.667213
      35Ap     1.726713    17App    1.815161    36Ap     1.846858
      37Ap     1.905894    18App    2.070749    38Ap     2.186057
      39Ap     2.504938    19App    2.693536    40Ap     2.757020
      41Ap     2.804988    20App    2.856953    21App    2.896173
      42Ap     2.981064    43Ap     3.048047    22App    3.066044
      44Ap     3.121243    23App    3.125024    45Ap     3.217858
      24App    3.357890    46Ap     3.380639    25App    3.398820
      26App    3.447534    27App    3.480936    47Ap     3.507795
      48Ap     3.584874    49Ap     3.760792    50Ap     3.766641
      51Ap     3.949285    28App    3.987264    52Ap     4.067116
      29App    4.120516    53Ap     4.123300    54Ap     4.200062
      30App    4.391013    55Ap     4.437403    31App    4.452283
      56Ap     4.537765    57Ap     4.924019    58Ap     5.054158
      32App    5.059834    33App    5.198789    59Ap     5.211649
      60Ap     5.482475    34App    5.491783    61Ap     5.839883
      35App    5.931771    62Ap     6.122756    63Ap     6.799385
      36App    6.801871    37App    7.074879    64Ap     7.164034
      65Ap     7.539653

    Final Occupation by Irrep:
             Ap   App
    DOCC [     9,    2 ]
    SOCC [     1,    0 ]

  @DF-UKS Final Energy:  -153.18837813591631

   => Energetics <=

    Nuclear Repulsion Energy =             62.6897017679496926
    One-Electron Energy =                -331.3844044802367534
    Two-Electron Energy =                 132.0841283775611714
    DFT Exchange-Correlation Energy =     -16.5778038011904449
    Empirical Dispersion Energy =           0.0000000000000000
    VV10 Nonlocal Energy =                  0.0000000000000000
    Total Energy =                       -153.1883781359163095

  UHF NO Occupations:
  HONO-2 :    8 Ap 1.9997815
  HONO-1 :    9 Ap 1.9992014
  HONO-0 :   10 Ap 1.0000000
  LUNO+0 :   11 Ap 0.0007986
  LUNO+1 :   12 Ap 0.0002185
  LUNO+2 :    3App 0.0001816
  LUNO+3 :   13 Ap 0.0000616

Computation Completed

Properties will be evaluated at   0.000000,   0.000000,   0.000000 [a0]

Properties computed using the SCF density matrix

  Nuclear Dipole Moment: [e a0]
     X:     4.5455      Y:    -0.6787      Z:     0.0000

  Electronic Dipole Moment: [e a0]
     X:    -3.6117      Y:     0.6291      Z:     0.0000

  Dipole Moment: [e a0]
     X:     0.9338      Y:    -0.0496      Z:     0.0000     Total:     0.9351

  Dipole Moment: [D]
     X:     2.3736      Y:    -0.1261      Z:     0.0000     Total:     2.3769

*** tstop() called on n046 at Tue Mar 15 10:27:25 2022
Module time:
	user time   =      51.03 seconds =       0.85 minutes
	system time =       0.53 seconds =       0.01 minutes
	total time  =         52 seconds =       0.87 minutes
Total time:
	user time   =      51.03 seconds =       0.85 minutes
	system time =       0.53 seconds =       0.01 minutes
	total time  =         52 seconds =       0.87 minutes
Grab this energy -153.1883781359163
    Psi4 stopped on: Tuesday, 15 March 2022 10:27AM
    Psi4 wall time for execution: 0:00:51.61

*** Psi4 exiting successfully. Buy a developer a beer!
