                               Psi4 1.4a2.dev629

  ==> Input File <==

--------------------------------------------------------------------------
import os
memory 14 GB

molecule {
 C   -0.2626353558    0.8012917709    0.0000000000
 O   -2.1891172538   -0.3308664143    0.0000000000
 C    2.4103456195   -0.2466820598    0.0000000000
 H    2.3834918482   -2.3021700518    0.0000000000
 H    3.3912765620    0.4663962014   -1.6595234972
 H    3.3912765620    0.4663962014    1.6595234972
units bohr
0 2
}

basis {

assign 6-31g_2dfp_

[ 6-31g_2dfp_ ]

spherical

!----------------------------------------------------------------------
! Basis Set Exchange
! Version v0.8.13
! https://www.basissetexchange.org
!----------------------------------------------------------------------
!   Basis set: 6-31G(2df,p)
! Description: 6-31G(2df,p)
!        Role: orbital
!     Version: 0  (Data from the original Basis Set Exchange)
!----------------------------------------------------------------------

****
H     0
S    3   1.00
     18.7311370              0.03349460
      2.8253937              0.23472695
      0.6401217              0.81375733
S    1   1.00
      0.1612778              1.00000000
P    1   1.00
      1.5000000              1.0000000
P    1   1.00
      0.3750000              1.0000000
****
B     0
S    6   1.00
   2068.8823000              0.0018663
    310.6495700              0.0142515
     70.6830330              0.0695516
     19.8610800              0.2325729
      6.2993048              0.4670787
      2.1270270              0.3634314
SP   3   1.00
      4.7279710             -0.1303938              0.0745976
      1.1903377             -0.1307889              0.3078467
      0.3594117              1.1309444              0.7434568
SP   1   1.00
      0.1267512              1.0000000              1.0000000
D    1   1.00
      0.8020000              1.0000000
D    1   1.00
      0.2005000              1.0000000
F    1   1.00
      0.5000000              1.0000000
****
C     0
S    6   1.00
   3047.5249000              0.0018347
    457.3695100              0.0140373
    103.9486900              0.0688426
     29.2101550              0.2321844
      9.2866630              0.4679413
      3.1639270              0.3623120
SP   3   1.00
      7.8682724             -0.1193324              0.0689991
      1.8812885             -0.1608542              0.3164240
      0.5442493              1.1434564              0.7443083
SP   1   1.00
      0.1687144              1.0000000              1.0000000
D    1   1.00
      1.2520000              1.0000000
D    1   1.00
      0.3130000              1.0000000
F    1   1.00
      0.8000000              1.0000000
****
N     0
S    6   1.00
   4173.5110000              0.0018348
    627.4579000              0.0139950
    142.9021000              0.0685870
     40.2343300              0.2322410
     12.8202100              0.4690700
      4.3904370              0.3604550
SP   3   1.00
     11.6263580             -0.1149610              0.0675800
      2.7162800             -0.1691180              0.3239070
      0.7722180              1.1458520              0.7408950
SP   1   1.00
      0.2120313              1.0000000              1.0000000
D    1   1.00
      1.8260000              1.0000000
D    1   1.00
      0.4565000              1.0000000
F    1   1.00
      1.0000000              1.0000000
****
O     0
S    6   1.00
   5484.6717000              0.0018311
    825.2349500              0.0139501
    188.0469600              0.0684451
     52.9645000              0.2327143
     16.8975700              0.4701930
      5.7996353              0.3585209
SP   3   1.00
     15.5396160             -0.1107775              0.0708743
      3.5999336             -0.1480263              0.3397528
      1.0137618              1.1307670              0.7271586
SP   1   1.00
      0.2700058              1.0000000              1.0000000
D    1   1.00
      2.5840000              1.0000000
D    1   1.00
      0.6460000              1.0000000
F    1   1.00
      1.4000000              1.0000000
****
F     0
S    6   1.00
   7001.7130900              0.0018196169
   1051.3660900              0.0139160796
    239.2856900              0.0684053245
     67.3974453              0.233185760
     21.5199573              0.471267439
      7.40310130             0.356618546
SP   3   1.00
     20.8479528             -0.108506975            0.0716287243
      4.80830834            -0.146451658            0.3459121030
      1.34406986             1.128688580            0.7224699570
SP   1   1.00
      0.358151393            1.0000000              1.0000000
D    1   1.00
      3.5000000              1.0000000
D    1   1.00
      0.8750000              1.0000000
F    1   1.00
      1.8500000              1.0000000
****
Al     0
S    6   1.00
  13983.1000000              0.00194267
   2098.7500000              0.0148599
    477.7050000              0.0728494
    134.3600000              0.2468300
     42.8709000              0.4872580
     14.5189000              0.3234960
SP   6   1.00
    239.6680000             -0.00292619             0.00460285
     57.4419000             -0.0374080              0.0331990
     18.2859000             -0.1144870              0.1362820
      6.5991400              0.1156350              0.3304760
      2.4904900              0.6125950              0.4491460
      0.9445400              0.3937990              0.2657040
SP   3   1.00
      1.2779000             -0.2276060             -0.0175130
      0.3975900              0.00144583             0.2445330
      0.1600950              1.0927900              0.8049340
SP   1   1.00
      0.0556577              1.0000000              1.0000000
D    1   1.00
      0.6500000              1.0000000
D    1   1.00
      0.1625000              1.0000000
F    1   1.00
      0.2500000              1.0000000
****
Si     0
S    6   1.00
  16115.9000000              0.00195948
   2425.5800000              0.01492880
    553.8670000              0.07284780
    156.3400000              0.24613000
     50.0683000              0.48591400
     17.0178000              0.32500200
SP   6   1.00
    292.7180000             -0.00278094             0.00443826
     69.8731000             -0.03571460             0.03266790
     22.3363000             -0.11498500             0.13472100
      8.1503900              0.09356340             0.32867800
      3.1345800              0.60301700             0.44964000
      1.2254300              0.41895900             0.26137200
SP   3   1.00
      1.7273800             -0.24463000            -0.01779510
      0.5729220              0.00431572             0.25353900
      0.2221920              1.09818000             0.80066900
SP   1   1.00
      0.0778369              1.00000000             1.00000000
D    1   1.00
      0.9000000              1.0000000
D    1   1.00
      0.2250000              1.0000000
F    1   1.00
      0.3200000              1.0000000
****
P     0
S    6   1.00
  19413.3000000              0.0018516
   2909.4200000              0.0142062
    661.3640000              0.0699995
    185.7590000              0.2400790
     59.1943000              0.4847620
     20.0310000              0.3352000
SP   6   1.00
    339.4780000             -0.00278217             0.00456462
     81.0101000             -0.0360499              0.03369360
     25.8780000             -0.1166310              0.13975500
      9.4522100              0.0968328              0.33936200
      3.6656600              0.6144180              0.45092100
      1.4674600              0.4037980              0.23858600
SP   3   1.00
      2.1562300             -0.2529230             -0.01776530
      0.7489970              0.0328517              0.27405800
      0.2831450              1.0812500              0.78542100
SP   1   1.00
      0.0998317              1.0000000              1.00000000
D    1   1.00
      1.1000000              1.0000000
D    1   1.00
      0.2750000              1.0000000
F    1   1.00
      0.4500000              1.0000000
****
S     0
S    6   1.00
  21917.1000000              0.0018690
   3301.4900000              0.0142300
    754.1460000              0.0696960
    212.7110000              0.2384870
     67.9896000              0.4833070
     23.0515000              0.3380740
SP   6   1.00
    423.7350000             -0.0023767              0.0040610
    100.7100000             -0.0316930              0.0306810
     32.1599000             -0.1133170              0.1304520
     11.8079000              0.0560900              0.3272050
      4.6311000              0.5922550              0.4528510
      1.8702500              0.4550060              0.2560420
SP   3   1.00
      2.6158400             -0.2503740             -0.0145110
      0.9221670              0.0669570              0.3102630
      0.3412870              1.0545100              0.7544830
SP   1   1.00
      0.1171670              1.0000000              1.0000000
D    1   1.00
      1.3000000              1.0000000
D    1   1.00
      0.3250000              1.0000000
F    1   1.00
      0.5500000              1.0000000
****
Cl     0
S    6   1.00
  25180.1000000              0.0018330
   3780.3500000              0.0140340
    860.4740000              0.0690970
    242.1450000              0.2374520
     77.3349000              0.4830340
     26.2470000              0.3398560
SP   6   1.00
    491.7650000             -0.0022974              0.0039894
    116.9840000             -0.0307140              0.0303180
     37.4153000             -0.1125280              0.1298800
     13.7834000              0.0450160              0.3279510
      5.4521500              0.5893530              0.4535270
      2.2258800              0.4652060              0.2521540
SP   3   1.00
      3.1864900             -0.2518300             -0.0142990
      1.1442700              0.0615890              0.3235720
      0.4203770              1.0601800              0.7435070
SP   1   1.00
      0.1426570              1.0000000              1.0000000
D    1   1.00
      1.5000000              1.0000000
D    1   1.00
      0.3750000              1.0000000
F    1   1.00
      0.7000000              1.0000000
****
}

set {
reference uhf
freeze_core true
e_convergence 10
d_convergence 10
dft_spherical_points 1202
dft_radial_points 99
}

e = energy('b3lyp')

print_out('Grab this energy {0}'.format(e))
--------------------------------------------------------------------------

    Molecular point group: cs

    Geometry (in Bohr), charge = 0, multiplicity = 2:

       Center              X                  Y                   Z               Mass
    ------------   -----------------  -----------------  -----------------  -----------------
         C           -0.262531892308     0.801685941564     0.000000000000    12.000000000000
         O           -2.189013790308    -0.330472243636     0.000000000000    15.994914619570
         C            2.410449082992    -0.246287889136     0.000000000000    12.000000000000
         H            2.383595311692    -2.301775881136     0.000000000000     1.007825032230
         H            3.391380025492     0.466790372064    -1.659523497200     1.007825032230
         H            3.391380025492     0.466790372064     1.659523497200     1.007825032230

  Charge       = 0
  Multiplicity = 2
  Basis Set: ANONYMOUS611BA8FD
    Blend: 6-31G_2DFP_
  Basis Set: (ANONYMOUS611BA8FD AUX)
    Blend: DEF2-UNIVERSAL-JKFIT

    Orbital Energies [Eh]
    ---------------------

    Alpha Occupied:

       1Ap   -19.186871     2Ap   -10.270855     3Ap   -10.209326
       4Ap    -1.083582     5Ap    -0.761936     6Ap    -0.543905
       7Ap    -0.467389     8Ap    -0.457824     1App   -0.456548
       2App   -0.388600     9Ap    -0.387127    10Ap    -0.190920

    Alpha Virtual:

       3App   -0.017627    11Ap     0.092408    12Ap     0.138186
       4App    0.142022    13Ap     0.217764    14Ap     0.268306
      15Ap     0.428230     5App    0.432167    16Ap     0.443817
       6App    0.493853    17Ap     0.506485    18Ap     0.531293
       7App    0.563472    19Ap     0.579281    20Ap     0.611210
       8App    0.616243    21Ap     0.645208    22Ap     0.718938
       9App    0.766700    23Ap     0.785630    10App    0.834002
      11App    0.916513    24Ap     0.926265    25Ap     0.935820
      12App    1.023973    26Ap     1.086226    27Ap     1.109607
      13App    1.153790    28Ap     1.222367    29Ap     1.306143
      14App    1.318105    30Ap     1.327947    31Ap     1.405021
      15App    1.409185    32Ap     1.469868    33Ap     1.559941
      34Ap     1.633808    16App    1.655398    35Ap     1.725015
      17App    1.815819    36Ap     1.836304    37Ap     1.903967
      18App    2.067679    38Ap     2.168468    39Ap     2.501606
      19App    2.680709    40Ap     2.744338    41Ap     2.786290
      20App    2.844930    21App    2.896049    42Ap     2.975185
      43Ap     3.031422    22App    3.058435    23App    3.104263
      44Ap     3.115510    45Ap     3.181552    24App    3.314153
      46Ap     3.370062    25App    3.390931    26App    3.441120
      27App    3.465940    47Ap     3.486377    48Ap     3.571875
      49Ap     3.744732    50Ap     3.763017    51Ap     3.946898
      28App    3.981586    52Ap     4.057924    53Ap     4.112968
      29App    4.125589    54Ap     4.194718    30App    4.392268
      55Ap     4.434702    31App    4.454250    56Ap     4.536810
      57Ap     4.921681    58Ap     5.037441    32App    5.042631
      33App    5.206183    59Ap     5.217178    60Ap     5.479562
      34App    5.488990    61Ap     5.825486    35App    5.937075
      62Ap     6.109512    63Ap     6.771109    36App    6.773421
      37App    7.070449    64Ap     7.135270    65Ap     7.532902

    Beta Occupied:

       1Ap   -19.178831     2Ap   -10.260813     3Ap   -10.205913
       4Ap    -1.067756     5Ap    -0.750163     6Ap    -0.524209
       1App   -0.451943     7Ap    -0.447248     8Ap    -0.439681
       2App   -0.383476     9Ap    -0.349089

    Beta Virtual:

      10Ap    -0.051505     3App   -0.001364    11Ap     0.095125
      12Ap     0.143820     4App    0.145147    13Ap     0.228296
      14Ap     0.273912     5App    0.434175    15Ap     0.435563
      16Ap     0.465676     6App    0.500568    17Ap     0.528090
      18Ap     0.540202     7App    0.569921    19Ap     0.583475
       8App    0.623404    20Ap     0.629379    21Ap     0.651223
      22Ap     0.741152     9App    0.777777    23Ap     0.795515
      10App    0.834782    11App    0.921355    24Ap     0.943141
      25Ap     0.950495    12App    1.028176    26Ap     1.092323
      27Ap     1.111665    13App    1.159980    28Ap     1.231722
      29Ap     1.311815    14App    1.320904    30Ap     1.334692
      15App    1.414767    31Ap     1.415381    32Ap     1.482153
      33Ap     1.570927    34Ap     1.647364    16App    1.669740
      35Ap     1.731305    17App    1.819015    36Ap     1.850337
      37Ap     1.910590    18App    2.074388    38Ap     2.189824
      39Ap     2.514329    19App    2.694986    40Ap     2.758892
      41Ap     2.807400    20App    2.860392    21App    2.897700
      42Ap     2.984629    43Ap     3.048255    22App    3.066943
      23App    3.123018    44Ap     3.124024    45Ap     3.216236
      24App    3.357580    46Ap     3.381510    25App    3.397260
      26App    3.450301    27App    3.480744    47Ap     3.509602
      48Ap     3.585073    49Ap     3.770543    50Ap     3.772557
      51Ap     3.955479    28App    3.990941    52Ap     4.074327
      53Ap     4.128135    29App    4.128376    54Ap     4.205838
      30App    4.394552    55Ap     4.440818    31App    4.458428
      56Ap     4.547659    57Ap     4.925566    58Ap     5.054937
      32App    5.060573    33App    5.208375    59Ap     5.222823
      60Ap     5.492137    34App    5.502840    61Ap     5.838711
      35App    5.942657    62Ap     6.132646    63Ap     6.800297
      36App    6.802946    37App    7.074730    64Ap     7.164538
      65Ap     7.544518

    Final Occupation by Irrep:
             Ap   App
    DOCC [     9,    2 ]
    SOCC [     1,    0 ]

  @DF-UKS Final Energy:  -153.18840742975001

   => Energetics <=

    Nuclear Repulsion Energy =             62.8843314074047228
    One-Electron Energy =                -331.7578873947420561
    Two-Electron Energy =                 132.2706064535198891
    DFT Exchange-Correlation Energy =     -16.5854578959325707
    Empirical Dispersion Energy =           0.0000000000000000
    VV10 Nonlocal Energy =                  0.0000000000000000
    Total Energy =                       -153.1884074297500149

  UHF NO Occupations:
  HONO-2 :    8 Ap 1.9997822
  HONO-1 :    9 Ap 1.9992098
  HONO-0 :   10 Ap 1.0000000
  LUNO+0 :   11 Ap 0.0007902
  LUNO+1 :   12 Ap 0.0002178
  LUNO+2 :    3App 0.0001784
  LUNO+3 :   13 Ap 0.0000611

Computation Completed

Properties will be evaluated at   0.000000,   0.000000,   0.000000 [a0]

Properties computed using the SCF density matrix

  Nuclear Dipole Moment: [e a0]
     X:     4.5417      Y:    -0.6796      Z:     0.0000

  Electronic Dipole Moment: [e a0]
     X:    -3.6168      Y:     0.6275      Z:     0.0000

  Dipole Moment: [e a0]
     X:     0.9249      Y:    -0.0521      Z:     0.0000     Total:     0.9264

  Dipole Moment: [D]
     X:     2.3509      Y:    -0.1324      Z:     0.0000     Total:     2.3547

*** tstop() called on n061 at Tue Mar 15 10:32:38 2022
Module time:
	user time   =      50.70 seconds =       0.85 minutes
	system time =       0.55 seconds =       0.01 minutes
	total time  =         51 seconds =       0.85 minutes
Total time:
	user time   =      50.70 seconds =       0.85 minutes
	system time =       0.55 seconds =       0.01 minutes
	total time  =         51 seconds =       0.85 minutes
Grab this energy -153.18840742975001
    Psi4 stopped on: Tuesday, 15 March 2022 10:32AM
    Psi4 wall time for execution: 0:00:51.30

*** Psi4 exiting successfully. Buy a developer a beer!
