                               Psi4 1.4a2.dev629

  ==> Input File <==

--------------------------------------------------------------------------
import os
memory 14 GB

molecule {
 C   -0.2548334754    0.8077145131   -0.0000000000
 O   -2.1933138757   -0.3348480604   -0.0000000000
 C    2.4090918184   -0.2445915806   -0.0000000000
 H    2.3822169780   -2.3157462203   -0.0000000000
 H    3.3907382684    0.4709184980   -1.6689354972
 H    3.3907382684    0.4709184980    1.6689354972
units bohr
0 2
}

basis {

assign 6-31g_2dfp_

[ 6-31g_2dfp_ ]

spherical

!----------------------------------------------------------------------
! Basis Set Exchange
! Version v0.8.13
! https://www.basissetexchange.org
!----------------------------------------------------------------------
!   Basis set: 6-31G(2df,p)
! Description: 6-31G(2df,p)
!        Role: orbital
!     Version: 0  (Data from the original Basis Set Exchange)
!----------------------------------------------------------------------

****
H     0
S    3   1.00
     18.7311370              0.03349460
      2.8253937              0.23472695
      0.6401217              0.81375733
S    1   1.00
      0.1612778              1.00000000
P    1   1.00
      1.5000000              1.0000000
P    1   1.00
      0.3750000              1.0000000
****
B     0
S    6   1.00
   2068.8823000              0.0018663
    310.6495700              0.0142515
     70.6830330              0.0695516
     19.8610800              0.2325729
      6.2993048              0.4670787
      2.1270270              0.3634314
SP   3   1.00
      4.7279710             -0.1303938              0.0745976
      1.1903377             -0.1307889              0.3078467
      0.3594117              1.1309444              0.7434568
SP   1   1.00
      0.1267512              1.0000000              1.0000000
D    1   1.00
      0.8020000              1.0000000
D    1   1.00
      0.2005000              1.0000000
F    1   1.00
      0.5000000              1.0000000
****
C     0
S    6   1.00
   3047.5249000              0.0018347
    457.3695100              0.0140373
    103.9486900              0.0688426
     29.2101550              0.2321844
      9.2866630              0.4679413
      3.1639270              0.3623120
SP   3   1.00
      7.8682724             -0.1193324              0.0689991
      1.8812885             -0.1608542              0.3164240
      0.5442493              1.1434564              0.7443083
SP   1   1.00
      0.1687144              1.0000000              1.0000000
D    1   1.00
      1.2520000              1.0000000
D    1   1.00
      0.3130000              1.0000000
F    1   1.00
      0.8000000              1.0000000
****
N     0
S    6   1.00
   4173.5110000              0.0018348
    627.4579000              0.0139950
    142.9021000              0.0685870
     40.2343300              0.2322410
     12.8202100              0.4690700
      4.3904370              0.3604550
SP   3   1.00
     11.6263580             -0.1149610              0.0675800
      2.7162800             -0.1691180              0.3239070
      0.7722180              1.1458520              0.7408950
SP   1   1.00
      0.2120313              1.0000000              1.0000000
D    1   1.00
      1.8260000              1.0000000
D    1   1.00
      0.4565000              1.0000000
F    1   1.00
      1.0000000              1.0000000
****
O     0
S    6   1.00
   5484.6717000              0.0018311
    825.2349500              0.0139501
    188.0469600              0.0684451
     52.9645000              0.2327143
     16.8975700              0.4701930
      5.7996353              0.3585209
SP   3   1.00
     15.5396160             -0.1107775              0.0708743
      3.5999336             -0.1480263              0.3397528
      1.0137618              1.1307670              0.7271586
SP   1   1.00
      0.2700058              1.0000000              1.0000000
D    1   1.00
      2.5840000              1.0000000
D    1   1.00
      0.6460000              1.0000000
F    1   1.00
      1.4000000              1.0000000
****
F     0
S    6   1.00
   7001.7130900              0.0018196169
   1051.3660900              0.0139160796
    239.2856900              0.0684053245
     67.3974453              0.233185760
     21.5199573              0.471267439
      7.40310130             0.356618546
SP   3   1.00
     20.8479528             -0.108506975            0.0716287243
      4.80830834            -0.146451658            0.3459121030
      1.34406986             1.128688580            0.7224699570
SP   1   1.00
      0.358151393            1.0000000              1.0000000
D    1   1.00
      3.5000000              1.0000000
D    1   1.00
      0.8750000              1.0000000
F    1   1.00
      1.8500000              1.0000000
****
Al     0
S    6   1.00
  13983.1000000              0.00194267
   2098.7500000              0.0148599
    477.7050000              0.0728494
    134.3600000              0.2468300
     42.8709000              0.4872580
     14.5189000              0.3234960
SP   6   1.00
    239.6680000             -0.00292619             0.00460285
     57.4419000             -0.0374080              0.0331990
     18.2859000             -0.1144870              0.1362820
      6.5991400              0.1156350              0.3304760
      2.4904900              0.6125950              0.4491460
      0.9445400              0.3937990              0.2657040
SP   3   1.00
      1.2779000             -0.2276060             -0.0175130
      0.3975900              0.00144583             0.2445330
      0.1600950              1.0927900              0.8049340
SP   1   1.00
      0.0556577              1.0000000              1.0000000
D    1   1.00
      0.6500000              1.0000000
D    1   1.00
      0.1625000              1.0000000
F    1   1.00
      0.2500000              1.0000000
****
Si     0
S    6   1.00
  16115.9000000              0.00195948
   2425.5800000              0.01492880
    553.8670000              0.07284780
    156.3400000              0.24613000
     50.0683000              0.48591400
     17.0178000              0.32500200
SP   6   1.00
    292.7180000             -0.00278094             0.00443826
     69.8731000             -0.03571460             0.03266790
     22.3363000             -0.11498500             0.13472100
      8.1503900              0.09356340             0.32867800
      3.1345800              0.60301700             0.44964000
      1.2254300              0.41895900             0.26137200
SP   3   1.00
      1.7273800             -0.24463000            -0.01779510
      0.5729220              0.00431572             0.25353900
      0.2221920              1.09818000             0.80066900
SP   1   1.00
      0.0778369              1.00000000             1.00000000
D    1   1.00
      0.9000000              1.0000000
D    1   1.00
      0.2250000              1.0000000
F    1   1.00
      0.3200000              1.0000000
****
P     0
S    6   1.00
  19413.3000000              0.0018516
   2909.4200000              0.0142062
    661.3640000              0.0699995
    185.7590000              0.2400790
     59.1943000              0.4847620
     20.0310000              0.3352000
SP   6   1.00
    339.4780000             -0.00278217             0.00456462
     81.0101000             -0.0360499              0.03369360
     25.8780000             -0.1166310              0.13975500
      9.4522100              0.0968328              0.33936200
      3.6656600              0.6144180              0.45092100
      1.4674600              0.4037980              0.23858600
SP   3   1.00
      2.1562300             -0.2529230             -0.01776530
      0.7489970              0.0328517              0.27405800
      0.2831450              1.0812500              0.78542100
SP   1   1.00
      0.0998317              1.0000000              1.00000000
D    1   1.00
      1.1000000              1.0000000
D    1   1.00
      0.2750000              1.0000000
F    1   1.00
      0.4500000              1.0000000
****
S     0
S    6   1.00
  21917.1000000              0.0018690
   3301.4900000              0.0142300
    754.1460000              0.0696960
    212.7110000              0.2384870
     67.9896000              0.4833070
     23.0515000              0.3380740
SP   6   1.00
    423.7350000             -0.0023767              0.0040610
    100.7100000             -0.0316930              0.0306810
     32.1599000             -0.1133170              0.1304520
     11.8079000              0.0560900              0.3272050
      4.6311000              0.5922550              0.4528510
      1.8702500              0.4550060              0.2560420
SP   3   1.00
      2.6158400             -0.2503740             -0.0145110
      0.9221670              0.0669570              0.3102630
      0.3412870              1.0545100              0.7544830
SP   1   1.00
      0.1171670              1.0000000              1.0000000
D    1   1.00
      1.3000000              1.0000000
D    1   1.00
      0.3250000              1.0000000
F    1   1.00
      0.5500000              1.0000000
****
Cl     0
S    6   1.00
  25180.1000000              0.0018330
   3780.3500000              0.0140340
    860.4740000              0.0690970
    242.1450000              0.2374520
     77.3349000              0.4830340
     26.2470000              0.3398560
SP   6   1.00
    491.7650000             -0.0022974              0.0039894
    116.9840000             -0.0307140              0.0303180
     37.4153000             -0.1125280              0.1298800
     13.7834000              0.0450160              0.3279510
      5.4521500              0.5893530              0.4535270
      2.2258800              0.4652060              0.2521540
SP   3   1.00
      3.1864900             -0.2518300             -0.0142990
      1.1442700              0.0615890              0.3235720
      0.4203770              1.0601800              0.7435070
SP   1   1.00
      0.1426570              1.0000000              1.0000000
D    1   1.00
      1.5000000              1.0000000
D    1   1.00
      0.3750000              1.0000000
F    1   1.00
      0.7000000              1.0000000
****
}

set {
reference uhf
freeze_core true
e_convergence 10
d_convergence 10
dft_spherical_points 1202
dft_radial_points 99
}

e = energy('b3lyp')

print_out('Grab this energy {0}'.format(e))
--------------------------------------------------------------------------

    Molecular point group: cs

    Geometry (in Bohr), charge = 0, multiplicity = 2:

       Center              X                  Y                   Z               Mass
    ------------   -----------------  -----------------  -----------------  -----------------
         C           -0.254941142195     0.807320520084     0.000000000000    12.000000000000
         O           -2.193421542495    -0.335242053416     0.000000000000    15.994914619570
         C            2.408984151605    -0.244985573616     0.000000000000    12.000000000000
         H            2.382109311205    -2.316140213316     0.000000000000     1.007825032230
         H            3.390630601605     0.470524504984    -1.668935497200     1.007825032230
         H            3.390630601605     0.470524504984     1.668935497200     1.007825032230

  Charge       = 0
  Multiplicity = 2
  Basis Set: ANONYMOUSEE1B649C
    Blend: 6-31G_2DFP_
  Basis Set: (ANONYMOUSEE1B649C AUX)
    Blend: DEF2-UNIVERSAL-JKFIT

    Orbital Energies [Eh]
    ---------------------

    Alpha Occupied:

       1Ap   -19.186894     2Ap   -10.272251     3Ap   -10.211445
       4Ap    -1.079047     5Ap    -0.762052     6Ap    -0.543948
       7Ap    -0.465767     8Ap    -0.456994     1App   -0.456068
       2App   -0.386426     9Ap    -0.385034    10Ap    -0.193203

    Alpha Virtual:

       3App   -0.020055    11Ap     0.091068    12Ap     0.135612
       4App    0.140479    13Ap     0.218018    14Ap     0.268108
      15Ap     0.427940     5App    0.431293    16Ap     0.443637
       6App    0.493344    17Ap     0.505999    18Ap     0.529245
       7App    0.562423    19Ap     0.575673    20Ap     0.605841
       8App    0.615531    21Ap     0.643053    22Ap     0.716473
       9App    0.765527    23Ap     0.785050    10App    0.830537
      11App    0.918041    24Ap     0.927878    25Ap     0.935588
      12App    1.022516    26Ap     1.084571    27Ap     1.105667
      13App    1.152935    28Ap     1.221200    29Ap     1.306473
      14App    1.315262    30Ap     1.327324    31Ap     1.402036
      15App    1.405718    32Ap     1.466424    33Ap     1.559869
      34Ap     1.627445    16App    1.652349    35Ap     1.715695
      17App    1.810863    36Ap     1.832822    37Ap     1.898757
      18App    2.063124    38Ap     2.164563    39Ap     2.489657
      19App    2.679785    40Ap     2.743867    41Ap     2.781738
      20App    2.839295    21App    2.893035    42Ap     2.971785
      43Ap     3.031041    22App    3.058222    23App    3.105709
      44Ap     3.114596    45Ap     3.183043    24App    3.314520
      46Ap     3.368564    25App    3.395430    26App    3.439072
      27App    3.466019    47Ap     3.485385    48Ap     3.569085
      49Ap     3.734742    50Ap     3.761125    51Ap     3.939069
      28App    3.983279    52Ap     4.053662    53Ap     4.107304
      29App    4.113883    54Ap     4.183799    30App    4.385925
      55Ap     4.433654    31App    4.443157    56Ap     4.528567
      57Ap     4.916653    58Ap     5.036642    32App    5.041903
      33App    5.190244    59Ap     5.197531    60Ap     5.468057
      34App    5.476195    61Ap     5.827601    35App    5.923983
      62Ap     6.099125    63Ap     6.770262    36App    6.772283
      37App    7.071651    64Ap     7.134945    65Ap     7.526969

    Beta Occupied:

       1Ap   -19.178801     2Ap   -10.262171     3Ap   -10.208104
       4Ap    -1.063019     5Ap    -0.750240     6Ap    -0.524226
       1App   -0.451583     7Ap    -0.446499     8Ap    -0.438143
       2App   -0.381209     9Ap    -0.346684

    Beta Virtual:

      10Ap    -0.053679     3App   -0.003769    11Ap     0.093762
      12Ap     0.141386     4App    0.143593    13Ap     0.228344
      14Ap     0.273870     5App    0.433247    15Ap     0.434970
      16Ap     0.465864     6App    0.500013    17Ap     0.527085
      18Ap     0.538239     7App    0.568714    19Ap     0.579885
       8App    0.622768    20Ap     0.624768    21Ap     0.648530
      22Ap     0.738223     9App    0.776735    23Ap     0.795120
      10App    0.831316    11App    0.922885    24Ap     0.943712
      25Ap     0.951576    12App    1.026696    26Ap     1.090752
      27Ap     1.107752    13App    1.159156    28Ap     1.230358
      29Ap     1.311953    14App    1.318102    30Ap     1.334156
      15App    1.411152    31Ap     1.412426    32Ap     1.478778
      33Ap     1.571227    34Ap     1.640443    16App    1.666770
      35Ap     1.721894    17App    1.813985    36Ap     1.847045
      37Ap     1.905467    18App    2.069841    38Ap     2.186034
      39Ap     2.502289    19App    2.694043    40Ap     2.758234
      41Ap     2.802829    20App    2.854582    21App    2.894669
      42Ap     2.981307    43Ap     3.047732    22App    3.066883
      44Ap     3.122949    23App    3.124286    45Ap     3.217777
      24App    3.358378    46Ap     3.380058    25App    3.401633
      26App    3.446445    27App    3.482550    47Ap     3.508245
      48Ap     3.582409    49Ap     3.760415    50Ap     3.770388
      51Ap     3.947881    28App    3.992504    52Ap     4.069991
      29App    4.116740    53Ap     4.121393    54Ap     4.196139
      30App    4.388142    55Ap     4.439953    31App    4.447354
      56Ap     4.539491    57Ap     4.920523    58Ap     5.054146
      32App    5.059975    33App    5.192385    59Ap     5.203341
      60Ap     5.480759    34App    5.490124    61Ap     5.840865
      35App    5.929577    62Ap     6.122390    63Ap     6.799638
      36App    6.802007    37App    7.075971    64Ap     7.164429
      65Ap     7.538684

    Final Occupation by Irrep:
             Ap   App
    DOCC [     9,    2 ]
    SOCC [     1,    0 ]

  @DF-UKS Final Energy:  -153.18837569597011

   => Energetics <=

    Nuclear Repulsion Energy =             62.6999590331860688
    One-Electron Energy =                -331.4100180037085011
    Two-Electron Energy =                 132.0973839216419776
    DFT Exchange-Correlation Energy =     -16.5757006470896613
    Empirical Dispersion Energy =           0.0000000000000000
    VV10 Nonlocal Energy =                  0.0000000000000000
    Total Energy =                       -153.1883756959701088

  UHF NO Occupations:
  HONO-2 :    8 Ap 1.9997871
  HONO-1 :    9 Ap 1.9991939
  HONO-0 :   10 Ap 1.0000000
  LUNO+0 :   11 Ap 0.0008061
  LUNO+1 :   12 Ap 0.0002129
  LUNO+2 :    3App 0.0001815
  LUNO+3 :   13 Ap 0.0000620

Computation Completed

Properties will be evaluated at   0.000000,   0.000000,   0.000000 [a0]

Properties computed using the SCF density matrix

  Nuclear Dipole Moment: [e a0]
     X:     4.5403      Y:    -0.6830      Z:     0.0000

  Electronic Dipole Moment: [e a0]
     X:    -3.6024      Y:     0.6343      Z:     0.0000

  Dipole Moment: [e a0]
     X:     0.9378      Y:    -0.0487      Z:     0.0000     Total:     0.9391

  Dipole Moment: [D]
     X:     2.3838      Y:    -0.1238      Z:     0.0000     Total:     2.3870

*** tstop() called on n058 at Tue Mar 15 10:32:27 2022
Module time:
	user time   =      53.48 seconds =       0.89 minutes
	system time =       0.51 seconds =       0.01 minutes
	total time  =         54 seconds =       0.90 minutes
Total time:
	user time   =      53.48 seconds =       0.89 minutes
	system time =       0.51 seconds =       0.01 minutes
	total time  =         54 seconds =       0.90 minutes
Grab this energy -153.1883756959701
    Psi4 stopped on: Tuesday, 15 March 2022 10:32AM
    Psi4 wall time for execution: 0:00:54.04

*** Psi4 exiting successfully. Buy a developer a beer!
