                               Psi4 1.4a2.dev629

  ==> Input File <==

--------------------------------------------------------------------------
import os
memory 14 GB

molecule {
 C   -0.2603089064    0.8032936410    0.0004797470
 O   -2.1906170761   -0.3365397326   -0.0001005633
 C    2.4105238976   -0.2386775421    0.0015414940
 H    2.3867733487   -2.3051679308    0.0043217936
 H    3.3922273628    0.4774813975   -1.6676031406
 H    3.3879993235    0.4697447869    1.6613604892
units bohr
0 2
}

basis {

assign 6-31g_2dfp_

[ 6-31g_2dfp_ ]

spherical

!----------------------------------------------------------------------
! Basis Set Exchange
! Version v0.8.13
! https://www.basissetexchange.org
!----------------------------------------------------------------------
!   Basis set: 6-31G(2df,p)
! Description: 6-31G(2df,p)
!        Role: orbital
!     Version: 0  (Data from the original Basis Set Exchange)
!----------------------------------------------------------------------

****
H     0
S    3   1.00
     18.7311370              0.03349460
      2.8253937              0.23472695
      0.6401217              0.81375733
S    1   1.00
      0.1612778              1.00000000
P    1   1.00
      1.5000000              1.0000000
P    1   1.00
      0.3750000              1.0000000
****
B     0
S    6   1.00
   2068.8823000              0.0018663
    310.6495700              0.0142515
     70.6830330              0.0695516
     19.8610800              0.2325729
      6.2993048              0.4670787
      2.1270270              0.3634314
SP   3   1.00
      4.7279710             -0.1303938              0.0745976
      1.1903377             -0.1307889              0.3078467
      0.3594117              1.1309444              0.7434568
SP   1   1.00
      0.1267512              1.0000000              1.0000000
D    1   1.00
      0.8020000              1.0000000
D    1   1.00
      0.2005000              1.0000000
F    1   1.00
      0.5000000              1.0000000
****
C     0
S    6   1.00
   3047.5249000              0.0018347
    457.3695100              0.0140373
    103.9486900              0.0688426
     29.2101550              0.2321844
      9.2866630              0.4679413
      3.1639270              0.3623120
SP   3   1.00
      7.8682724             -0.1193324              0.0689991
      1.8812885             -0.1608542              0.3164240
      0.5442493              1.1434564              0.7443083
SP   1   1.00
      0.1687144              1.0000000              1.0000000
D    1   1.00
      1.2520000              1.0000000
D    1   1.00
      0.3130000              1.0000000
F    1   1.00
      0.8000000              1.0000000
****
N     0
S    6   1.00
   4173.5110000              0.0018348
    627.4579000              0.0139950
    142.9021000              0.0685870
     40.2343300              0.2322410
     12.8202100              0.4690700
      4.3904370              0.3604550
SP   3   1.00
     11.6263580             -0.1149610              0.0675800
      2.7162800             -0.1691180              0.3239070
      0.7722180              1.1458520              0.7408950
SP   1   1.00
      0.2120313              1.0000000              1.0000000
D    1   1.00
      1.8260000              1.0000000
D    1   1.00
      0.4565000              1.0000000
F    1   1.00
      1.0000000              1.0000000
****
O     0
S    6   1.00
   5484.6717000              0.0018311
    825.2349500              0.0139501
    188.0469600              0.0684451
     52.9645000              0.2327143
     16.8975700              0.4701930
      5.7996353              0.3585209
SP   3   1.00
     15.5396160             -0.1107775              0.0708743
      3.5999336             -0.1480263              0.3397528
      1.0137618              1.1307670              0.7271586
SP   1   1.00
      0.2700058              1.0000000              1.0000000
D    1   1.00
      2.5840000              1.0000000
D    1   1.00
      0.6460000              1.0000000
F    1   1.00
      1.4000000              1.0000000
****
F     0
S    6   1.00
   7001.7130900              0.0018196169
   1051.3660900              0.0139160796
    239.2856900              0.0684053245
     67.3974453              0.233185760
     21.5199573              0.471267439
      7.40310130             0.356618546
SP   3   1.00
     20.8479528             -0.108506975            0.0716287243
      4.80830834            -0.146451658            0.3459121030
      1.34406986             1.128688580            0.7224699570
SP   1   1.00
      0.358151393            1.0000000              1.0000000
D    1   1.00
      3.5000000              1.0000000
D    1   1.00
      0.8750000              1.0000000
F    1   1.00
      1.8500000              1.0000000
****
Al     0
S    6   1.00
  13983.1000000              0.00194267
   2098.7500000              0.0148599
    477.7050000              0.0728494
    134.3600000              0.2468300
     42.8709000              0.4872580
     14.5189000              0.3234960
SP   6   1.00
    239.6680000             -0.00292619             0.00460285
     57.4419000             -0.0374080              0.0331990
     18.2859000             -0.1144870              0.1362820
      6.5991400              0.1156350              0.3304760
      2.4904900              0.6125950              0.4491460
      0.9445400              0.3937990              0.2657040
SP   3   1.00
      1.2779000             -0.2276060             -0.0175130
      0.3975900              0.00144583             0.2445330
      0.1600950              1.0927900              0.8049340
SP   1   1.00
      0.0556577              1.0000000              1.0000000
D    1   1.00
      0.6500000              1.0000000
D    1   1.00
      0.1625000              1.0000000
F    1   1.00
      0.2500000              1.0000000
****
Si     0
S    6   1.00
  16115.9000000              0.00195948
   2425.5800000              0.01492880
    553.8670000              0.07284780
    156.3400000              0.24613000
     50.0683000              0.48591400
     17.0178000              0.32500200
SP   6   1.00
    292.7180000             -0.00278094             0.00443826
     69.8731000             -0.03571460             0.03266790
     22.3363000             -0.11498500             0.13472100
      8.1503900              0.09356340             0.32867800
      3.1345800              0.60301700             0.44964000
      1.2254300              0.41895900             0.26137200
SP   3   1.00
      1.7273800             -0.24463000            -0.01779510
      0.5729220              0.00431572             0.25353900
      0.2221920              1.09818000             0.80066900
SP   1   1.00
      0.0778369              1.00000000             1.00000000
D    1   1.00
      0.9000000              1.0000000
D    1   1.00
      0.2250000              1.0000000
F    1   1.00
      0.3200000              1.0000000
****
P     0
S    6   1.00
  19413.3000000              0.0018516
   2909.4200000              0.0142062
    661.3640000              0.0699995
    185.7590000              0.2400790
     59.1943000              0.4847620
     20.0310000              0.3352000
SP   6   1.00
    339.4780000             -0.00278217             0.00456462
     81.0101000             -0.0360499              0.03369360
     25.8780000             -0.1166310              0.13975500
      9.4522100              0.0968328              0.33936200
      3.6656600              0.6144180              0.45092100
      1.4674600              0.4037980              0.23858600
SP   3   1.00
      2.1562300             -0.2529230             -0.01776530
      0.7489970              0.0328517              0.27405800
      0.2831450              1.0812500              0.78542100
SP   1   1.00
      0.0998317              1.0000000              1.00000000
D    1   1.00
      1.1000000              1.0000000
D    1   1.00
      0.2750000              1.0000000
F    1   1.00
      0.4500000              1.0000000
****
S     0
S    6   1.00
  21917.1000000              0.0018690
   3301.4900000              0.0142300
    754.1460000              0.0696960
    212.7110000              0.2384870
     67.9896000              0.4833070
     23.0515000              0.3380740
SP   6   1.00
    423.7350000             -0.0023767              0.0040610
    100.7100000             -0.0316930              0.0306810
     32.1599000             -0.1133170              0.1304520
     11.8079000              0.0560900              0.3272050
      4.6311000              0.5922550              0.4528510
      1.8702500              0.4550060              0.2560420
SP   3   1.00
      2.6158400             -0.2503740             -0.0145110
      0.9221670              0.0669570              0.3102630
      0.3412870              1.0545100              0.7544830
SP   1   1.00
      0.1171670              1.0000000              1.0000000
D    1   1.00
      1.3000000              1.0000000
D    1   1.00
      0.3250000              1.0000000
F    1   1.00
      0.5500000              1.0000000
****
Cl     0
S    6   1.00
  25180.1000000              0.0018330
   3780.3500000              0.0140340
    860.4740000              0.0690970
    242.1450000              0.2374520
     77.3349000              0.4830340
     26.2470000              0.3398560
SP   6   1.00
    491.7650000             -0.0022974              0.0039894
    116.9840000             -0.0307140              0.0303180
     37.4153000             -0.1125280              0.1298800
     13.7834000              0.0450160              0.3279510
      5.4521500              0.5893530              0.4535270
      2.2258800              0.4652060              0.2521540
SP   3   1.00
      3.1864900             -0.2518300             -0.0142990
      1.1442700              0.0615890              0.3235720
      0.4203770              1.0601800              0.7435070
SP   1   1.00
      0.1426570              1.0000000              1.0000000
D    1   1.00
      1.5000000              1.0000000
D    1   1.00
      0.3750000              1.0000000
F    1   1.00
      0.7000000              1.0000000
****
}

set {
reference uhf
freeze_core true
e_convergence 10
d_convergence 10
dft_spherical_points 1202
dft_radial_points 99
}

e = energy('b3lyp')

print_out('Grab this energy {0}'.format(e))
--------------------------------------------------------------------------

    Molecular point group: c1

    Geometry (in Bohr), charge = 0, multiplicity = 2:

       Center              X                  Y                   Z               Mass
    ------------   -----------------  -----------------  -----------------  -----------------
         C           -0.260368855267     0.802738036441    -0.000001686688    12.000000000000
         O           -2.190677024967    -0.337095337159    -0.000581996988    15.994914619570
         C            2.410463948733    -0.239233146659     0.001060060312    12.000000000000
         H            2.386713399833    -2.305723535359     0.003840359912     1.007825032230
         H            3.392167413933     0.476925792941    -1.668084574288     1.007825032230
         H            3.387939374633     0.469189182341     1.660879055512     1.007825032230

  Charge       = 0
  Multiplicity = 2
  Basis Set: ANONYMOUSAD59DCDF
    Blend: 6-31G_2DFP_
  Basis Set: (ANONYMOUSAD59DCDF AUX)
    Blend: DEF2-UNIVERSAL-JKFIT

    Orbital Energies [Eh]
    ---------------------

    Alpha Occupied:

       1A    -19.186871     2A    -10.271487     3A    -10.210387
       4A     -1.081463     5A     -0.762047     6A     -0.543937
       7A     -0.466546     8A     -0.457348     9A     -0.456526
      10A     -0.387709    11A     -0.386012    12A     -0.191825

    Alpha Virtual:

      13A     -0.018798    14A      0.091775    15A      0.136490
      16A      0.141559    17A      0.218097    18A      0.268276
      19A      0.428242    20A      0.431536    21A      0.443880
      22A      0.493546    23A      0.506213    24A      0.530032
      25A      0.563024    26A      0.577388    27A      0.608770
      28A      0.616182    29A      0.644014    30A      0.717746
      31A      0.766038    32A      0.785347    33A      0.832278
      34A      0.917196    35A      0.927215    36A      0.935630
      37A      1.023203    38A      1.085074    39A      1.107347
      40A      1.153965    41A      1.223060    42A      1.306287
      43A      1.317498    44A      1.327236    45A      1.402707
      46A      1.407183    47A      1.468286    48A      1.559437
      49A      1.630865    50A      1.653979    51A      1.720089
      52A      1.813985    53A      1.834677    54A      1.900736
      55A      2.065735    56A      2.167269    57A      2.495993
      58A      2.680735    59A      2.744377    60A      2.783944
      61A      2.841823    62A      2.894995    63A      2.973840
      64A      3.030162    65A      3.057835    66A      3.104420
      67A      3.115920    68A      3.181911    69A      3.314497
      70A      3.369271    71A      3.393128    72A      3.440173
      73A      3.466173    74A      3.486177    75A      3.570188
      76A      3.740293    77A      3.762148    78A      3.943910
      79A      3.981695    80A      4.056464    81A      4.109530
      82A      4.120106    83A      4.189724    84A      4.391990
      85A      4.433759    86A      4.446988    87A      4.532297
      88A      4.918771    89A      5.037080    90A      5.042342
      91A      5.196487    92A      5.208982    93A      5.474264
      94A      5.483256    95A      5.826720    96A      5.931076
      97A      6.105042    98A      6.770754    99A      6.772973
     100A      7.071180   101A      7.134979   102A      7.530280

    Beta Occupied:

       1A    -19.178815     2A    -10.261421     3A    -10.207016
       4A     -1.065553     5A     -0.750261     6A     -0.524255
       7A     -0.452046     8A     -0.446463     9A     -0.439082
      10A     -0.382527    11A     -0.347939

    Beta Virtual:

      12A     -0.052358    13A     -0.002527    14A      0.094499
      15A      0.142204    16A      0.144683    17A      0.228515
      18A      0.273944    19A      0.433464    20A      0.435467
      21A      0.465935    22A      0.500250    23A      0.527538
      24A      0.539002    25A      0.569409    26A      0.581595
      27A      0.623352    28A      0.627342    29A      0.649764
      30A      0.739789    31A      0.777188    32A      0.795312
      33A      0.833071    34A      0.922037    35A      0.943494
      36A      0.951018    37A      1.027389    38A      1.091208
      39A      1.109463    40A      1.160155    41A      1.232311
      42A      1.311789    43A      1.320351    44A      1.334041
      45A      1.412441    46A      1.413263    47A      1.480554
      48A      1.570730    49A      1.644124    50A      1.668337
      51A      1.726302    52A      1.817227    53A      1.848789
      54A      1.907392    55A      2.072432    56A      2.188679
      57A      2.508670    58A      2.694981    59A      2.758862
      60A      2.804998    61A      2.857226    62A      2.896673
      63A      2.983292    64A      3.046998    65A      3.066407
      66A      3.122825    67A      3.124715    68A      3.216632
      69A      3.358140    70A      3.380706    71A      3.399320
      72A      3.448494    73A      3.481797    74A      3.509346
      75A      3.583315    76A      3.766085    77A      3.771495
      78A      3.952622    79A      3.990987    80A      4.072790
      81A      4.122640    82A      4.124532    83A      4.201402
      84A      4.394205    85A      4.439964    86A      4.451253
      87A      4.543173    88A      4.922674    89A      5.054549
      90A      5.060322    91A      5.199201    92A      5.214154
      93A      5.486895    94A      5.497129    95A      5.839955
      96A      5.936663    97A      6.128227    98A      6.799996
      99A      6.802556   100A      7.075475   101A      7.164322
     102A      7.541934

    Final Occupation by Irrep:
              A
    DOCC [    11 ]
    SOCC [     1 ]

  @DF-UKS Final Energy:  -153.18842549994503

   => Energetics <=

    Nuclear Repulsion Energy =             62.7994032261293427
    One-Electron Energy =                -331.5977498424168743
    Two-Electron Energy =                 132.1907359064481113
    DFT Exchange-Correlation Energy =     -16.5808147901056309
    Empirical Dispersion Energy =           0.0000000000000000
    VV10 Nonlocal Energy =                  0.0000000000000000
    Total Energy =                       -153.1884254999450263

  UHF NO Occupations:
  HONO-2 :   10  A 1.9997852
  HONO-1 :   11  A 1.9992029
  HONO-0 :   12  A 1.0000000
  LUNO+0 :   13  A 0.0007971
  LUNO+1 :   14  A 0.0002148
  LUNO+2 :   15  A 0.0001804
  LUNO+3 :   16  A 0.0000614

Computation Completed

Properties will be evaluated at   0.000000,   0.000000,   0.000000 [a0]

Properties computed using the SCF density matrix

  Nuclear Dipole Moment: [e a0]
     X:     4.5420      Y:    -0.6753      Z:    -0.0017

  Electronic Dipole Moment: [e a0]
     X:    -3.6105      Y:     0.6270      Z:     0.0026

  Dipole Moment: [e a0]
     X:     0.9315      Y:    -0.0484      Z:     0.0010     Total:     0.9327

  Dipole Moment: [D]
     X:     2.3675      Y:    -0.1229      Z:     0.0025     Total:     2.3707

*** tstop() called on n080 at Thu Nov  4 14:50:47 2021
Module time:
	user time   =      44.34 seconds =       0.74 minutes
	system time =       0.50 seconds =       0.01 minutes
	total time  =         45 seconds =       0.75 minutes
Total time:
	user time   =      44.34 seconds =       0.74 minutes
	system time =       0.50 seconds =       0.01 minutes
	total time  =         45 seconds =       0.75 minutes
Grab this energy -153.18842549994503
    Psi4 stopped on: Thursday, 04 November 2021 02:50PM
    Psi4 wall time for execution: 0:00:44.87

*** Psi4 exiting successfully. Buy a developer a beer!
