                               Psi4 1.4a2.dev629

  ==> Input File <==

--------------------------------------------------------------------------
import os
memory 14 GB

molecule {
 C   -0.2577464973    0.7997747469    0.0000000005
 O   -2.1910967548   -0.3353241022    0.0000000097
 C    2.4103046935   -0.2400113209    0.0000000116
 H    2.3828307752   -2.3101314635    0.0000000350
 H    3.3911526942    0.4779132992   -1.6590552894
 H    3.3911530393    0.4779134604    1.6590550526
units bohr
0 2
}

basis {

assign 6-31g_2dfp_

[ 6-31g_2dfp_ ]

spherical

!----------------------------------------------------------------------
! Basis Set Exchange
! Version v0.8.13
! https://www.basissetexchange.org
!----------------------------------------------------------------------
!   Basis set: 6-31G(2df,p)
! Description: 6-31G(2df,p)
!        Role: orbital
!     Version: 0  (Data from the original Basis Set Exchange)
!----------------------------------------------------------------------

****
H     0
S    3   1.00
     18.7311370              0.03349460
      2.8253937              0.23472695
      0.6401217              0.81375733
S    1   1.00
      0.1612778              1.00000000
P    1   1.00
      1.5000000              1.0000000
P    1   1.00
      0.3750000              1.0000000
****
B     0
S    6   1.00
   2068.8823000              0.0018663
    310.6495700              0.0142515
     70.6830330              0.0695516
     19.8610800              0.2325729
      6.2993048              0.4670787
      2.1270270              0.3634314
SP   3   1.00
      4.7279710             -0.1303938              0.0745976
      1.1903377             -0.1307889              0.3078467
      0.3594117              1.1309444              0.7434568
SP   1   1.00
      0.1267512              1.0000000              1.0000000
D    1   1.00
      0.8020000              1.0000000
D    1   1.00
      0.2005000              1.0000000
F    1   1.00
      0.5000000              1.0000000
****
C     0
S    6   1.00
   3047.5249000              0.0018347
    457.3695100              0.0140373
    103.9486900              0.0688426
     29.2101550              0.2321844
      9.2866630              0.4679413
      3.1639270              0.3623120
SP   3   1.00
      7.8682724             -0.1193324              0.0689991
      1.8812885             -0.1608542              0.3164240
      0.5442493              1.1434564              0.7443083
SP   1   1.00
      0.1687144              1.0000000              1.0000000
D    1   1.00
      1.2520000              1.0000000
D    1   1.00
      0.3130000              1.0000000
F    1   1.00
      0.8000000              1.0000000
****
N     0
S    6   1.00
   4173.5110000              0.0018348
    627.4579000              0.0139950
    142.9021000              0.0685870
     40.2343300              0.2322410
     12.8202100              0.4690700
      4.3904370              0.3604550
SP   3   1.00
     11.6263580             -0.1149610              0.0675800
      2.7162800             -0.1691180              0.3239070
      0.7722180              1.1458520              0.7408950
SP   1   1.00
      0.2120313              1.0000000              1.0000000
D    1   1.00
      1.8260000              1.0000000
D    1   1.00
      0.4565000              1.0000000
F    1   1.00
      1.0000000              1.0000000
****
O     0
S    6   1.00
   5484.6717000              0.0018311
    825.2349500              0.0139501
    188.0469600              0.0684451
     52.9645000              0.2327143
     16.8975700              0.4701930
      5.7996353              0.3585209
SP   3   1.00
     15.5396160             -0.1107775              0.0708743
      3.5999336             -0.1480263              0.3397528
      1.0137618              1.1307670              0.7271586
SP   1   1.00
      0.2700058              1.0000000              1.0000000
D    1   1.00
      2.5840000              1.0000000
D    1   1.00
      0.6460000              1.0000000
F    1   1.00
      1.4000000              1.0000000
****
F     0
S    6   1.00
   7001.7130900              0.0018196169
   1051.3660900              0.0139160796
    239.2856900              0.0684053245
     67.3974453              0.233185760
     21.5199573              0.471267439
      7.40310130             0.356618546
SP   3   1.00
     20.8479528             -0.108506975            0.0716287243
      4.80830834            -0.146451658            0.3459121030
      1.34406986             1.128688580            0.7224699570
SP   1   1.00
      0.358151393            1.0000000              1.0000000
D    1   1.00
      3.5000000              1.0000000
D    1   1.00
      0.8750000              1.0000000
F    1   1.00
      1.8500000              1.0000000
****
Al     0
S    6   1.00
  13983.1000000              0.00194267
   2098.7500000              0.0148599
    477.7050000              0.0728494
    134.3600000              0.2468300
     42.8709000              0.4872580
     14.5189000              0.3234960
SP   6   1.00
    239.6680000             -0.00292619             0.00460285
     57.4419000             -0.0374080              0.0331990
     18.2859000             -0.1144870              0.1362820
      6.5991400              0.1156350              0.3304760
      2.4904900              0.6125950              0.4491460
      0.9445400              0.3937990              0.2657040
SP   3   1.00
      1.2779000             -0.2276060             -0.0175130
      0.3975900              0.00144583             0.2445330
      0.1600950              1.0927900              0.8049340
SP   1   1.00
      0.0556577              1.0000000              1.0000000
D    1   1.00
      0.6500000              1.0000000
D    1   1.00
      0.1625000              1.0000000
F    1   1.00
      0.2500000              1.0000000
****
Si     0
S    6   1.00
  16115.9000000              0.00195948
   2425.5800000              0.01492880
    553.8670000              0.07284780
    156.3400000              0.24613000
     50.0683000              0.48591400
     17.0178000              0.32500200
SP   6   1.00
    292.7180000             -0.00278094             0.00443826
     69.8731000             -0.03571460             0.03266790
     22.3363000             -0.11498500             0.13472100
      8.1503900              0.09356340             0.32867800
      3.1345800              0.60301700             0.44964000
      1.2254300              0.41895900             0.26137200
SP   3   1.00
      1.7273800             -0.24463000            -0.01779510
      0.5729220              0.00431572             0.25353900
      0.2221920              1.09818000             0.80066900
SP   1   1.00
      0.0778369              1.00000000             1.00000000
D    1   1.00
      0.9000000              1.0000000
D    1   1.00
      0.2250000              1.0000000
F    1   1.00
      0.3200000              1.0000000
****
P     0
S    6   1.00
  19413.3000000              0.0018516
   2909.4200000              0.0142062
    661.3640000              0.0699995
    185.7590000              0.2400790
     59.1943000              0.4847620
     20.0310000              0.3352000
SP   6   1.00
    339.4780000             -0.00278217             0.00456462
     81.0101000             -0.0360499              0.03369360
     25.8780000             -0.1166310              0.13975500
      9.4522100              0.0968328              0.33936200
      3.6656600              0.6144180              0.45092100
      1.4674600              0.4037980              0.23858600
SP   3   1.00
      2.1562300             -0.2529230             -0.01776530
      0.7489970              0.0328517              0.27405800
      0.2831450              1.0812500              0.78542100
SP   1   1.00
      0.0998317              1.0000000              1.00000000
D    1   1.00
      1.1000000              1.0000000
D    1   1.00
      0.2750000              1.0000000
F    1   1.00
      0.4500000              1.0000000
****
S     0
S    6   1.00
  21917.1000000              0.0018690
   3301.4900000              0.0142300
    754.1460000              0.0696960
    212.7110000              0.2384870
     67.9896000              0.4833070
     23.0515000              0.3380740
SP   6   1.00
    423.7350000             -0.0023767              0.0040610
    100.7100000             -0.0316930              0.0306810
     32.1599000             -0.1133170              0.1304520
     11.8079000              0.0560900              0.3272050
      4.6311000              0.5922550              0.4528510
      1.8702500              0.4550060              0.2560420
SP   3   1.00
      2.6158400             -0.2503740             -0.0145110
      0.9221670              0.0669570              0.3102630
      0.3412870              1.0545100              0.7544830
SP   1   1.00
      0.1171670              1.0000000              1.0000000
D    1   1.00
      1.3000000              1.0000000
D    1   1.00
      0.3250000              1.0000000
F    1   1.00
      0.5500000              1.0000000
****
Cl     0
S    6   1.00
  25180.1000000              0.0018330
   3780.3500000              0.0140340
    860.4740000              0.0690970
    242.1450000              0.2374520
     77.3349000              0.4830340
     26.2470000              0.3398560
SP   6   1.00
    491.7650000             -0.0022974              0.0039894
    116.9840000             -0.0307140              0.0303180
     37.4153000             -0.1125280              0.1298800
     13.7834000              0.0450160              0.3279510
      5.4521500              0.5893530              0.4535270
      2.2258800              0.4652060              0.2521540
SP   3   1.00
      3.1864900             -0.2518300             -0.0142990
      1.1442700              0.0615890              0.3235720
      0.4203770              1.0601800              0.7435070
SP   1   1.00
      0.1426570              1.0000000              1.0000000
D    1   1.00
      1.5000000              1.0000000
D    1   1.00
      0.3750000              1.0000000
F    1   1.00
      0.7000000              1.0000000
****
}

set {
reference uhf
freeze_core true
e_convergence 10
d_convergence 10
dft_spherical_points 1202
dft_radial_points 99
}

e = energy('b3lyp')

print_out('Grab this energy {0}'.format(e))
--------------------------------------------------------------------------

    Molecular point group: c1

    Geometry (in Bohr), charge = 0, multiplicity = 2:

       Center              X                  Y                   Z               Mass
    ------------   -----------------  -----------------  -----------------  -----------------
         C           -0.258238073939     0.800035599398    -0.000000001754    12.000000000000
         O           -2.191588331439    -0.335063249702     0.000000007446    15.994914619570
         C            2.409813116861    -0.239750468402     0.000000009346    12.000000000000
         H            2.382339198561    -2.309870611002     0.000000032746     1.007825032230
         H            3.390661117561     0.478174151698    -1.659055291654     1.007825032230
         H            3.390661462661     0.478174312898     1.659055050346     1.007825032230

  Charge       = 0
  Multiplicity = 2
  Basis Set: ANONYMOUS00206BC5
    Blend: 6-31G_2DFP_
  Basis Set: (ANONYMOUS00206BC5 AUX)
    Blend: DEF2-UNIVERSAL-JKFIT

    Orbital Energies [Eh]
    ---------------------

    Alpha Occupied:

       1A    -19.186702     2A    -10.271302     3A    -10.210398
       4A     -1.081243     5A     -0.762511     6A     -0.543838
       7A     -0.467039     8A     -0.457183     9A     -0.456479
      10A     -0.387423    11A     -0.386258    12A     -0.191460

    Alpha Virtual:

      13A     -0.018710    14A      0.091826    15A      0.136146
      16A      0.141576    17A      0.218583    18A      0.268150
      19A      0.428074    20A      0.431206    21A      0.444143
      22A      0.494061    23A      0.506035    24A      0.530204
      25A      0.563053    26A      0.577197    27A      0.609258
      28A      0.616845    29A      0.643927    30A      0.717546
      31A      0.765643    32A      0.785321    33A      0.832143
      34A      0.917513    35A      0.927415    36A      0.935230
      37A      1.024140    38A      1.083711    39A      1.108742
      40A      1.154090    41A      1.221974    42A      1.307263
      43A      1.315767    44A      1.327671    45A      1.404186
      46A      1.408504    47A      1.468836    48A      1.560399
      49A      1.632054    50A      1.654256    51A      1.720639
      52A      1.814519    53A      1.834331    54A      1.900579
      55A      2.067086    56A      2.168969    57A      2.495662
      58A      2.680839    59A      2.744834    60A      2.783614
      61A      2.843570    62A      2.893719    63A      2.973972
      64A      3.029131    65A      3.057752    66A      3.104454
      67A      3.116613    68A      3.182184    69A      3.314115
      70A      3.369983    71A      3.391302    72A      3.441044
      73A      3.466978    74A      3.486146    75A      3.568906
      76A      3.741125    77A      3.763679    78A      3.943499
      79A      3.984856    80A      4.058939    81A      4.113021
      82A      4.117397    83A      4.189618    84A      4.389700
      85A      4.436521    86A      4.451012    87A      4.532041
      88A      4.919999    89A      5.037056    90A      5.042525
      91A      5.201211    92A      5.203009    93A      5.474446
      94A      5.484421    95A      5.827585    96A      5.931600
      97A      6.106298    98A      6.770982    99A      6.773187
     100A      7.071654   101A      7.135036   102A      7.530478

    Beta Occupied:

       1A    -19.178653     2A    -10.261226     3A    -10.207048
       4A     -1.065338     5A     -0.750742     6A     -0.524222
       7A     -0.451941     8A     -0.446778     9A     -0.439323
      10A     -0.382263    11A     -0.348002

    Beta Virtual:

      12A     -0.051962    13A     -0.002451    14A      0.094600
      15A      0.141859    16A      0.144698    17A      0.228915
      18A      0.273821    19A      0.433204    20A      0.435006
      21A      0.466400    22A      0.500775    23A      0.527342
      24A      0.539305    25A      0.569388    26A      0.581381
      27A      0.624061    28A      0.627720    29A      0.649716
      30A      0.739659    31A      0.776817    32A      0.795282
      33A      0.832951    34A      0.922360    35A      0.943045
      36A      0.951228    37A      1.028332    38A      1.089943
      39A      1.110747    40A      1.160243    41A      1.231245
      42A      1.312867    43A      1.318576    44A      1.334454
      45A      1.413959    46A      1.414583    47A      1.481070
      48A      1.571493    49A      1.645366    50A      1.668613
      51A      1.726940    52A      1.817738    53A      1.848518
      54A      1.907203    55A      2.073796    56A      2.190386
      57A      2.508317    58A      2.695093    59A      2.759251
      60A      2.804710    61A      2.859194    62A      2.895359
      63A      2.983387    64A      3.046128    65A      3.066253
      66A      3.123065    67A      3.125047    68A      3.216953
      69A      3.357679    70A      3.381543    71A      3.397698
      72A      3.449129    73A      3.482660    74A      3.509069
      75A      3.582079    76A      3.766983    77A      3.773022
      78A      3.952159    79A      3.994131    80A      4.075230
      81A      4.120299    82A      4.127812    83A      4.201154
      84A      4.391910    85A      4.442731    86A      4.455211
      87A      4.542933    88A      4.923905    89A      5.054474
      90A      5.060479    91A      5.205217    92A      5.206984
      93A      5.487072    94A      5.498254    95A      5.840823
      96A      5.937186    97A      6.129469    98A      6.800185
      99A      6.802735   100A      7.075947   101A      7.164357
     102A      7.542126

    Final Occupation by Irrep:
              A
    DOCC [    11 ]
    SOCC [     1 ]

  @DF-UKS Final Energy:  -153.18843018448797

   => Energetics <=

    Nuclear Repulsion Energy =             62.8158880186727444
    One-Electron Energy =                -331.6305928184817162
    Two-Electron Energy =                 132.2075354755669991
    DFT Exchange-Correlation Energy =     -16.5812608602460116
    Empirical Dispersion Energy =           0.0000000000000000
    VV10 Nonlocal Energy =                  0.0000000000000000
    Total Energy =                       -153.1884301844879701

  UHF NO Occupations:
  HONO-2 :   10  A 1.9997873
  HONO-1 :   11  A 1.9992033
  HONO-0 :   12  A 1.0000000
  LUNO+0 :   13  A 0.0007967
  LUNO+1 :   14  A 0.0002127
  LUNO+2 :   15  A 0.0001810
  LUNO+3 :   16  A 0.0000613

Computation Completed

Properties will be evaluated at   0.000000,   0.000000,   0.000000 [a0]

Properties computed using the SCF density matrix

  Nuclear Dipole Moment: [e a0]
     X:     4.5404      Y:    -0.6723      Z:    -0.0000

  Electronic Dipole Moment: [e a0]
     X:    -3.6061      Y:     0.6248      Z:     0.0000

  Dipole Moment: [e a0]
     X:     0.9343      Y:    -0.0476      Z:    -0.0000     Total:     0.9355

  Dipole Moment: [D]
     X:     2.3748      Y:    -0.1209      Z:    -0.0000     Total:     2.3779

*** tstop() called on n045 at Thu Nov  4 14:56:06 2021
Module time:
	user time   =      62.41 seconds =       1.04 minutes
	system time =       0.39 seconds =       0.01 minutes
	total time  =         63 seconds =       1.05 minutes
Total time:
	user time   =      62.41 seconds =       1.04 minutes
	system time =       0.39 seconds =       0.01 minutes
	total time  =         63 seconds =       1.05 minutes
Grab this energy -153.18843018448797
    Psi4 stopped on: Thursday, 04 November 2021 02:56PM
    Psi4 wall time for execution: 0:01:02.85

*** Psi4 exiting successfully. Buy a developer a beer!
