                               Psi4 1.4a2.dev629

  ==> Input File <==

--------------------------------------------------------------------------
import os
memory 14 GB

molecule {
 C   -0.2606419735    0.8054160797   -0.0000000099
 O   -2.1897155777   -0.3367037662    0.0000000127
 C    2.4066738797   -0.2407349894    0.0000000359
 H    2.3870280797   -2.3111710574    0.0000000199
 H    3.3916265936    0.4766640900   -1.6683973169
 H    3.3916269482    0.4766642633    1.6683970782
units bohr
0 2
}

basis {

assign 6-31g_2dfp_

[ 6-31g_2dfp_ ]

spherical

!----------------------------------------------------------------------
! Basis Set Exchange
! Version v0.8.13
! https://www.basissetexchange.org
!----------------------------------------------------------------------
!   Basis set: 6-31G(2df,p)
! Description: 6-31G(2df,p)
!        Role: orbital
!     Version: 0  (Data from the original Basis Set Exchange)
!----------------------------------------------------------------------

****
H     0
S    3   1.00
     18.7311370              0.03349460
      2.8253937              0.23472695
      0.6401217              0.81375733
S    1   1.00
      0.1612778              1.00000000
P    1   1.00
      1.5000000              1.0000000
P    1   1.00
      0.3750000              1.0000000
****
B     0
S    6   1.00
   2068.8823000              0.0018663
    310.6495700              0.0142515
     70.6830330              0.0695516
     19.8610800              0.2325729
      6.2993048              0.4670787
      2.1270270              0.3634314
SP   3   1.00
      4.7279710             -0.1303938              0.0745976
      1.1903377             -0.1307889              0.3078467
      0.3594117              1.1309444              0.7434568
SP   1   1.00
      0.1267512              1.0000000              1.0000000
D    1   1.00
      0.8020000              1.0000000
D    1   1.00
      0.2005000              1.0000000
F    1   1.00
      0.5000000              1.0000000
****
C     0
S    6   1.00
   3047.5249000              0.0018347
    457.3695100              0.0140373
    103.9486900              0.0688426
     29.2101550              0.2321844
      9.2866630              0.4679413
      3.1639270              0.3623120
SP   3   1.00
      7.8682724             -0.1193324              0.0689991
      1.8812885             -0.1608542              0.3164240
      0.5442493              1.1434564              0.7443083
SP   1   1.00
      0.1687144              1.0000000              1.0000000
D    1   1.00
      1.2520000              1.0000000
D    1   1.00
      0.3130000              1.0000000
F    1   1.00
      0.8000000              1.0000000
****
N     0
S    6   1.00
   4173.5110000              0.0018348
    627.4579000              0.0139950
    142.9021000              0.0685870
     40.2343300              0.2322410
     12.8202100              0.4690700
      4.3904370              0.3604550
SP   3   1.00
     11.6263580             -0.1149610              0.0675800
      2.7162800             -0.1691180              0.3239070
      0.7722180              1.1458520              0.7408950
SP   1   1.00
      0.2120313              1.0000000              1.0000000
D    1   1.00
      1.8260000              1.0000000
D    1   1.00
      0.4565000              1.0000000
F    1   1.00
      1.0000000              1.0000000
****
O     0
S    6   1.00
   5484.6717000              0.0018311
    825.2349500              0.0139501
    188.0469600              0.0684451
     52.9645000              0.2327143
     16.8975700              0.4701930
      5.7996353              0.3585209
SP   3   1.00
     15.5396160             -0.1107775              0.0708743
      3.5999336             -0.1480263              0.3397528
      1.0137618              1.1307670              0.7271586
SP   1   1.00
      0.2700058              1.0000000              1.0000000
D    1   1.00
      2.5840000              1.0000000
D    1   1.00
      0.6460000              1.0000000
F    1   1.00
      1.4000000              1.0000000
****
F     0
S    6   1.00
   7001.7130900              0.0018196169
   1051.3660900              0.0139160796
    239.2856900              0.0684053245
     67.3974453              0.233185760
     21.5199573              0.471267439
      7.40310130             0.356618546
SP   3   1.00
     20.8479528             -0.108506975            0.0716287243
      4.80830834            -0.146451658            0.3459121030
      1.34406986             1.128688580            0.7224699570
SP   1   1.00
      0.358151393            1.0000000              1.0000000
D    1   1.00
      3.5000000              1.0000000
D    1   1.00
      0.8750000              1.0000000
F    1   1.00
      1.8500000              1.0000000
****
Al     0
S    6   1.00
  13983.1000000              0.00194267
   2098.7500000              0.0148599
    477.7050000              0.0728494
    134.3600000              0.2468300
     42.8709000              0.4872580
     14.5189000              0.3234960
SP   6   1.00
    239.6680000             -0.00292619             0.00460285
     57.4419000             -0.0374080              0.0331990
     18.2859000             -0.1144870              0.1362820
      6.5991400              0.1156350              0.3304760
      2.4904900              0.6125950              0.4491460
      0.9445400              0.3937990              0.2657040
SP   3   1.00
      1.2779000             -0.2276060             -0.0175130
      0.3975900              0.00144583             0.2445330
      0.1600950              1.0927900              0.8049340
SP   1   1.00
      0.0556577              1.0000000              1.0000000
D    1   1.00
      0.6500000              1.0000000
D    1   1.00
      0.1625000              1.0000000
F    1   1.00
      0.2500000              1.0000000
****
Si     0
S    6   1.00
  16115.9000000              0.00195948
   2425.5800000              0.01492880
    553.8670000              0.07284780
    156.3400000              0.24613000
     50.0683000              0.48591400
     17.0178000              0.32500200
SP   6   1.00
    292.7180000             -0.00278094             0.00443826
     69.8731000             -0.03571460             0.03266790
     22.3363000             -0.11498500             0.13472100
      8.1503900              0.09356340             0.32867800
      3.1345800              0.60301700             0.44964000
      1.2254300              0.41895900             0.26137200
SP   3   1.00
      1.7273800             -0.24463000            -0.01779510
      0.5729220              0.00431572             0.25353900
      0.2221920              1.09818000             0.80066900
SP   1   1.00
      0.0778369              1.00000000             1.00000000
D    1   1.00
      0.9000000              1.0000000
D    1   1.00
      0.2250000              1.0000000
F    1   1.00
      0.3200000              1.0000000
****
P     0
S    6   1.00
  19413.3000000              0.0018516
   2909.4200000              0.0142062
    661.3640000              0.0699995
    185.7590000              0.2400790
     59.1943000              0.4847620
     20.0310000              0.3352000
SP   6   1.00
    339.4780000             -0.00278217             0.00456462
     81.0101000             -0.0360499              0.03369360
     25.8780000             -0.1166310              0.13975500
      9.4522100              0.0968328              0.33936200
      3.6656600              0.6144180              0.45092100
      1.4674600              0.4037980              0.23858600
SP   3   1.00
      2.1562300             -0.2529230             -0.01776530
      0.7489970              0.0328517              0.27405800
      0.2831450              1.0812500              0.78542100
SP   1   1.00
      0.0998317              1.0000000              1.00000000
D    1   1.00
      1.1000000              1.0000000
D    1   1.00
      0.2750000              1.0000000
F    1   1.00
      0.4500000              1.0000000
****
S     0
S    6   1.00
  21917.1000000              0.0018690
   3301.4900000              0.0142300
    754.1460000              0.0696960
    212.7110000              0.2384870
     67.9896000              0.4833070
     23.0515000              0.3380740
SP   6   1.00
    423.7350000             -0.0023767              0.0040610
    100.7100000             -0.0316930              0.0306810
     32.1599000             -0.1133170              0.1304520
     11.8079000              0.0560900              0.3272050
      4.6311000              0.5922550              0.4528510
      1.8702500              0.4550060              0.2560420
SP   3   1.00
      2.6158400             -0.2503740             -0.0145110
      0.9221670              0.0669570              0.3102630
      0.3412870              1.0545100              0.7544830
SP   1   1.00
      0.1171670              1.0000000              1.0000000
D    1   1.00
      1.3000000              1.0000000
D    1   1.00
      0.3250000              1.0000000
F    1   1.00
      0.5500000              1.0000000
****
Cl     0
S    6   1.00
  25180.1000000              0.0018330
   3780.3500000              0.0140340
    860.4740000              0.0690970
    242.1450000              0.2374520
     77.3349000              0.4830340
     26.2470000              0.3398560
SP   6   1.00
    491.7650000             -0.0022974              0.0039894
    116.9840000             -0.0307140              0.0303180
     37.4153000             -0.1125280              0.1298800
     13.7834000              0.0450160              0.3279510
      5.4521500              0.5893530              0.4535270
      2.2258800              0.4652060              0.2521540
SP   3   1.00
      3.1864900             -0.2518300             -0.0142990
      1.1442700              0.0615890              0.3235720
      0.4203770              1.0601800              0.7435070
SP   1   1.00
      0.1426570              1.0000000              1.0000000
D    1   1.00
      1.5000000              1.0000000
D    1   1.00
      0.3750000              1.0000000
F    1   1.00
      0.7000000              1.0000000
****
}

set {
reference uhf
freeze_core true
e_convergence 10
d_convergence 10
dft_spherical_points 1202
dft_radial_points 99
}

e = energy('b3lyp')

print_out('Grab this energy {0}'.format(e))
--------------------------------------------------------------------------

    Molecular point group: c1

    Geometry (in Bohr), charge = 0, multiplicity = 2:

       Center              X                  Y                   Z               Mass
    ------------   -----------------  -----------------  -----------------  -----------------
         C           -0.259947120403     0.804901015694    -0.000000016749    12.000000000000
         O           -2.189020724603    -0.337218830206     0.000000005851    15.994914619570
         C            2.407368732797    -0.241250053406     0.000000029051    12.000000000000
         H            2.387722932797    -2.311686121406     0.000000013051     1.007825032230
         H            3.392321446697     0.476149025994    -1.668397323749     1.007825032230
         H            3.392321801297     0.476149199294     1.668397071351     1.007825032230

  Charge       = 0
  Multiplicity = 2
  Basis Set: ANONYMOUS165F2A1C
    Blend: 6-31G_2DFP_
  Basis Set: (ANONYMOUS165F2A1C AUX)
    Blend: DEF2-UNIVERSAL-JKFIT

    Orbital Energies [Eh]
    ---------------------

    Alpha Occupied:

       1A    -19.186904     2A    -10.271526     3A    -10.211218
       4A     -1.081528     5A     -0.761495     6A     -0.543811
       7A     -0.466361     8A     -0.457366     9A     -0.455914
      10A     -0.387299    11A     -0.385708    12A     -0.192257

    Alpha Virtual:

      13A     -0.018896    14A      0.091173    15A      0.135968
      16A      0.140514    17A      0.218544    18A      0.268388
      19A      0.428147    20A      0.431712    21A      0.443664
      22A      0.493217    23A      0.505969    24A      0.529498
      25A      0.562020    26A      0.575728    27A      0.608515
      28A      0.615424    29A      0.643539    30A      0.717299
      31A      0.765816    32A      0.785320    33A      0.830895
      34A      0.917064    35A      0.926839    36A      0.935171
      37A      1.022726    38A      1.085098    39A      1.107320
      40A      1.152733    41A      1.220779    42A      1.306876
      43A      1.315584    44A      1.327578    45A      1.401950
      46A      1.405025    47A      1.466771    48A      1.559815
      49A      1.629366    50A      1.653697    51A      1.715788
      52A      1.811282    53A      1.833648    54A      1.900028
      55A      2.064158    56A      2.165808    57A      2.496019
      58A      2.679587    59A      2.744221    60A      2.781478
      61A      2.840178    62A      2.893244    63A      2.972583
      64A      3.031674    65A      3.059209    66A      3.104905
      67A      3.115191    68A      3.183004    69A      3.314504
      70A      3.370811    71A      3.395763    72A      3.440166
      73A      3.465975    74A      3.486652    75A      3.567279
      76A      3.739986    77A      3.762484    78A      3.940203
      79A      3.980626    80A      4.055419    81A      4.106840
      82A      4.115043    83A      4.185983    84A      4.382725
      85A      4.432066    86A      4.442632    87A      4.530036
      88A      4.913966    89A      5.036644    90A      5.042222
      91A      5.189778    92A      5.198265    93A      5.474225
      94A      5.482491    95A      5.826444    96A      5.930858
      97A      6.104768    98A      6.770718    99A      6.772873
     100A      7.070909   101A      7.135158   102A      7.530183

    Beta Occupied:

       1A    -19.178827     2A    -10.261468     3A    -10.207844
       4A     -1.065587     5A     -0.749653     6A     -0.524167
       7A     -0.451335     8A     -0.446309     9A     -0.438981
      10A     -0.382160    11A     -0.347714

    Beta Virtual:

      12A     -0.052805    13A     -0.002642    14A      0.093878
      15A      0.141758    16A      0.143678    17A      0.228908
      18A      0.274067    19A      0.433676    20A      0.435151
      21A      0.465967    22A      0.499893    23A      0.527226
      24A      0.538319    25A      0.568305    26A      0.579904
      27A      0.622698    28A      0.627095    29A      0.649320
      30A      0.739301    31A      0.776939    32A      0.795283
      33A      0.831680    34A      0.921920    35A      0.943018
      36A      0.950726    37A      1.026919    38A      1.091221
      39A      1.109392    40A      1.158952    41A      1.229985
      42A      1.312385    43A      1.318450    44A      1.334398
      45A      1.410481    46A      1.412389    47A      1.479158
      48A      1.570986    49A      1.642494    50A      1.668122
      51A      1.721971    52A      1.814429    53A      1.847966
      54A      1.906774    55A      2.070860    56A      2.187229
      57A      2.508682    58A      2.693833    59A      2.758639
      60A      2.802540    61A      2.855460    62A      2.894897
      63A      2.982200    64A      3.048385    65A      3.067832
      66A      3.123569    67A      3.123681    68A      3.217741
      69A      3.358136    70A      3.382263    71A      3.401968
      72A      3.448183    73A      3.481873    74A      3.509277
      75A      3.580849    76A      3.765618    77A      3.771778
      78A      3.949006    79A      3.989882    80A      4.071791
      81A      4.117891    82A      4.121185    83A      4.198026
      84A      4.384895    85A      4.438315    86A      4.446921
      87A      4.541027    88A      4.917795    89A      5.054135
      90A      5.060266    91A      5.191896    92A      5.204108
      93A      5.486875    94A      5.496442    95A      5.839699
      96A      5.936450    97A      6.127996    98A      6.800050
      99A      6.802547   100A      7.075214   101A      7.164570
     102A      7.541858

    Final Occupation by Irrep:
              A
    DOCC [    11 ]
    SOCC [     1 ]

  @DF-UKS Final Energy:  -153.18846194005366

   => Energetics <=

    Nuclear Repulsion Energy =             62.7816667759399891
    One-Electron Energy =                -331.5662808179582157
    Two-Electron Energy =                 132.1743536620282953
    DFT Exchange-Correlation Energy =     -16.5782015600637287
    Empirical Dispersion Energy =           0.0000000000000000
    VV10 Nonlocal Energy =                  0.0000000000000000
    Total Energy =                       -153.1884619400536565

  UHF NO Occupations:
  HONO-2 :   10  A 1.9997851
  HONO-1 :   11  A 1.9992003
  HONO-0 :   12  A 1.0000000
  LUNO+0 :   13  A 0.0007997
  LUNO+1 :   14  A 0.0002149
  LUNO+2 :   15  A 0.0001794
  LUNO+3 :   16  A 0.0000616

Computation Completed

Properties will be evaluated at   0.000000,   0.000000,   0.000000 [a0]

Properties computed using the SCF density matrix

  Nuclear Dipole Moment: [e a0]
     X:     4.5447      Y:    -0.6752      Z:    -0.0000

  Electronic Dipole Moment: [e a0]
     X:    -3.6143      Y:     0.6272      Z:     0.0000

  Dipole Moment: [e a0]
     X:     0.9304      Y:    -0.0481      Z:    -0.0000     Total:     0.9317

  Dipole Moment: [D]
     X:     2.3649      Y:    -0.1222      Z:    -0.0000     Total:     2.3681

*** tstop() called on n080 at Thu Nov  4 14:46:47 2021
Module time:
	user time   =      44.42 seconds =       0.74 minutes
	system time =       0.56 seconds =       0.01 minutes
	total time  =         45 seconds =       0.75 minutes
Total time:
	user time   =      44.42 seconds =       0.74 minutes
	system time =       0.56 seconds =       0.01 minutes
	total time  =         45 seconds =       0.75 minutes
Grab this energy -153.18846194005366
    Psi4 stopped on: Thursday, 04 November 2021 02:46PM
    Psi4 wall time for execution: 0:00:45.02

*** Psi4 exiting successfully. Buy a developer a beer!
