                               Psi4 1.4a2.dev629

  ==> Input File <==

--------------------------------------------------------------------------
import os
memory 14 GB

molecule {
 C   -0.2595645951    0.8058262892    0.0004718614
 O   -2.1902663248   -0.3329024582   -0.0001005724
 C    2.4089123553   -0.2452816493    0.0015382672
 H    2.3821753101   -2.3152546773    0.0043314768
 H    3.3938048218    0.4748620026   -1.6717501719
 H    3.3895764149    0.4671161409    1.6655091389
units bohr
0 2
}

basis {

assign 6-31g_2dfp_

[ 6-31g_2dfp_ ]

spherical

!----------------------------------------------------------------------
! Basis Set Exchange
! Version v0.8.13
! https://www.basissetexchange.org
!----------------------------------------------------------------------
!   Basis set: 6-31G(2df,p)
! Description: 6-31G(2df,p)
!        Role: orbital
!     Version: 0  (Data from the original Basis Set Exchange)
!----------------------------------------------------------------------

****
H     0
S    3   1.00
     18.7311370              0.03349460
      2.8253937              0.23472695
      0.6401217              0.81375733
S    1   1.00
      0.1612778              1.00000000
P    1   1.00
      1.5000000              1.0000000
P    1   1.00
      0.3750000              1.0000000
****
B     0
S    6   1.00
   2068.8823000              0.0018663
    310.6495700              0.0142515
     70.6830330              0.0695516
     19.8610800              0.2325729
      6.2993048              0.4670787
      2.1270270              0.3634314
SP   3   1.00
      4.7279710             -0.1303938              0.0745976
      1.1903377             -0.1307889              0.3078467
      0.3594117              1.1309444              0.7434568
SP   1   1.00
      0.1267512              1.0000000              1.0000000
D    1   1.00
      0.8020000              1.0000000
D    1   1.00
      0.2005000              1.0000000
F    1   1.00
      0.5000000              1.0000000
****
C     0
S    6   1.00
   3047.5249000              0.0018347
    457.3695100              0.0140373
    103.9486900              0.0688426
     29.2101550              0.2321844
      9.2866630              0.4679413
      3.1639270              0.3623120
SP   3   1.00
      7.8682724             -0.1193324              0.0689991
      1.8812885             -0.1608542              0.3164240
      0.5442493              1.1434564              0.7443083
SP   1   1.00
      0.1687144              1.0000000              1.0000000
D    1   1.00
      1.2520000              1.0000000
D    1   1.00
      0.3130000              1.0000000
F    1   1.00
      0.8000000              1.0000000
****
N     0
S    6   1.00
   4173.5110000              0.0018348
    627.4579000              0.0139950
    142.9021000              0.0685870
     40.2343300              0.2322410
     12.8202100              0.4690700
      4.3904370              0.3604550
SP   3   1.00
     11.6263580             -0.1149610              0.0675800
      2.7162800             -0.1691180              0.3239070
      0.7722180              1.1458520              0.7408950
SP   1   1.00
      0.2120313              1.0000000              1.0000000
D    1   1.00
      1.8260000              1.0000000
D    1   1.00
      0.4565000              1.0000000
F    1   1.00
      1.0000000              1.0000000
****
O     0
S    6   1.00
   5484.6717000              0.0018311
    825.2349500              0.0139501
    188.0469600              0.0684451
     52.9645000              0.2327143
     16.8975700              0.4701930
      5.7996353              0.3585209
SP   3   1.00
     15.5396160             -0.1107775              0.0708743
      3.5999336             -0.1480263              0.3397528
      1.0137618              1.1307670              0.7271586
SP   1   1.00
      0.2700058              1.0000000              1.0000000
D    1   1.00
      2.5840000              1.0000000
D    1   1.00
      0.6460000              1.0000000
F    1   1.00
      1.4000000              1.0000000
****
F     0
S    6   1.00
   7001.7130900              0.0018196169
   1051.3660900              0.0139160796
    239.2856900              0.0684053245
     67.3974453              0.233185760
     21.5199573              0.471267439
      7.40310130             0.356618546
SP   3   1.00
     20.8479528             -0.108506975            0.0716287243
      4.80830834            -0.146451658            0.3459121030
      1.34406986             1.128688580            0.7224699570
SP   1   1.00
      0.358151393            1.0000000              1.0000000
D    1   1.00
      3.5000000              1.0000000
D    1   1.00
      0.8750000              1.0000000
F    1   1.00
      1.8500000              1.0000000
****
Al     0
S    6   1.00
  13983.1000000              0.00194267
   2098.7500000              0.0148599
    477.7050000              0.0728494
    134.3600000              0.2468300
     42.8709000              0.4872580
     14.5189000              0.3234960
SP   6   1.00
    239.6680000             -0.00292619             0.00460285
     57.4419000             -0.0374080              0.0331990
     18.2859000             -0.1144870              0.1362820
      6.5991400              0.1156350              0.3304760
      2.4904900              0.6125950              0.4491460
      0.9445400              0.3937990              0.2657040
SP   3   1.00
      1.2779000             -0.2276060             -0.0175130
      0.3975900              0.00144583             0.2445330
      0.1600950              1.0927900              0.8049340
SP   1   1.00
      0.0556577              1.0000000              1.0000000
D    1   1.00
      0.6500000              1.0000000
D    1   1.00
      0.1625000              1.0000000
F    1   1.00
      0.2500000              1.0000000
****
Si     0
S    6   1.00
  16115.9000000              0.00195948
   2425.5800000              0.01492880
    553.8670000              0.07284780
    156.3400000              0.24613000
     50.0683000              0.48591400
     17.0178000              0.32500200
SP   6   1.00
    292.7180000             -0.00278094             0.00443826
     69.8731000             -0.03571460             0.03266790
     22.3363000             -0.11498500             0.13472100
      8.1503900              0.09356340             0.32867800
      3.1345800              0.60301700             0.44964000
      1.2254300              0.41895900             0.26137200
SP   3   1.00
      1.7273800             -0.24463000            -0.01779510
      0.5729220              0.00431572             0.25353900
      0.2221920              1.09818000             0.80066900
SP   1   1.00
      0.0778369              1.00000000             1.00000000
D    1   1.00
      0.9000000              1.0000000
D    1   1.00
      0.2250000              1.0000000
F    1   1.00
      0.3200000              1.0000000
****
P     0
S    6   1.00
  19413.3000000              0.0018516
   2909.4200000              0.0142062
    661.3640000              0.0699995
    185.7590000              0.2400790
     59.1943000              0.4847620
     20.0310000              0.3352000
SP   6   1.00
    339.4780000             -0.00278217             0.00456462
     81.0101000             -0.0360499              0.03369360
     25.8780000             -0.1166310              0.13975500
      9.4522100              0.0968328              0.33936200
      3.6656600              0.6144180              0.45092100
      1.4674600              0.4037980              0.23858600
SP   3   1.00
      2.1562300             -0.2529230             -0.01776530
      0.7489970              0.0328517              0.27405800
      0.2831450              1.0812500              0.78542100
SP   1   1.00
      0.0998317              1.0000000              1.00000000
D    1   1.00
      1.1000000              1.0000000
D    1   1.00
      0.2750000              1.0000000
F    1   1.00
      0.4500000              1.0000000
****
S     0
S    6   1.00
  21917.1000000              0.0018690
   3301.4900000              0.0142300
    754.1460000              0.0696960
    212.7110000              0.2384870
     67.9896000              0.4833070
     23.0515000              0.3380740
SP   6   1.00
    423.7350000             -0.0023767              0.0040610
    100.7100000             -0.0316930              0.0306810
     32.1599000             -0.1133170              0.1304520
     11.8079000              0.0560900              0.3272050
      4.6311000              0.5922550              0.4528510
      1.8702500              0.4550060              0.2560420
SP   3   1.00
      2.6158400             -0.2503740             -0.0145110
      0.9221670              0.0669570              0.3102630
      0.3412870              1.0545100              0.7544830
SP   1   1.00
      0.1171670              1.0000000              1.0000000
D    1   1.00
      1.3000000              1.0000000
D    1   1.00
      0.3250000              1.0000000
F    1   1.00
      0.5500000              1.0000000
****
Cl     0
S    6   1.00
  25180.1000000              0.0018330
   3780.3500000              0.0140340
    860.4740000              0.0690970
    242.1450000              0.2374520
     77.3349000              0.4830340
     26.2470000              0.3398560
SP   6   1.00
    491.7650000             -0.0022974              0.0039894
    116.9840000             -0.0307140              0.0303180
     37.4153000             -0.1125280              0.1298800
     13.7834000              0.0450160              0.3279510
      5.4521500              0.5893530              0.4535270
      2.2258800              0.4652060              0.2521540
SP   3   1.00
      3.1864900             -0.2518300             -0.0142990
      1.1442700              0.0615890              0.3235720
      0.4203770              1.0601800              0.7435070
SP   1   1.00
      0.1426570              1.0000000              1.0000000
D    1   1.00
      1.5000000              1.0000000
D    1   1.00
      0.3750000              1.0000000
F    1   1.00
      0.7000000              1.0000000
****
}

set {
reference uhf
freeze_core true
e_convergence 10
d_convergence 10
dft_spherical_points 1202
dft_radial_points 99
}

e = energy('b3lyp')

print_out('Grab this energy {0}'.format(e))
--------------------------------------------------------------------------

    Molecular point group: c1

    Geometry (in Bohr), charge = 0, multiplicity = 2:

       Center              X                  Y                   Z               Mass
    ------------   -----------------  -----------------  -----------------  -----------------
         C           -0.259479226616     0.805413284054    -0.000006733867    12.000000000000
         O           -2.190180956316    -0.333315463346    -0.000579167667    15.994914619570
         C            2.408997723784    -0.245694654446     0.001059671933    12.000000000000
         H            2.382260678584    -2.315667682446     0.003852881533     1.007825032230
         H            3.393890190284     0.474448997454    -1.672228767167     1.007825032230
         H            3.389661783384     0.466703135754     1.665030543633     1.007825032230

  Charge       = 0
  Multiplicity = 2
  Basis Set: ANONYMOUS2DFEC41E
    Blend: 6-31G_2DFP_
  Basis Set: (ANONYMOUS2DFEC41E AUX)
    Blend: DEF2-UNIVERSAL-JKFIT

    Orbital Energies [Eh]
    ---------------------

    Alpha Occupied:

       1A    -19.186931     2A    -10.271545     3A    -10.211159
       4A     -1.081618     5A     -0.761352     6A     -0.543670
       7A     -0.466349     8A     -0.457239     9A     -0.455992
      10A     -0.387501    11A     -0.385838    12A     -0.192166

    Alpha Virtual:

      13A     -0.018791    14A      0.091247    15A      0.136043
      16A      0.140661    17A      0.217976    18A      0.268323
      19A      0.428061    20A      0.431686    21A      0.443560
      22A      0.493266    23A      0.506075    24A      0.529657
      25A      0.562387    26A      0.575904    27A      0.608503
      28A      0.615412    29A      0.643448    30A      0.717354
      31A      0.765882    32A      0.785360    33A      0.830805
      34A      0.917035    35A      0.926850    36A      0.935177
      37A      1.022800    38A      1.085046    39A      1.106519
      40A      1.152815    41A      1.220822    42A      1.306343
      43A      1.315235    44A      1.327084    45A      1.402432
      46A      1.406057    47A      1.467004    48A      1.559621
      49A      1.629429    50A      1.653787    51A      1.716796
      52A      1.811382    53A      1.833473    54A      1.899078
      55A      2.064427    56A      2.165875    57A      2.496203
      58A      2.679632    59A      2.743783    60A      2.781779
      61A      2.840396    62A      2.893383    63A      2.972402
      64A      3.031783    65A      3.059170    66A      3.104850
      67A      3.114462    68A      3.182941    69A      3.314132
      70A      3.371297    71A      3.395643    72A      3.440250
      73A      3.465668    74A      3.486527    75A      3.568749
      76A      3.740033    77A      3.760834    78A      3.938943
      79A      3.980676    80A      4.054986    81A      4.106361
      82A      4.114418    83A      4.185012    84A      4.385010
      85A      4.432191    86A      4.443369    87A      4.528055
      88A      4.916386    89A      5.036688    90A      5.042178
      91A      5.188243    92A      5.200572    93A      5.474318
      94A      5.482343    95A      5.826267    96A      5.931011
      97A      6.104440    98A      6.770660    99A      6.772832
     100A      7.070664   101A      7.135087   102A      7.530192

    Beta Occupied:

       1A    -19.178863     2A    -10.261493     3A    -10.207773
       4A     -1.065695     5A     -0.749509     6A     -0.524008
       7A     -0.451460     8A     -0.446301     9A     -0.438842
      10A     -0.382346    11A     -0.347844

    Beta Virtual:

      12A     -0.052771    13A     -0.002533    14A      0.093966
      15A      0.141780    16A      0.143817    17A      0.228423
      18A      0.274003    19A      0.433587    20A      0.435279
      21A      0.465670    22A      0.499941    23A      0.527378
      24A      0.538529    25A      0.568699    26A      0.580092
      27A      0.622658    28A      0.627037    29A      0.649224
      30A      0.739361    31A      0.777012    32A      0.795315
      33A      0.831584    34A      0.921890    35A      0.943046
      36A      0.950704    37A      1.026997    38A      1.091231
      39A      1.108581    40A      1.159034    41A      1.230040
      42A      1.311818    43A      1.318079    44A      1.333910
      45A      1.411420    46A      1.412946    47A      1.479354
      48A      1.570814    49A      1.642598    50A      1.668200
      51A      1.722963    52A      1.814565    53A      1.847723
      54A      1.905804    55A      2.071127    56A      2.187274
      57A      2.508868    58A      2.693896    59A      2.758193
      60A      2.802839    61A      2.855681    62A      2.895032
      63A      2.981976    64A      3.048578    65A      3.067845
      66A      3.122362    67A      3.124042    68A      3.217674
      69A      3.357725    70A      3.382793    71A      3.401956
      72A      3.448417    73A      3.481417    74A      3.509273
      75A      3.582166    76A      3.765652    77A      3.770161
      78A      3.947755    79A      3.989952    80A      4.071350
      81A      4.117095    82A      4.120752    83A      4.197178
      84A      4.387252    85A      4.438395    86A      4.447605
      87A      4.538994    88A      4.920248    89A      5.054151
      90A      5.060200    91A      5.190928    92A      5.205813
      93A      5.486958    94A      5.496286    95A      5.839510
      96A      5.936599    97A      6.127645    98A      6.799961
      99A      6.802474   100A      7.074963   101A      7.164468
     102A      7.541857

    Final Occupation by Irrep:
              A
    DOCC [    11 ]
    SOCC [     1 ]

  @DF-UKS Final Energy:  -153.18844065378627

   => Energetics <=

    Nuclear Repulsion Energy =             62.7710576394522448
    One-Electron Energy =                -331.5448724285311073
    Two-Electron Energy =                 132.1636850513322088
    DFT Exchange-Correlation Energy =     -16.5783109160396016
    Empirical Dispersion Energy =           0.0000000000000000
    VV10 Nonlocal Energy =                  0.0000000000000000
    Total Energy =                       -153.1884406537862731

  UHF NO Occupations:
  HONO-2 :   10  A 1.9997834
  HONO-1 :   11  A 1.9992019
  HONO-0 :   12  A 1.0000000
  LUNO+0 :   13  A 0.0007981
  LUNO+1 :   14  A 0.0002166
  LUNO+2 :   15  A 0.0001793
  LUNO+3 :   16  A 0.0000615

Computation Completed

Properties will be evaluated at   0.000000,   0.000000,   0.000000 [a0]

Properties computed using the SCF density matrix

  Nuclear Dipole Moment: [e a0]
     X:     4.5415      Y:    -0.6827      Z:    -0.0017

  Electronic Dipole Moment: [e a0]
     X:    -3.6122      Y:     0.6329      Z:     0.0026

  Dipole Moment: [e a0]
     X:     0.9293      Y:    -0.0498      Z:     0.0010     Total:     0.9307

  Dipole Moment: [D]
     X:     2.3621      Y:    -0.1265      Z:     0.0025     Total:     2.3655

*** tstop() called on n062 at Tue Mar 15 10:35:09 2022
Module time:
	user time   =      50.91 seconds =       0.85 minutes
	system time =       0.51 seconds =       0.01 minutes
	total time  =         52 seconds =       0.87 minutes
Total time:
	user time   =      50.91 seconds =       0.85 minutes
	system time =       0.51 seconds =       0.01 minutes
	total time  =         52 seconds =       0.87 minutes
Grab this energy -153.18844065378627
    Psi4 stopped on: Tuesday, 15 March 2022 10:35AM
    Psi4 wall time for execution: 0:00:51.45

*** Psi4 exiting successfully. Buy a developer a beer!
