                               Psi4 1.4a2.dev629

  ==> Input File <==

--------------------------------------------------------------------------
import os
memory 14 GB

molecule {
 C   -0.2609511619    0.8053715552    0.0004718626
 O   -2.1896874471   -0.3366809713   -0.0001005820
 C    2.4093271811   -0.2411215317    0.0015382857
 H    2.3861653187   -2.3111305100    0.0043315042
 H    3.3929793531    0.4807245382   -1.6717428689
 H    3.3887647061    0.4729715397    1.6655016184
units bohr
0 2
}

basis {

assign 6-31g_2dfp_

[ 6-31g_2dfp_ ]

spherical

!----------------------------------------------------------------------
! Basis Set Exchange
! Version v0.8.13
! https://www.basissetexchange.org
!----------------------------------------------------------------------
!   Basis set: 6-31G(2df,p)
! Description: 6-31G(2df,p)
!        Role: orbital
!     Version: 0  (Data from the original Basis Set Exchange)
!----------------------------------------------------------------------

****
H     0
S    3   1.00
     18.7311370              0.03349460
      2.8253937              0.23472695
      0.6401217              0.81375733
S    1   1.00
      0.1612778              1.00000000
P    1   1.00
      1.5000000              1.0000000
P    1   1.00
      0.3750000              1.0000000
****
B     0
S    6   1.00
   2068.8823000              0.0018663
    310.6495700              0.0142515
     70.6830330              0.0695516
     19.8610800              0.2325729
      6.2993048              0.4670787
      2.1270270              0.3634314
SP   3   1.00
      4.7279710             -0.1303938              0.0745976
      1.1903377             -0.1307889              0.3078467
      0.3594117              1.1309444              0.7434568
SP   1   1.00
      0.1267512              1.0000000              1.0000000
D    1   1.00
      0.8020000              1.0000000
D    1   1.00
      0.2005000              1.0000000
F    1   1.00
      0.5000000              1.0000000
****
C     0
S    6   1.00
   3047.5249000              0.0018347
    457.3695100              0.0140373
    103.9486900              0.0688426
     29.2101550              0.2321844
      9.2866630              0.4679413
      3.1639270              0.3623120
SP   3   1.00
      7.8682724             -0.1193324              0.0689991
      1.8812885             -0.1608542              0.3164240
      0.5442493              1.1434564              0.7443083
SP   1   1.00
      0.1687144              1.0000000              1.0000000
D    1   1.00
      1.2520000              1.0000000
D    1   1.00
      0.3130000              1.0000000
F    1   1.00
      0.8000000              1.0000000
****
N     0
S    6   1.00
   4173.5110000              0.0018348
    627.4579000              0.0139950
    142.9021000              0.0685870
     40.2343300              0.2322410
     12.8202100              0.4690700
      4.3904370              0.3604550
SP   3   1.00
     11.6263580             -0.1149610              0.0675800
      2.7162800             -0.1691180              0.3239070
      0.7722180              1.1458520              0.7408950
SP   1   1.00
      0.2120313              1.0000000              1.0000000
D    1   1.00
      1.8260000              1.0000000
D    1   1.00
      0.4565000              1.0000000
F    1   1.00
      1.0000000              1.0000000
****
O     0
S    6   1.00
   5484.6717000              0.0018311
    825.2349500              0.0139501
    188.0469600              0.0684451
     52.9645000              0.2327143
     16.8975700              0.4701930
      5.7996353              0.3585209
SP   3   1.00
     15.5396160             -0.1107775              0.0708743
      3.5999336             -0.1480263              0.3397528
      1.0137618              1.1307670              0.7271586
SP   1   1.00
      0.2700058              1.0000000              1.0000000
D    1   1.00
      2.5840000              1.0000000
D    1   1.00
      0.6460000              1.0000000
F    1   1.00
      1.4000000              1.0000000
****
F     0
S    6   1.00
   7001.7130900              0.0018196169
   1051.3660900              0.0139160796
    239.2856900              0.0684053245
     67.3974453              0.233185760
     21.5199573              0.471267439
      7.40310130             0.356618546
SP   3   1.00
     20.8479528             -0.108506975            0.0716287243
      4.80830834            -0.146451658            0.3459121030
      1.34406986             1.128688580            0.7224699570
SP   1   1.00
      0.358151393            1.0000000              1.0000000
D    1   1.00
      3.5000000              1.0000000
D    1   1.00
      0.8750000              1.0000000
F    1   1.00
      1.8500000              1.0000000
****
Al     0
S    6   1.00
  13983.1000000              0.00194267
   2098.7500000              0.0148599
    477.7050000              0.0728494
    134.3600000              0.2468300
     42.8709000              0.4872580
     14.5189000              0.3234960
SP   6   1.00
    239.6680000             -0.00292619             0.00460285
     57.4419000             -0.0374080              0.0331990
     18.2859000             -0.1144870              0.1362820
      6.5991400              0.1156350              0.3304760
      2.4904900              0.6125950              0.4491460
      0.9445400              0.3937990              0.2657040
SP   3   1.00
      1.2779000             -0.2276060             -0.0175130
      0.3975900              0.00144583             0.2445330
      0.1600950              1.0927900              0.8049340
SP   1   1.00
      0.0556577              1.0000000              1.0000000
D    1   1.00
      0.6500000              1.0000000
D    1   1.00
      0.1625000              1.0000000
F    1   1.00
      0.2500000              1.0000000
****
Si     0
S    6   1.00
  16115.9000000              0.00195948
   2425.5800000              0.01492880
    553.8670000              0.07284780
    156.3400000              0.24613000
     50.0683000              0.48591400
     17.0178000              0.32500200
SP   6   1.00
    292.7180000             -0.00278094             0.00443826
     69.8731000             -0.03571460             0.03266790
     22.3363000             -0.11498500             0.13472100
      8.1503900              0.09356340             0.32867800
      3.1345800              0.60301700             0.44964000
      1.2254300              0.41895900             0.26137200
SP   3   1.00
      1.7273800             -0.24463000            -0.01779510
      0.5729220              0.00431572             0.25353900
      0.2221920              1.09818000             0.80066900
SP   1   1.00
      0.0778369              1.00000000             1.00000000
D    1   1.00
      0.9000000              1.0000000
D    1   1.00
      0.2250000              1.0000000
F    1   1.00
      0.3200000              1.0000000
****
P     0
S    6   1.00
  19413.3000000              0.0018516
   2909.4200000              0.0142062
    661.3640000              0.0699995
    185.7590000              0.2400790
     59.1943000              0.4847620
     20.0310000              0.3352000
SP   6   1.00
    339.4780000             -0.00278217             0.00456462
     81.0101000             -0.0360499              0.03369360
     25.8780000             -0.1166310              0.13975500
      9.4522100              0.0968328              0.33936200
      3.6656600              0.6144180              0.45092100
      1.4674600              0.4037980              0.23858600
SP   3   1.00
      2.1562300             -0.2529230             -0.01776530
      0.7489970              0.0328517              0.27405800
      0.2831450              1.0812500              0.78542100
SP   1   1.00
      0.0998317              1.0000000              1.00000000
D    1   1.00
      1.1000000              1.0000000
D    1   1.00
      0.2750000              1.0000000
F    1   1.00
      0.4500000              1.0000000
****
S     0
S    6   1.00
  21917.1000000              0.0018690
   3301.4900000              0.0142300
    754.1460000              0.0696960
    212.7110000              0.2384870
     67.9896000              0.4833070
     23.0515000              0.3380740
SP   6   1.00
    423.7350000             -0.0023767              0.0040610
    100.7100000             -0.0316930              0.0306810
     32.1599000             -0.1133170              0.1304520
     11.8079000              0.0560900              0.3272050
      4.6311000              0.5922550              0.4528510
      1.8702500              0.4550060              0.2560420
SP   3   1.00
      2.6158400             -0.2503740             -0.0145110
      0.9221670              0.0669570              0.3102630
      0.3412870              1.0545100              0.7544830
SP   1   1.00
      0.1171670              1.0000000              1.0000000
D    1   1.00
      1.3000000              1.0000000
D    1   1.00
      0.3250000              1.0000000
F    1   1.00
      0.5500000              1.0000000
****
Cl     0
S    6   1.00
  25180.1000000              0.0018330
   3780.3500000              0.0140340
    860.4740000              0.0690970
    242.1450000              0.2374520
     77.3349000              0.4830340
     26.2470000              0.3398560
SP   6   1.00
    491.7650000             -0.0022974              0.0039894
    116.9840000             -0.0307140              0.0303180
     37.4153000             -0.1125280              0.1298800
     13.7834000              0.0450160              0.3279510
      5.4521500              0.5893530              0.4535270
      2.2258800              0.4652060              0.2521540
SP   3   1.00
      3.1864900             -0.2518300             -0.0142990
      1.1442700              0.0615890              0.3235720
      0.4203770              1.0601800              0.7435070
SP   1   1.00
      0.1426570              1.0000000              1.0000000
D    1   1.00
      1.5000000              1.0000000
D    1   1.00
      0.3750000              1.0000000
F    1   1.00
      0.7000000              1.0000000
****
}

set {
reference uhf
freeze_core true
e_convergence 10
d_convergence 10
dft_spherical_points 1202
dft_radial_points 99
}

e = energy('b3lyp')

print_out('Grab this energy {0}'.format(e))
--------------------------------------------------------------------------

    Molecular point group: c1

    Geometry (in Bohr), charge = 0, multiplicity = 2:

       Center              X                  Y                   Z               Mass
    ------------   -----------------  -----------------  -----------------  -----------------
         C           -0.260865083242     0.804958697074    -0.000006730139    12.000000000000
         O           -2.189601368442    -0.337093829426    -0.000579174739    15.994914619570
         C            2.409413259758    -0.241534389826     0.001059692961    12.000000000000
         H            2.386251397358    -2.311543368126     0.003852911461     1.007825032230
         H            3.393065431758     0.480311680074    -1.672221461639     1.007825032230
         H            3.388850784758     0.472558681574     1.665023025661     1.007825032230

  Charge       = 0
  Multiplicity = 2
  Basis Set: ANONYMOUSE2A562C6
    Blend: 6-31G_2DFP_
  Basis Set: (ANONYMOUSE2A562C6 AUX)
    Blend: DEF2-UNIVERSAL-JKFIT

    Orbital Energies [Eh]
    ---------------------

    Alpha Occupied:

       1A    -19.186931     2A    -10.271544     3A    -10.211158
       4A     -1.081618     5A     -0.761353     6A     -0.543671
       7A     -0.466350     8A     -0.457240     9A     -0.455992
      10A     -0.387501    11A     -0.385839    12A     -0.192166

    Alpha Virtual:

      13A     -0.018791    14A      0.091248    15A      0.136044
      16A      0.140661    17A      0.217978    18A      0.268323
      19A      0.428061    20A      0.431686    21A      0.443561
      22A      0.493266    23A      0.506074    24A      0.529658
      25A      0.562387    26A      0.575905    27A      0.608504
      28A      0.615413    29A      0.643449    30A      0.717354
      31A      0.765882    32A      0.785361    33A      0.830806
      34A      0.917036    35A      0.926851    36A      0.935177
      37A      1.022802    38A      1.085046    39A      1.106522
      40A      1.152816    41A      1.220823    42A      1.306345
      43A      1.315235    44A      1.327087    45A      1.402434
      46A      1.406058    47A      1.467006    48A      1.559623
      49A      1.629432    50A      1.653787    51A      1.716798
      52A      1.811383    53A      1.833476    54A      1.899082
      55A      2.064430    56A      2.165879    57A      2.496203
      58A      2.679633    59A      2.743785    60A      2.781781
      61A      2.840398    62A      2.893383    63A      2.972405
      64A      3.031781    65A      3.059170    66A      3.104849
      67A      3.114465    68A      3.182940    69A      3.314132
      70A      3.371296    71A      3.395638    72A      3.440253
      73A      3.465670    74A      3.486527    75A      3.568748
      76A      3.740036    77A      3.760842    78A      3.938949
      79A      3.980682    80A      4.054992    81A      4.106370
      82A      4.114422    83A      4.185019    84A      4.385009
      85A      4.432198    86A      4.443378    87A      4.528064
      88A      4.916386    89A      5.036689    90A      5.042178
      91A      5.188251    92A      5.200579    93A      5.474320
      94A      5.482347    95A      5.826269    96A      5.931013
      97A      6.104445    98A      6.770661    99A      6.772833
     100A      7.070665   101A      7.135087   102A      7.530193

    Beta Occupied:

       1A    -19.178863     2A    -10.261493     3A    -10.207773
       4A     -1.065695     5A     -0.749510     6A     -0.524008
       7A     -0.451460     8A     -0.446302     9A     -0.438843
      10A     -0.382346    11A     -0.347844

    Beta Virtual:

      12A     -0.052770    13A     -0.002532    14A      0.093966
      15A      0.141781    16A      0.143818    17A      0.228425
      18A      0.274003    19A      0.433587    20A      0.435278
      21A      0.465672    22A      0.499942    23A      0.527378
      24A      0.538529    25A      0.568699    26A      0.580093
      27A      0.622659    28A      0.627038    29A      0.649225
      30A      0.739361    31A      0.777012    32A      0.795315
      33A      0.831585    34A      0.921891    35A      0.943046
      36A      0.950704    37A      1.026999    38A      1.091231
      39A      1.108584    40A      1.159035    41A      1.230041
      42A      1.311820    43A      1.318079    44A      1.333912
      45A      1.411421    46A      1.412948    47A      1.479357
      48A      1.570815    49A      1.642601    50A      1.668200
      51A      1.722966    52A      1.814567    53A      1.847726
      54A      1.905808    55A      2.071130    56A      2.187278
      57A      2.508869    58A      2.693897    59A      2.758195
      60A      2.802841    61A      2.855683    62A      2.895032
      63A      2.981979    64A      3.048577    65A      3.067845
      66A      3.122364    67A      3.124043    68A      3.217673
      69A      3.357726    70A      3.382791    71A      3.401951
      72A      3.448419    73A      3.481419    74A      3.509273
      75A      3.582165    76A      3.765655    77A      3.770168
      78A      3.947761    79A      3.989958    80A      4.071356
      81A      4.117100    82A      4.120760    83A      4.197184
      84A      4.387251    85A      4.438402    86A      4.447613
      87A      4.539004    88A      4.920248    89A      5.054152
      90A      5.060201    91A      5.190937    92A      5.205820
      93A      5.486960    94A      5.496289    95A      5.839511
      96A      5.936601    97A      6.127649    98A      6.799961
      99A      6.802475   100A      7.074964   101A      7.164468
     102A      7.541858

    Final Occupation by Irrep:
              A
    DOCC [    11 ]
    SOCC [     1 ]

  @DF-UKS Final Energy:  -153.18844069193577

   => Energetics <=

    Nuclear Repulsion Energy =             62.7711639490591295
    One-Electron Energy =                -331.5450795943947924
    Two-Electron Energy =                 132.1637899284649222
    DFT Exchange-Correlation Energy =     -16.5783149750650303
    Empirical Dispersion Energy =           0.0000000000000000
    VV10 Nonlocal Energy =                  0.0000000000000000
    Total Energy =                       -153.1884406919357673

  UHF NO Occupations:
  HONO-2 :   10  A 1.9997834
  HONO-1 :   11  A 1.9992019
  HONO-0 :   12  A 1.0000000
  LUNO+0 :   13  A 0.0007981
  LUNO+1 :   14  A 0.0002166
  LUNO+2 :   15  A 0.0001793
  LUNO+3 :   16  A 0.0000615

Computation Completed

Properties will be evaluated at   0.000000,   0.000000,   0.000000 [a0]

Properties computed using the SCF density matrix

  Nuclear Dipole Moment: [e a0]
     X:     4.5426      Y:    -0.6749      Z:    -0.0017

  Electronic Dipole Moment: [e a0]
     X:    -3.6132      Y:     0.6267      Z:     0.0026

  Dipole Moment: [e a0]
     X:     0.9294      Y:    -0.0482      Z:     0.0010     Total:     0.9307

  Dipole Moment: [D]
     X:     2.3623      Y:    -0.1224      Z:     0.0025     Total:     2.3655

*** tstop() called on n058 at Thu Nov  4 14:58:23 2021
Module time:
	user time   =      50.67 seconds =       0.84 minutes
	system time =       0.54 seconds =       0.01 minutes
	total time  =         51 seconds =       0.85 minutes
Total time:
	user time   =      50.67 seconds =       0.84 minutes
	system time =       0.54 seconds =       0.01 minutes
	total time  =         51 seconds =       0.85 minutes
Grab this energy -153.18844069193577
    Psi4 stopped on: Thursday, 04 November 2021 02:58PM
    Psi4 wall time for execution: 0:00:51.26

*** Psi4 exiting successfully. Buy a developer a beer!
