                               Psi4 1.4a2.dev629

  ==> Input File <==

--------------------------------------------------------------------------
import os
memory 14 GB

molecule {
 C   -0.2595713165    0.8060384209    0.0010313954
 O   -2.1912777858   -0.3331935239    0.0040691771
 C    2.4105495811   -0.2442721598   -0.0007960951
 H    2.3825282419   -2.3140630961   -0.0033254980
 H    3.3979181322    0.4678578258   -1.6600401098
 H    3.3844911293    0.4719981809    1.6590611305
units bohr
0 2
}

basis {

assign 6-31g_2dfp_

[ 6-31g_2dfp_ ]

spherical

!----------------------------------------------------------------------
! Basis Set Exchange
! Version v0.8.13
! https://www.basissetexchange.org
!----------------------------------------------------------------------
!   Basis set: 6-31G(2df,p)
! Description: 6-31G(2df,p)
!        Role: orbital
!     Version: 0  (Data from the original Basis Set Exchange)
!----------------------------------------------------------------------

****
H     0
S    3   1.00
     18.7311370              0.03349460
      2.8253937              0.23472695
      0.6401217              0.81375733
S    1   1.00
      0.1612778              1.00000000
P    1   1.00
      1.5000000              1.0000000
P    1   1.00
      0.3750000              1.0000000
****
B     0
S    6   1.00
   2068.8823000              0.0018663
    310.6495700              0.0142515
     70.6830330              0.0695516
     19.8610800              0.2325729
      6.2993048              0.4670787
      2.1270270              0.3634314
SP   3   1.00
      4.7279710             -0.1303938              0.0745976
      1.1903377             -0.1307889              0.3078467
      0.3594117              1.1309444              0.7434568
SP   1   1.00
      0.1267512              1.0000000              1.0000000
D    1   1.00
      0.8020000              1.0000000
D    1   1.00
      0.2005000              1.0000000
F    1   1.00
      0.5000000              1.0000000
****
C     0
S    6   1.00
   3047.5249000              0.0018347
    457.3695100              0.0140373
    103.9486900              0.0688426
     29.2101550              0.2321844
      9.2866630              0.4679413
      3.1639270              0.3623120
SP   3   1.00
      7.8682724             -0.1193324              0.0689991
      1.8812885             -0.1608542              0.3164240
      0.5442493              1.1434564              0.7443083
SP   1   1.00
      0.1687144              1.0000000              1.0000000
D    1   1.00
      1.2520000              1.0000000
D    1   1.00
      0.3130000              1.0000000
F    1   1.00
      0.8000000              1.0000000
****
N     0
S    6   1.00
   4173.5110000              0.0018348
    627.4579000              0.0139950
    142.9021000              0.0685870
     40.2343300              0.2322410
     12.8202100              0.4690700
      4.3904370              0.3604550
SP   3   1.00
     11.6263580             -0.1149610              0.0675800
      2.7162800             -0.1691180              0.3239070
      0.7722180              1.1458520              0.7408950
SP   1   1.00
      0.2120313              1.0000000              1.0000000
D    1   1.00
      1.8260000              1.0000000
D    1   1.00
      0.4565000              1.0000000
F    1   1.00
      1.0000000              1.0000000
****
O     0
S    6   1.00
   5484.6717000              0.0018311
    825.2349500              0.0139501
    188.0469600              0.0684451
     52.9645000              0.2327143
     16.8975700              0.4701930
      5.7996353              0.3585209
SP   3   1.00
     15.5396160             -0.1107775              0.0708743
      3.5999336             -0.1480263              0.3397528
      1.0137618              1.1307670              0.7271586
SP   1   1.00
      0.2700058              1.0000000              1.0000000
D    1   1.00
      2.5840000              1.0000000
D    1   1.00
      0.6460000              1.0000000
F    1   1.00
      1.4000000              1.0000000
****
F     0
S    6   1.00
   7001.7130900              0.0018196169
   1051.3660900              0.0139160796
    239.2856900              0.0684053245
     67.3974453              0.233185760
     21.5199573              0.471267439
      7.40310130             0.356618546
SP   3   1.00
     20.8479528             -0.108506975            0.0716287243
      4.80830834            -0.146451658            0.3459121030
      1.34406986             1.128688580            0.7224699570
SP   1   1.00
      0.358151393            1.0000000              1.0000000
D    1   1.00
      3.5000000              1.0000000
D    1   1.00
      0.8750000              1.0000000
F    1   1.00
      1.8500000              1.0000000
****
Al     0
S    6   1.00
  13983.1000000              0.00194267
   2098.7500000              0.0148599
    477.7050000              0.0728494
    134.3600000              0.2468300
     42.8709000              0.4872580
     14.5189000              0.3234960
SP   6   1.00
    239.6680000             -0.00292619             0.00460285
     57.4419000             -0.0374080              0.0331990
     18.2859000             -0.1144870              0.1362820
      6.5991400              0.1156350              0.3304760
      2.4904900              0.6125950              0.4491460
      0.9445400              0.3937990              0.2657040
SP   3   1.00
      1.2779000             -0.2276060             -0.0175130
      0.3975900              0.00144583             0.2445330
      0.1600950              1.0927900              0.8049340
SP   1   1.00
      0.0556577              1.0000000              1.0000000
D    1   1.00
      0.6500000              1.0000000
D    1   1.00
      0.1625000              1.0000000
F    1   1.00
      0.2500000              1.0000000
****
Si     0
S    6   1.00
  16115.9000000              0.00195948
   2425.5800000              0.01492880
    553.8670000              0.07284780
    156.3400000              0.24613000
     50.0683000              0.48591400
     17.0178000              0.32500200
SP   6   1.00
    292.7180000             -0.00278094             0.00443826
     69.8731000             -0.03571460             0.03266790
     22.3363000             -0.11498500             0.13472100
      8.1503900              0.09356340             0.32867800
      3.1345800              0.60301700             0.44964000
      1.2254300              0.41895900             0.26137200
SP   3   1.00
      1.7273800             -0.24463000            -0.01779510
      0.5729220              0.00431572             0.25353900
      0.2221920              1.09818000             0.80066900
SP   1   1.00
      0.0778369              1.00000000             1.00000000
D    1   1.00
      0.9000000              1.0000000
D    1   1.00
      0.2250000              1.0000000
F    1   1.00
      0.3200000              1.0000000
****
P     0
S    6   1.00
  19413.3000000              0.0018516
   2909.4200000              0.0142062
    661.3640000              0.0699995
    185.7590000              0.2400790
     59.1943000              0.4847620
     20.0310000              0.3352000
SP   6   1.00
    339.4780000             -0.00278217             0.00456462
     81.0101000             -0.0360499              0.03369360
     25.8780000             -0.1166310              0.13975500
      9.4522100              0.0968328              0.33936200
      3.6656600              0.6144180              0.45092100
      1.4674600              0.4037980              0.23858600
SP   3   1.00
      2.1562300             -0.2529230             -0.01776530
      0.7489970              0.0328517              0.27405800
      0.2831450              1.0812500              0.78542100
SP   1   1.00
      0.0998317              1.0000000              1.00000000
D    1   1.00
      1.1000000              1.0000000
D    1   1.00
      0.2750000              1.0000000
F    1   1.00
      0.4500000              1.0000000
****
S     0
S    6   1.00
  21917.1000000              0.0018690
   3301.4900000              0.0142300
    754.1460000              0.0696960
    212.7110000              0.2384870
     67.9896000              0.4833070
     23.0515000              0.3380740
SP   6   1.00
    423.7350000             -0.0023767              0.0040610
    100.7100000             -0.0316930              0.0306810
     32.1599000             -0.1133170              0.1304520
     11.8079000              0.0560900              0.3272050
      4.6311000              0.5922550              0.4528510
      1.8702500              0.4550060              0.2560420
SP   3   1.00
      2.6158400             -0.2503740             -0.0145110
      0.9221670              0.0669570              0.3102630
      0.3412870              1.0545100              0.7544830
SP   1   1.00
      0.1171670              1.0000000              1.0000000
D    1   1.00
      1.3000000              1.0000000
D    1   1.00
      0.3250000              1.0000000
F    1   1.00
      0.5500000              1.0000000
****
Cl     0
S    6   1.00
  25180.1000000              0.0018330
   3780.3500000              0.0140340
    860.4740000              0.0690970
    242.1450000              0.2374520
     77.3349000              0.4830340
     26.2470000              0.3398560
SP   6   1.00
    491.7650000             -0.0022974              0.0039894
    116.9840000             -0.0307140              0.0303180
     37.4153000             -0.1125280              0.1298800
     13.7834000              0.0450160              0.3279510
      5.4521500              0.5893530              0.4535270
      2.2258800              0.4652060              0.2521540
SP   3   1.00
      3.1864900             -0.2518300             -0.0142990
      1.1442700              0.0615890              0.3235720
      0.4203770              1.0601800              0.7435070
SP   1   1.00
      0.1426570              1.0000000              1.0000000
D    1   1.00
      1.5000000              1.0000000
D    1   1.00
      0.3750000              1.0000000
F    1   1.00
      0.7000000              1.0000000
****
}

set {
reference uhf
freeze_core true
e_convergence 10
d_convergence 10
dft_spherical_points 1202
dft_radial_points 99
}

e = energy('b3lyp')

print_out('Grab this energy {0}'.format(e))
--------------------------------------------------------------------------

    Molecular point group: c1

    Geometry (in Bohr), charge = 0, multiplicity = 2:

       Center              X                  Y                   Z               Mass
    ------------   -----------------  -----------------  -----------------  -----------------
         C           -0.259550198051     0.805414667602    -0.000446381531    12.000000000000
         O           -2.191256667351    -0.333817277198     0.002591400169    15.994914619570
         C            2.410570699549    -0.244895913098    -0.002273872031    12.000000000000
         H            2.382549360349    -2.314686849398    -0.004803274931     1.007825032230
         H            3.397939250649     0.467234072502    -1.661517886731     1.007825032230
         H            3.384512247749     0.471374427602     1.657583353569     1.007825032230

  Charge       = 0
  Multiplicity = 2
  Basis Set: ANONYMOUSDAA855E7
    Blend: 6-31G_2DFP_
  Basis Set: (ANONYMOUSDAA855E7 AUX)
    Blend: DEF2-UNIVERSAL-JKFIT

    Orbital Energies [Eh]
    ---------------------

    Alpha Occupied:

       1A    -19.186961     2A    -10.271684     3A    -10.210343
       4A     -1.081279     5A     -0.761917     6A     -0.543963
       7A     -0.466638     8A     -0.457206     9A     -0.456250
      10A     -0.387626    11A     -0.386118    12A     -0.192211

    Alpha Virtual:

      13A     -0.018888    14A      0.092028    15A      0.136274
      16A      0.141761    17A      0.217669    18A      0.268117
      19A      0.428243    20A      0.431450    21A      0.443793
      22A      0.493894    23A      0.506117    24A      0.530184
      25A      0.563307    26A      0.577312    27A      0.608311
      28A      0.616341    29A      0.643768    30A      0.717613
      31A      0.766087    32A      0.785276    33A      0.832559
      34A      0.917318    35A      0.927244    36A      0.935278
      37A      1.023311    38A      1.084366    39A      1.108669
      40A      1.153442    41A      1.220826    42A      1.306248
      43A      1.316498    44A      1.327173    45A      1.404136
      46A      1.407862    47A      1.467745    48A      1.559761
      49A      1.630283    50A      1.653869    51A      1.720704
      52A      1.814861    53A      1.833527    54A      1.900990
      55A      2.065603    56A      2.165866    57A      2.495428
      58A      2.680324    59A      2.743735    60A      2.783246
      61A      2.844213    62A      2.894331    63A      2.972381
      64A      3.030924    65A      3.058073    66A      3.105079
      67A      3.114792    68A      3.183367    69A      3.313884
      70A      3.370309    71A      3.392643    72A      3.439337
      73A      3.465838    74A      3.486595    75A      3.569950
      76A      3.739314    77A      3.760152    78A      3.942610
      79A      3.982329    80A      4.055810    81A      4.110246
      82A      4.119142    83A      4.189094    84A      4.390616
      85A      4.433076    86A      4.449755    87A      4.530881
      88A      4.919860    89A      5.036985    90A      5.042216
      91A      5.202392    92A      5.203649    93A      5.473393
      94A      5.482698    95A      5.826501    96A      5.930194
      97A      6.103597    98A      6.770576    99A      6.772745
     100A      7.070744   101A      7.134934   102A      7.529737

    Beta Occupied:

       1A    -19.178896     2A    -10.261631     3A    -10.206960
       4A     -1.065354     5A     -0.750140     6A     -0.524287
       7A     -0.451881     8A     -0.446416     9A     -0.439005
      10A     -0.382440    11A     -0.347919

    Beta Virtual:

      12A     -0.052829    13A     -0.002606    14A      0.094804
      15A      0.141941    16A      0.144869    17A      0.228155
      18A      0.273799    19A      0.433360    20A      0.435647
      21A      0.465700    22A      0.500598    23A      0.527498
      24A      0.539181    25A      0.569750    26A      0.581474
      27A      0.623464    28A      0.626845    29A      0.649425
      30A      0.739581    31A      0.777237    32A      0.795245
      33A      0.833344    34A      0.922156    35A      0.943277
      36A      0.950958    37A      1.027500    38A      1.090568
      39A      1.110705    40A      1.159642    41A      1.230068
      42A      1.311839    43A      1.319384    44A      1.333962
      45A      1.413307    46A      1.414580    47A      1.480024
      48A      1.570992    49A      1.643493    50A      1.668251
      51A      1.726953    52A      1.818020    53A      1.847672
      54A      1.907619    55A      2.072317    56A      2.187262
      57A      2.508100    58A      2.694595    59A      2.758101
      60A      2.804358    61A      2.859684    62A      2.895975
      63A      2.981886    64A      3.047777    65A      3.066543
      66A      3.122504    67A      3.124369    68A      3.218061
      69A      3.357456    70A      3.381839    71A      3.399050
      72A      3.447783    73A      3.481311    74A      3.509599
      75A      3.583080    76A      3.765093    77A      3.769592
      78A      3.951298    79A      3.991648    80A      4.072258
      81A      4.122028    82A      4.125560    83A      4.200146
      84A      4.392840    85A      4.439235    86A      4.453964
      87A      4.541727    88A      4.923786    89A      5.054443
      90A      5.060223    91A      5.205853    92A      5.208117
      93A      5.486032    94A      5.496546    95A      5.839736
      96A      5.935779    97A      6.126794    98A      6.799860
      99A      6.802371   100A      7.075041   101A      7.164305
     102A      7.541401

    Final Occupation by Irrep:
              A
    DOCC [    11 ]
    SOCC [     1 ]

  @DF-UKS Final Energy:  -153.18841519523835

   => Energetics <=

    Nuclear Repulsion Energy =             62.7814144047227600
    One-Electron Energy =                -331.5624230011014788
    Two-Electron Energy =                 132.1730167136567218
    DFT Exchange-Correlation Energy =     -16.5804233125163449
    Empirical Dispersion Energy =           0.0000000000000000
    VV10 Nonlocal Energy =                  0.0000000000000000
    Total Energy =                       -153.1884151952383490

  UHF NO Occupations:
  HONO-2 :   10  A 1.9997832
  HONO-1 :   11  A 1.9992018
  HONO-0 :   12  A 1.0000000
  LUNO+0 :   13  A 0.0007982
  LUNO+1 :   14  A 0.0002168
  LUNO+2 :   15  A 0.0001797
  LUNO+3 :   16  A 0.0000616

Computation Completed

Properties will be evaluated at   0.000000,   0.000000,   0.000000 [a0]

Properties computed using the SCF density matrix

  Nuclear Dipole Moment: [e a0]
     X:     4.5411      Y:    -0.6835      Z:    -0.0043

  Electronic Dipole Moment: [e a0]
     X:    -3.6099      Y:     0.6344      Z:     0.0034

  Dipole Moment: [e a0]
     X:     0.9312      Y:    -0.0491      Z:    -0.0010     Total:     0.9325

  Dipole Moment: [D]
     X:     2.3668      Y:    -0.1247      Z:    -0.0025     Total:     2.3701

*** tstop() called on n041 at Tue Mar 15 10:34:36 2022
Module time:
	user time   =      62.34 seconds =       1.04 minutes
	system time =       0.46 seconds =       0.01 minutes
	total time  =         63 seconds =       1.05 minutes
Total time:
	user time   =      62.34 seconds =       1.04 minutes
	system time =       0.46 seconds =       0.01 minutes
	total time  =         63 seconds =       1.05 minutes
Grab this energy -153.18841519523835
    Psi4 stopped on: Tuesday, 15 March 2022 10:34AM
    Psi4 wall time for execution: 0:01:02.85

*** Psi4 exiting successfully. Buy a developer a beer!
