                               Psi4 1.4a2.dev629

  ==> Input File <==

--------------------------------------------------------------------------
import os
memory 14 GB

molecule {
 C   -0.2563691656    0.8000139850   -0.0000000000
 O   -2.1906643278   -0.3312530160   -0.0000000000
 C    2.4082500317   -0.2451800236   -0.0000000000
 H    2.3784926596   -2.3154412726   -0.0000000000
 H    3.3924643922    0.4731129875   -1.6681294068
 H    3.3924643922    0.4731129875    1.6681294068
units bohr
0 2
}

basis {

assign 6-31g_2dfp_

[ 6-31g_2dfp_ ]

spherical

!----------------------------------------------------------------------
! Basis Set Exchange
! Version v0.8.13
! https://www.basissetexchange.org
!----------------------------------------------------------------------
!   Basis set: 6-31G(2df,p)
! Description: 6-31G(2df,p)
!        Role: orbital
!     Version: 0  (Data from the original Basis Set Exchange)
!----------------------------------------------------------------------

****
H     0
S    3   1.00
     18.7311370              0.03349460
      2.8253937              0.23472695
      0.6401217              0.81375733
S    1   1.00
      0.1612778              1.00000000
P    1   1.00
      1.5000000              1.0000000
P    1   1.00
      0.3750000              1.0000000
****
B     0
S    6   1.00
   2068.8823000              0.0018663
    310.6495700              0.0142515
     70.6830330              0.0695516
     19.8610800              0.2325729
      6.2993048              0.4670787
      2.1270270              0.3634314
SP   3   1.00
      4.7279710             -0.1303938              0.0745976
      1.1903377             -0.1307889              0.3078467
      0.3594117              1.1309444              0.7434568
SP   1   1.00
      0.1267512              1.0000000              1.0000000
D    1   1.00
      0.8020000              1.0000000
D    1   1.00
      0.2005000              1.0000000
F    1   1.00
      0.5000000              1.0000000
****
C     0
S    6   1.00
   3047.5249000              0.0018347
    457.3695100              0.0140373
    103.9486900              0.0688426
     29.2101550              0.2321844
      9.2866630              0.4679413
      3.1639270              0.3623120
SP   3   1.00
      7.8682724             -0.1193324              0.0689991
      1.8812885             -0.1608542              0.3164240
      0.5442493              1.1434564              0.7443083
SP   1   1.00
      0.1687144              1.0000000              1.0000000
D    1   1.00
      1.2520000              1.0000000
D    1   1.00
      0.3130000              1.0000000
F    1   1.00
      0.8000000              1.0000000
****
N     0
S    6   1.00
   4173.5110000              0.0018348
    627.4579000              0.0139950
    142.9021000              0.0685870
     40.2343300              0.2322410
     12.8202100              0.4690700
      4.3904370              0.3604550
SP   3   1.00
     11.6263580             -0.1149610              0.0675800
      2.7162800             -0.1691180              0.3239070
      0.7722180              1.1458520              0.7408950
SP   1   1.00
      0.2120313              1.0000000              1.0000000
D    1   1.00
      1.8260000              1.0000000
D    1   1.00
      0.4565000              1.0000000
F    1   1.00
      1.0000000              1.0000000
****
O     0
S    6   1.00
   5484.6717000              0.0018311
    825.2349500              0.0139501
    188.0469600              0.0684451
     52.9645000              0.2327143
     16.8975700              0.4701930
      5.7996353              0.3585209
SP   3   1.00
     15.5396160             -0.1107775              0.0708743
      3.5999336             -0.1480263              0.3397528
      1.0137618              1.1307670              0.7271586
SP   1   1.00
      0.2700058              1.0000000              1.0000000
D    1   1.00
      2.5840000              1.0000000
D    1   1.00
      0.6460000              1.0000000
F    1   1.00
      1.4000000              1.0000000
****
F     0
S    6   1.00
   7001.7130900              0.0018196169
   1051.3660900              0.0139160796
    239.2856900              0.0684053245
     67.3974453              0.233185760
     21.5199573              0.471267439
      7.40310130             0.356618546
SP   3   1.00
     20.8479528             -0.108506975            0.0716287243
      4.80830834            -0.146451658            0.3459121030
      1.34406986             1.128688580            0.7224699570
SP   1   1.00
      0.358151393            1.0000000              1.0000000
D    1   1.00
      3.5000000              1.0000000
D    1   1.00
      0.8750000              1.0000000
F    1   1.00
      1.8500000              1.0000000
****
Al     0
S    6   1.00
  13983.1000000              0.00194267
   2098.7500000              0.0148599
    477.7050000              0.0728494
    134.3600000              0.2468300
     42.8709000              0.4872580
     14.5189000              0.3234960
SP   6   1.00
    239.6680000             -0.00292619             0.00460285
     57.4419000             -0.0374080              0.0331990
     18.2859000             -0.1144870              0.1362820
      6.5991400              0.1156350              0.3304760
      2.4904900              0.6125950              0.4491460
      0.9445400              0.3937990              0.2657040
SP   3   1.00
      1.2779000             -0.2276060             -0.0175130
      0.3975900              0.00144583             0.2445330
      0.1600950              1.0927900              0.8049340
SP   1   1.00
      0.0556577              1.0000000              1.0000000
D    1   1.00
      0.6500000              1.0000000
D    1   1.00
      0.1625000              1.0000000
F    1   1.00
      0.2500000              1.0000000
****
Si     0
S    6   1.00
  16115.9000000              0.00195948
   2425.5800000              0.01492880
    553.8670000              0.07284780
    156.3400000              0.24613000
     50.0683000              0.48591400
     17.0178000              0.32500200
SP   6   1.00
    292.7180000             -0.00278094             0.00443826
     69.8731000             -0.03571460             0.03266790
     22.3363000             -0.11498500             0.13472100
      8.1503900              0.09356340             0.32867800
      3.1345800              0.60301700             0.44964000
      1.2254300              0.41895900             0.26137200
SP   3   1.00
      1.7273800             -0.24463000            -0.01779510
      0.5729220              0.00431572             0.25353900
      0.2221920              1.09818000             0.80066900
SP   1   1.00
      0.0778369              1.00000000             1.00000000
D    1   1.00
      0.9000000              1.0000000
D    1   1.00
      0.2250000              1.0000000
F    1   1.00
      0.3200000              1.0000000
****
P     0
S    6   1.00
  19413.3000000              0.0018516
   2909.4200000              0.0142062
    661.3640000              0.0699995
    185.7590000              0.2400790
     59.1943000              0.4847620
     20.0310000              0.3352000
SP   6   1.00
    339.4780000             -0.00278217             0.00456462
     81.0101000             -0.0360499              0.03369360
     25.8780000             -0.1166310              0.13975500
      9.4522100              0.0968328              0.33936200
      3.6656600              0.6144180              0.45092100
      1.4674600              0.4037980              0.23858600
SP   3   1.00
      2.1562300             -0.2529230             -0.01776530
      0.7489970              0.0328517              0.27405800
      0.2831450              1.0812500              0.78542100
SP   1   1.00
      0.0998317              1.0000000              1.00000000
D    1   1.00
      1.1000000              1.0000000
D    1   1.00
      0.2750000              1.0000000
F    1   1.00
      0.4500000              1.0000000
****
S     0
S    6   1.00
  21917.1000000              0.0018690
   3301.4900000              0.0142300
    754.1460000              0.0696960
    212.7110000              0.2384870
     67.9896000              0.4833070
     23.0515000              0.3380740
SP   6   1.00
    423.7350000             -0.0023767              0.0040610
    100.7100000             -0.0316930              0.0306810
     32.1599000             -0.1133170              0.1304520
     11.8079000              0.0560900              0.3272050
      4.6311000              0.5922550              0.4528510
      1.8702500              0.4550060              0.2560420
SP   3   1.00
      2.6158400             -0.2503740             -0.0145110
      0.9221670              0.0669570              0.3102630
      0.3412870              1.0545100              0.7544830
SP   1   1.00
      0.1171670              1.0000000              1.0000000
D    1   1.00
      1.3000000              1.0000000
D    1   1.00
      0.3250000              1.0000000
F    1   1.00
      0.5500000              1.0000000
****
Cl     0
S    6   1.00
  25180.1000000              0.0018330
   3780.3500000              0.0140340
    860.4740000              0.0690970
    242.1450000              0.2374520
     77.3349000              0.4830340
     26.2470000              0.3398560
SP   6   1.00
    491.7650000             -0.0022974              0.0039894
    116.9840000             -0.0307140              0.0303180
     37.4153000             -0.1125280              0.1298800
     13.7834000              0.0450160              0.3279510
      5.4521500              0.5893530              0.4535270
      2.2258800              0.4652060              0.2521540
SP   3   1.00
      3.1864900             -0.2518300             -0.0142990
      1.1442700              0.0615890              0.3235720
      0.4203770              1.0601800              0.7435070
SP   1   1.00
      0.1426570              1.0000000              1.0000000
D    1   1.00
      1.5000000              1.0000000
D    1   1.00
      0.3750000              1.0000000
F    1   1.00
      0.7000000              1.0000000
****
}

set {
reference uhf
freeze_core true
e_convergence 10
d_convergence 10
dft_spherical_points 1202
dft_radial_points 99
}

e = energy('b3lyp')

print_out('Grab this energy {0}'.format(e))
--------------------------------------------------------------------------

    Molecular point group: cs

    Geometry (in Bohr), charge = 0, multiplicity = 2:

       Center              X                  Y                   Z               Mass
    ------------   -----------------  -----------------  -----------------  -----------------
         C           -0.256792403712     0.800485542005     0.000000000000    12.000000000000
         O           -2.191087565912    -0.330781458995     0.000000000000    15.994914619570
         C            2.407826793588    -0.244708466595     0.000000000000    12.000000000000
         H            2.378069421488    -2.314969715595     0.000000000000     1.007825032230
         H            3.392041154088     0.473584544505    -1.668129406800     1.007825032230
         H            3.392041154088     0.473584544505     1.668129406800     1.007825032230

  Charge       = 0
  Multiplicity = 2
  Basis Set: ANONYMOUS85455480
    Blend: 6-31G_2DFP_
  Basis Set: (ANONYMOUS85455480 AUX)
    Blend: DEF2-UNIVERSAL-JKFIT

    Orbital Energies [Eh]
    ---------------------

    Alpha Occupied:

       1Ap   -19.186673     2Ap   -10.271163     3Ap   -10.211214
       4Ap    -1.081582     5Ap    -0.761946     6Ap    -0.543537
       7Ap    -0.466743     8Ap    -0.457321     1App   -0.456122
       2App   -0.387294     9Ap    -0.385985    10Ap    -0.191416

    Alpha Virtual:

       3App   -0.018615    11Ap     0.091053    12Ap     0.135927
       4App    0.140462    13Ap     0.218884    14Ap     0.268357
      15Ap     0.427865     5App    0.431451    16Ap     0.443935
       6App    0.493430    17Ap     0.506000    18Ap     0.529665
       7App    0.562134    19Ap     0.575795    20Ap     0.609446
       8App    0.615924    21Ap     0.643591    22Ap     0.717283
       9App    0.765437    23Ap     0.785406    10App    0.830394
      11App    0.917234    24Ap     0.927018    25Ap     0.935136
      12App    1.023615    26Ap     1.084414    27Ap     1.106561
      13App    1.153488    28Ap     1.221993    29Ap     1.307215
      14App    1.314530    30Ap     1.327661    31Ap     1.402479
      15App    1.406690    32Ap     1.468084    33Ap     1.560257
      34Ap     1.631151    16App    1.654177    35Ap     1.716815
      17App    1.811097    36Ap     1.834199    37Ap     1.898667
      18App    2.065896    38Ap     2.168962    39Ap     2.496434
      19App    2.680159    40Ap     2.744890    41Ap     2.782164
      20App    2.839754    21App    2.892760    42Ap     2.973989
      43Ap     3.029994    22App    3.058837    23App    3.104230
      44Ap     3.116326    45Ap     3.181716    24App    3.314344
      46Ap     3.370971    25App    3.394251    26App    3.442002
      27App    3.466896    47Ap     3.486029    48Ap     3.567680
      49Ap     3.741822    50Ap     3.764255    51Ap     3.939989
      28App    3.983115    52Ap     4.058205    53Ap     4.108964
      29App    4.112568    54Ap     4.185756    30App    4.384058
      55Ap     4.435603    31App    4.444701    56Ap     4.529111
      57Ap     4.916519    58Ap     5.036769    32App    5.042488
      33App    5.189908    59Ap     5.197077    60Ap     5.475376
      34App    5.484059    61Ap     5.827346    35App    5.932411
      62Ap     6.107133    63Ap     6.771065    36App    6.773275
      37App    7.071575    64Ap     7.135194    65Ap     7.530930

    Beta Occupied:

       1Ap   -19.178620     2Ap   -10.261088     3Ap   -10.207862
       4Ap    -1.065679     5Ap    -0.750111     6Ap    -0.523934
       1App   -0.451550     7Ap    -0.446620     8Ap    -0.439176
       2App   -0.382169     9Ap    -0.347929

    Beta Virtual:

      10Ap    -0.051906     3App   -0.002381    11Ap     0.093769
      12Ap     0.141715     4App    0.143628    13Ap     0.229178
      14Ap     0.274025     5App    0.433431    15Ap     0.434637
      16Ap     0.466380     6App    0.500114    17Ap     0.527221
      18Ap     0.538643     7App    0.568354    19Ap     0.579989
       8App    0.623263    20Ap     0.627898    21Ap     0.649508
      22Ap     0.739436     9App    0.776592    23Ap     0.795352
      10App    0.831195    11App    0.922095    24Ap     0.942819
      25Ap     0.950975    12App    1.027815    26Ap     1.090636
      27Ap     1.108588    13App    1.159656    28Ap     1.231247
      29Ap     1.312674    14App    1.317329    30Ap     1.334470
      15App    1.412145    31Ap     1.412867    32Ap     1.480390
      33Ap     1.571312    34Ap     1.644411    16App    1.668562
      35Ap     1.723052    17App    1.814300    36Ap     1.848526
      37Ap     1.905390    18App    2.072593    38Ap     2.190382
      39Ap     2.509082    19App    2.694404    40Ap     2.759352
      41Ap     2.803213    20App    2.855186    21App    2.894402
      42Ap     2.983475    43Ap     3.046932    22App    3.067550
      23App    3.122959    44Ap     3.124720    45Ap     3.216526
      24App    3.357913    46Ap     3.382508    25App    3.400559
      26App    3.449817    27App    3.482843    47Ap     3.508693
      48Ap     3.581142    49Ap     3.767555    50Ap     3.773447
      51Ap     3.948780    28App    3.992352    52Ap     4.074410
      29App    4.115427    53Ap     4.122657    54Ap     4.198411
      30App    4.386286    55Ap     4.441863    31App    4.448916
      56Ap     4.540103    57Ap     4.920363    58Ap     5.054194
      32App    5.060458    33App    5.192017    59Ap     5.202946
      60Ap     5.488002    34App    5.497986    61Ap     5.840592
      35App    5.938001    62Ap     6.130312    63Ap     6.800284
      36App    6.802838    37App    7.075871    64Ap     7.164523
      65Ap     7.542577

    Final Occupation by Irrep:
             Ap   App
    DOCC [     9,    2 ]
    SOCC [     1,    0 ]

  @DF-UKS Final Energy:  -153.18845907747829

   => Energetics <=

    Nuclear Repulsion Energy =             62.8054256368834771
    One-Electron Energy =                -331.6128509743811037
    Two-Electron Energy =                 132.1981108050325133
    DFT Exchange-Correlation Energy =     -16.5791445450131398
    Empirical Dispersion Energy =           0.0000000000000000
    VV10 Nonlocal Energy =                  0.0000000000000000
    Total Energy =                       -153.1884590774782851

  UHF NO Occupations:
  HONO-2 :    8 Ap 1.9997876
  HONO-1 :    9 Ap 1.9992034
  HONO-0 :   10 Ap 1.0000000
  LUNO+0 :   11 Ap 0.0007966
  LUNO+1 :   12 Ap 0.0002124
  LUNO+2 :    3App 0.0001806
  LUNO+3 :   13 Ap 0.0000613

Computation Completed

Properties will be evaluated at   0.000000,   0.000000,   0.000000 [a0]

Properties computed using the SCF density matrix

  Nuclear Dipole Moment: [e a0]
     X:     4.5397      Y:    -0.6794      Z:     0.0000

  Electronic Dipole Moment: [e a0]
     X:    -3.6073      Y:     0.6295      Z:     0.0000

  Dipole Moment: [e a0]
     X:     0.9324      Y:    -0.0499      Z:     0.0000     Total:     0.9337

  Dipole Moment: [D]
     X:     2.3699      Y:    -0.1268      Z:     0.0000     Total:     2.3733

*** tstop() called on n039 at Tue Mar 15 10:33:36 2022
Module time:
	user time   =      62.43 seconds =       1.04 minutes
	system time =       0.41 seconds =       0.01 minutes
	total time  =         63 seconds =       1.05 minutes
Total time:
	user time   =      62.43 seconds =       1.04 minutes
	system time =       0.41 seconds =       0.01 minutes
	total time  =         63 seconds =       1.05 minutes
Grab this energy -153.18845907747829
    Psi4 stopped on: Tuesday, 15 March 2022 10:33AM
    Psi4 wall time for execution: 0:01:02.89

*** Psi4 exiting successfully. Buy a developer a beer!
