                               Psi4 1.4a2.dev629

  ==> Input File <==

--------------------------------------------------------------------------
import os
memory 14 GB

molecule {
 C   -0.2594740214    0.8017627102   -0.0000000008
 O   -2.1905534418   -0.3362040613    0.0000000103
 C    2.4096955630   -0.2400350673    0.0000000098
 H    2.3870979669   -2.3000539538    0.0000000251
 H    3.3899157642    0.4723324070   -1.6691524449
 H    3.3899161190    0.4723325851    1.6691522206
units bohr
0 2
}

basis {

assign 6-31g_2dfp_

[ 6-31g_2dfp_ ]

spherical

!----------------------------------------------------------------------
! Basis Set Exchange
! Version v0.8.13
! https://www.basissetexchange.org
!----------------------------------------------------------------------
!   Basis set: 6-31G(2df,p)
! Description: 6-31G(2df,p)
!        Role: orbital
!     Version: 0  (Data from the original Basis Set Exchange)
!----------------------------------------------------------------------

****
H     0
S    3   1.00
     18.7311370              0.03349460
      2.8253937              0.23472695
      0.6401217              0.81375733
S    1   1.00
      0.1612778              1.00000000
P    1   1.00
      1.5000000              1.0000000
P    1   1.00
      0.3750000              1.0000000
****
B     0
S    6   1.00
   2068.8823000              0.0018663
    310.6495700              0.0142515
     70.6830330              0.0695516
     19.8610800              0.2325729
      6.2993048              0.4670787
      2.1270270              0.3634314
SP   3   1.00
      4.7279710             -0.1303938              0.0745976
      1.1903377             -0.1307889              0.3078467
      0.3594117              1.1309444              0.7434568
SP   1   1.00
      0.1267512              1.0000000              1.0000000
D    1   1.00
      0.8020000              1.0000000
D    1   1.00
      0.2005000              1.0000000
F    1   1.00
      0.5000000              1.0000000
****
C     0
S    6   1.00
   3047.5249000              0.0018347
    457.3695100              0.0140373
    103.9486900              0.0688426
     29.2101550              0.2321844
      9.2866630              0.4679413
      3.1639270              0.3623120
SP   3   1.00
      7.8682724             -0.1193324              0.0689991
      1.8812885             -0.1608542              0.3164240
      0.5442493              1.1434564              0.7443083
SP   1   1.00
      0.1687144              1.0000000              1.0000000
D    1   1.00
      1.2520000              1.0000000
D    1   1.00
      0.3130000              1.0000000
F    1   1.00
      0.8000000              1.0000000
****
N     0
S    6   1.00
   4173.5110000              0.0018348
    627.4579000              0.0139950
    142.9021000              0.0685870
     40.2343300              0.2322410
     12.8202100              0.4690700
      4.3904370              0.3604550
SP   3   1.00
     11.6263580             -0.1149610              0.0675800
      2.7162800             -0.1691180              0.3239070
      0.7722180              1.1458520              0.7408950
SP   1   1.00
      0.2120313              1.0000000              1.0000000
D    1   1.00
      1.8260000              1.0000000
D    1   1.00
      0.4565000              1.0000000
F    1   1.00
      1.0000000              1.0000000
****
O     0
S    6   1.00
   5484.6717000              0.0018311
    825.2349500              0.0139501
    188.0469600              0.0684451
     52.9645000              0.2327143
     16.8975700              0.4701930
      5.7996353              0.3585209
SP   3   1.00
     15.5396160             -0.1107775              0.0708743
      3.5999336             -0.1480263              0.3397528
      1.0137618              1.1307670              0.7271586
SP   1   1.00
      0.2700058              1.0000000              1.0000000
D    1   1.00
      2.5840000              1.0000000
D    1   1.00
      0.6460000              1.0000000
F    1   1.00
      1.4000000              1.0000000
****
F     0
S    6   1.00
   7001.7130900              0.0018196169
   1051.3660900              0.0139160796
    239.2856900              0.0684053245
     67.3974453              0.233185760
     21.5199573              0.471267439
      7.40310130             0.356618546
SP   3   1.00
     20.8479528             -0.108506975            0.0716287243
      4.80830834            -0.146451658            0.3459121030
      1.34406986             1.128688580            0.7224699570
SP   1   1.00
      0.358151393            1.0000000              1.0000000
D    1   1.00
      3.5000000              1.0000000
D    1   1.00
      0.8750000              1.0000000
F    1   1.00
      1.8500000              1.0000000
****
Al     0
S    6   1.00
  13983.1000000              0.00194267
   2098.7500000              0.0148599
    477.7050000              0.0728494
    134.3600000              0.2468300
     42.8709000              0.4872580
     14.5189000              0.3234960
SP   6   1.00
    239.6680000             -0.00292619             0.00460285
     57.4419000             -0.0374080              0.0331990
     18.2859000             -0.1144870              0.1362820
      6.5991400              0.1156350              0.3304760
      2.4904900              0.6125950              0.4491460
      0.9445400              0.3937990              0.2657040
SP   3   1.00
      1.2779000             -0.2276060             -0.0175130
      0.3975900              0.00144583             0.2445330
      0.1600950              1.0927900              0.8049340
SP   1   1.00
      0.0556577              1.0000000              1.0000000
D    1   1.00
      0.6500000              1.0000000
D    1   1.00
      0.1625000              1.0000000
F    1   1.00
      0.2500000              1.0000000
****
Si     0
S    6   1.00
  16115.9000000              0.00195948
   2425.5800000              0.01492880
    553.8670000              0.07284780
    156.3400000              0.24613000
     50.0683000              0.48591400
     17.0178000              0.32500200
SP   6   1.00
    292.7180000             -0.00278094             0.00443826
     69.8731000             -0.03571460             0.03266790
     22.3363000             -0.11498500             0.13472100
      8.1503900              0.09356340             0.32867800
      3.1345800              0.60301700             0.44964000
      1.2254300              0.41895900             0.26137200
SP   3   1.00
      1.7273800             -0.24463000            -0.01779510
      0.5729220              0.00431572             0.25353900
      0.2221920              1.09818000             0.80066900
SP   1   1.00
      0.0778369              1.00000000             1.00000000
D    1   1.00
      0.9000000              1.0000000
D    1   1.00
      0.2250000              1.0000000
F    1   1.00
      0.3200000              1.0000000
****
P     0
S    6   1.00
  19413.3000000              0.0018516
   2909.4200000              0.0142062
    661.3640000              0.0699995
    185.7590000              0.2400790
     59.1943000              0.4847620
     20.0310000              0.3352000
SP   6   1.00
    339.4780000             -0.00278217             0.00456462
     81.0101000             -0.0360499              0.03369360
     25.8780000             -0.1166310              0.13975500
      9.4522100              0.0968328              0.33936200
      3.6656600              0.6144180              0.45092100
      1.4674600              0.4037980              0.23858600
SP   3   1.00
      2.1562300             -0.2529230             -0.01776530
      0.7489970              0.0328517              0.27405800
      0.2831450              1.0812500              0.78542100
SP   1   1.00
      0.0998317              1.0000000              1.00000000
D    1   1.00
      1.1000000              1.0000000
D    1   1.00
      0.2750000              1.0000000
F    1   1.00
      0.4500000              1.0000000
****
S     0
S    6   1.00
  21917.1000000              0.0018690
   3301.4900000              0.0142300
    754.1460000              0.0696960
    212.7110000              0.2384870
     67.9896000              0.4833070
     23.0515000              0.3380740
SP   6   1.00
    423.7350000             -0.0023767              0.0040610
    100.7100000             -0.0316930              0.0306810
     32.1599000             -0.1133170              0.1304520
     11.8079000              0.0560900              0.3272050
      4.6311000              0.5922550              0.4528510
      1.8702500              0.4550060              0.2560420
SP   3   1.00
      2.6158400             -0.2503740             -0.0145110
      0.9221670              0.0669570              0.3102630
      0.3412870              1.0545100              0.7544830
SP   1   1.00
      0.1171670              1.0000000              1.0000000
D    1   1.00
      1.3000000              1.0000000
D    1   1.00
      0.3250000              1.0000000
F    1   1.00
      0.5500000              1.0000000
****
Cl     0
S    6   1.00
  25180.1000000              0.0018330
   3780.3500000              0.0140340
    860.4740000              0.0690970
    242.1450000              0.2374520
     77.3349000              0.4830340
     26.2470000              0.3398560
SP   6   1.00
    491.7650000             -0.0022974              0.0039894
    116.9840000             -0.0307140              0.0303180
     37.4153000             -0.1125280              0.1298800
     13.7834000              0.0450160              0.3279510
      5.4521500              0.5893530              0.4535270
      2.2258800              0.4652060              0.2521540
SP   3   1.00
      3.1864900             -0.2518300             -0.0142990
      1.1442700              0.0615890              0.3235720
      0.4203770              1.0601800              0.7435070
SP   1   1.00
      0.1426570              1.0000000              1.0000000
D    1   1.00
      1.5000000              1.0000000
D    1   1.00
      0.3750000              1.0000000
F    1   1.00
      0.7000000              1.0000000
****
}

set {
reference uhf
freeze_core true
e_convergence 10
d_convergence 10
dft_spherical_points 1202
dft_radial_points 99
}

e = energy('b3lyp')

print_out('Grab this energy {0}'.format(e))
--------------------------------------------------------------------------

    Molecular point group: c1

    Geometry (in Bohr), charge = 0, multiplicity = 2:

       Center              X                  Y                   Z               Mass
    ------------   -----------------  -----------------  -----------------  -----------------
         C           -0.259557813463     0.801828227865    -0.000000002473    12.000000000000
         O           -2.190637233863    -0.336138543635     0.000000008627    15.994914619570
         C            2.409611770937    -0.239969549635     0.000000008127    12.000000000000
         H            2.387014174837    -2.299988436135     0.000000023427     1.007825032230
         H            3.389831972137     0.472397924665    -1.669152446573     1.007825032230
         H            3.389832326937     0.472398102765     1.669152218927     1.007825032230

  Charge       = 0
  Multiplicity = 2
  Basis Set: ANONYMOUS07148B88
    Blend: 6-31G_2DFP_
  Basis Set: (ANONYMOUS07148B88 AUX)
    Blend: DEF2-UNIVERSAL-JKFIT

    Orbital Energies [Eh]
    ---------------------

    Alpha Occupied:

       1A    -19.186792     2A    -10.271357     3A    -10.210434
       4A     -1.081490     5A     -0.762123     6A     -0.543904
       7A     -0.466474     8A     -0.457642     9A     -0.456491
      10A     -0.387594    11A     -0.385974    12A     -0.191678

    Alpha Virtual:

      13A     -0.018756    14A      0.091483    15A      0.137130
      16A      0.141035    17A      0.218313    18A      0.268373
      19A      0.428072    20A      0.431823    21A      0.443825
      22A      0.493251    23A      0.506347    24A      0.530100
      25A      0.562677    26A      0.577574    27A      0.609015
      28A      0.615717    29A      0.644337    30A      0.717816
      31A      0.766063    32A      0.785402    33A      0.831996
      34A      0.917157    35A      0.927043    36A      0.936055
      37A      1.023126    38A      1.085957    39A      1.106435
      40A      1.153912    41A      1.223995    42A      1.306395
      43A      1.317711    44A      1.327588    45A      1.402152
      46A      1.406768    47A      1.468662    48A      1.559637
      49A      1.631208    50A      1.653975    51A      1.719726
      52A      1.812525    53A      1.835530    54A      1.901190
      55A      2.065521    56A      2.167930    57A      2.496174
      58A      2.680660    59A      2.744710    60A      2.784772
      61A      2.839699    62A      2.895197    63A      2.974906
      64A      3.030462    65A      3.058075    66A      3.104305
      67A      3.116198    68A      3.180813    69A      3.314938
      70A      3.368327    71A      3.393695    72A      3.441186
      73A      3.466141    74A      3.485424    75A      3.570688
      76A      3.740643    77A      3.764118    78A      3.944251
      79A      3.981724    80A      4.056449    81A      4.109378
      82A      4.120467    83A      4.190074    84A      4.390378
      85A      4.434909    86A      4.446088    87A      4.534000
      88A      4.918056    89A      5.037155    90A      5.042387
      91A      5.193297    92A      5.211592    93A      5.474664
      94A      5.483137    95A      5.826893    96A      5.931422
      97A      6.105814    98A      6.770864    99A      6.773082
     100A      7.071476   101A      7.135122   102A      7.530523

    Beta Occupied:

       1A    -19.178735     2A    -10.261283     3A    -10.207068
       4A     -1.065579     5A     -0.750322     6A     -0.524186
       7A     -0.451949     8A     -0.446893     9A     -0.438988
      10A     -0.382430    11A     -0.347904

    Beta Virtual:

      12A     -0.052122    13A     -0.002493    14A      0.094140
      15A      0.142881    16A      0.144168    17A      0.228674
      18A      0.274042    19A      0.433807    20A      0.435095
      21A      0.466013    22A      0.499944    23A      0.527649
      24A      0.539007    25A      0.568999    26A      0.581803
      27A      0.622969    28A      0.627638    29A      0.650146
      30A      0.739869    31A      0.777204    32A      0.795377
      33A      0.832786    34A      0.922002    35A      0.943658
      36A      0.951082    37A      1.027314    38A      1.091971
      39A      1.108647    40A      1.160103    41A      1.233262
      42A      1.311845    43A      1.320527    44A      1.334397
      45A      1.412279    46A      1.412454    47A      1.480966
      48A      1.570862    49A      1.644541    50A      1.668331
      51A      1.725936    52A      1.815718    53A      1.849673
      54A      1.907885    55A      2.072218    56A      2.189357
      57A      2.508855    58A      2.694902    59A      2.759295
      60A      2.805815    61A      2.855003    62A      2.896870
      63A      2.984336    64A      3.047205    65A      3.066765
      66A      3.123134    67A      3.124663    68A      3.215550
      69A      3.358627    70A      3.379710    71A      3.399770
      72A      3.449232    73A      3.482056    74A      3.508633
      75A      3.583947    76A      3.766403    77A      3.773421
      78A      3.952973    79A      3.990991    80A      4.072710
      81A      4.123248    82A      4.123407    83A      4.202390
      84A      4.392621    85A      4.441153    86A      4.450325
      87A      4.544925    88A      4.921914    89A      5.054669
      90A      5.060365    91A      5.195426    92A      5.217310
      93A      5.487297    94A      5.497051    95A      5.840136
      96A      5.937013    97A      6.129001    98A      6.800104
      99A      6.802663   100A      7.075774   101A      7.164469
     102A      7.542177

    Final Occupation by Irrep:
              A
    DOCC [    11 ]
    SOCC [     1 ]

  @DF-UKS Final Energy:  -153.18843897100888

   => Energetics <=

    Nuclear Repulsion Energy =             62.8098311362606907
    One-Electron Energy =                -331.6187892669671555
    Two-Electron Energy =                 132.2014698514479676
    DFT Exchange-Correlation Energy =     -16.5809506917503846
    Empirical Dispersion Energy =           0.0000000000000000
    VV10 Nonlocal Energy =                  0.0000000000000000
    Total Energy =                       -153.1884389710088783

  UHF NO Occupations:
  HONO-2 :   10  A 1.9997867
  HONO-1 :   11  A 1.9992030
  HONO-0 :   12  A 1.0000000
  LUNO+0 :   13  A 0.0007970
  LUNO+1 :   14  A 0.0002133
  LUNO+2 :   15  A 0.0001807
  LUNO+3 :   16  A 0.0000614

Computation Completed

Properties will be evaluated at   0.000000,   0.000000,   0.000000 [a0]

Properties computed using the SCF density matrix

  Nuclear Dipole Moment: [e a0]
     X:     4.5419      Y:    -0.6731      Z:    -0.0000

  Electronic Dipole Moment: [e a0]
     X:    -3.6102      Y:     0.6235      Z:     0.0000

  Dipole Moment: [e a0]
     X:     0.9317      Y:    -0.0497      Z:    -0.0000     Total:     0.9330

  Dipole Moment: [D]
     X:     2.3681      Y:    -0.1263      Z:    -0.0000     Total:     2.3715

*** tstop() called on n081 at Thu Nov  4 14:50:47 2021
Module time:
	user time   =      44.12 seconds =       0.74 minutes
	system time =       0.51 seconds =       0.01 minutes
	total time  =         45 seconds =       0.75 minutes
Total time:
	user time   =      44.12 seconds =       0.74 minutes
	system time =       0.51 seconds =       0.01 minutes
	total time  =         45 seconds =       0.75 minutes
Grab this energy -153.18843897100888
    Psi4 stopped on: Thursday, 04 November 2021 02:50PM
    Psi4 wall time for execution: 0:00:44.66

*** Psi4 exiting successfully. Buy a developer a beer!
