                               Psi4 1.4a2.dev629

  ==> Input File <==

--------------------------------------------------------------------------
import os
memory 14 GB

molecule {
 C   -0.2620588010    0.8065311011   -0.0000000001
 O   -2.1756243380   -0.3418973664    0.0000000098
 C    2.4069821733   -0.2405022797    0.0000000101
 H    2.3771302793   -2.3019074821    0.0000000304
 H    3.3900841430    0.4739552389   -1.6633410235
 H    3.3900844934    0.4739554081    1.6633407933
units bohr
0 2
}

basis {

assign 6-31g_2dfp_

[ 6-31g_2dfp_ ]

spherical

!----------------------------------------------------------------------
! Basis Set Exchange
! Version v0.8.13
! https://www.basissetexchange.org
!----------------------------------------------------------------------
!   Basis set: 6-31G(2df,p)
! Description: 6-31G(2df,p)
!        Role: orbital
!     Version: 0  (Data from the original Basis Set Exchange)
!----------------------------------------------------------------------

****
H     0
S    3   1.00
     18.7311370              0.03349460
      2.8253937              0.23472695
      0.6401217              0.81375733
S    1   1.00
      0.1612778              1.00000000
P    1   1.00
      1.5000000              1.0000000
P    1   1.00
      0.3750000              1.0000000
****
B     0
S    6   1.00
   2068.8823000              0.0018663
    310.6495700              0.0142515
     70.6830330              0.0695516
     19.8610800              0.2325729
      6.2993048              0.4670787
      2.1270270              0.3634314
SP   3   1.00
      4.7279710             -0.1303938              0.0745976
      1.1903377             -0.1307889              0.3078467
      0.3594117              1.1309444              0.7434568
SP   1   1.00
      0.1267512              1.0000000              1.0000000
D    1   1.00
      0.8020000              1.0000000
D    1   1.00
      0.2005000              1.0000000
F    1   1.00
      0.5000000              1.0000000
****
C     0
S    6   1.00
   3047.5249000              0.0018347
    457.3695100              0.0140373
    103.9486900              0.0688426
     29.2101550              0.2321844
      9.2866630              0.4679413
      3.1639270              0.3623120
SP   3   1.00
      7.8682724             -0.1193324              0.0689991
      1.8812885             -0.1608542              0.3164240
      0.5442493              1.1434564              0.7443083
SP   1   1.00
      0.1687144              1.0000000              1.0000000
D    1   1.00
      1.2520000              1.0000000
D    1   1.00
      0.3130000              1.0000000
F    1   1.00
      0.8000000              1.0000000
****
N     0
S    6   1.00
   4173.5110000              0.0018348
    627.4579000              0.0139950
    142.9021000              0.0685870
     40.2343300              0.2322410
     12.8202100              0.4690700
      4.3904370              0.3604550
SP   3   1.00
     11.6263580             -0.1149610              0.0675800
      2.7162800             -0.1691180              0.3239070
      0.7722180              1.1458520              0.7408950
SP   1   1.00
      0.2120313              1.0000000              1.0000000
D    1   1.00
      1.8260000              1.0000000
D    1   1.00
      0.4565000              1.0000000
F    1   1.00
      1.0000000              1.0000000
****
O     0
S    6   1.00
   5484.6717000              0.0018311
    825.2349500              0.0139501
    188.0469600              0.0684451
     52.9645000              0.2327143
     16.8975700              0.4701930
      5.7996353              0.3585209
SP   3   1.00
     15.5396160             -0.1107775              0.0708743
      3.5999336             -0.1480263              0.3397528
      1.0137618              1.1307670              0.7271586
SP   1   1.00
      0.2700058              1.0000000              1.0000000
D    1   1.00
      2.5840000              1.0000000
D    1   1.00
      0.6460000              1.0000000
F    1   1.00
      1.4000000              1.0000000
****
F     0
S    6   1.00
   7001.7130900              0.0018196169
   1051.3660900              0.0139160796
    239.2856900              0.0684053245
     67.3974453              0.233185760
     21.5199573              0.471267439
      7.40310130             0.356618546
SP   3   1.00
     20.8479528             -0.108506975            0.0716287243
      4.80830834            -0.146451658            0.3459121030
      1.34406986             1.128688580            0.7224699570
SP   1   1.00
      0.358151393            1.0000000              1.0000000
D    1   1.00
      3.5000000              1.0000000
D    1   1.00
      0.8750000              1.0000000
F    1   1.00
      1.8500000              1.0000000
****
Al     0
S    6   1.00
  13983.1000000              0.00194267
   2098.7500000              0.0148599
    477.7050000              0.0728494
    134.3600000              0.2468300
     42.8709000              0.4872580
     14.5189000              0.3234960
SP   6   1.00
    239.6680000             -0.00292619             0.00460285
     57.4419000             -0.0374080              0.0331990
     18.2859000             -0.1144870              0.1362820
      6.5991400              0.1156350              0.3304760
      2.4904900              0.6125950              0.4491460
      0.9445400              0.3937990              0.2657040
SP   3   1.00
      1.2779000             -0.2276060             -0.0175130
      0.3975900              0.00144583             0.2445330
      0.1600950              1.0927900              0.8049340
SP   1   1.00
      0.0556577              1.0000000              1.0000000
D    1   1.00
      0.6500000              1.0000000
D    1   1.00
      0.1625000              1.0000000
F    1   1.00
      0.2500000              1.0000000
****
Si     0
S    6   1.00
  16115.9000000              0.00195948
   2425.5800000              0.01492880
    553.8670000              0.07284780
    156.3400000              0.24613000
     50.0683000              0.48591400
     17.0178000              0.32500200
SP   6   1.00
    292.7180000             -0.00278094             0.00443826
     69.8731000             -0.03571460             0.03266790
     22.3363000             -0.11498500             0.13472100
      8.1503900              0.09356340             0.32867800
      3.1345800              0.60301700             0.44964000
      1.2254300              0.41895900             0.26137200
SP   3   1.00
      1.7273800             -0.24463000            -0.01779510
      0.5729220              0.00431572             0.25353900
      0.2221920              1.09818000             0.80066900
SP   1   1.00
      0.0778369              1.00000000             1.00000000
D    1   1.00
      0.9000000              1.0000000
D    1   1.00
      0.2250000              1.0000000
F    1   1.00
      0.3200000              1.0000000
****
P     0
S    6   1.00
  19413.3000000              0.0018516
   2909.4200000              0.0142062
    661.3640000              0.0699995
    185.7590000              0.2400790
     59.1943000              0.4847620
     20.0310000              0.3352000
SP   6   1.00
    339.4780000             -0.00278217             0.00456462
     81.0101000             -0.0360499              0.03369360
     25.8780000             -0.1166310              0.13975500
      9.4522100              0.0968328              0.33936200
      3.6656600              0.6144180              0.45092100
      1.4674600              0.4037980              0.23858600
SP   3   1.00
      2.1562300             -0.2529230             -0.01776530
      0.7489970              0.0328517              0.27405800
      0.2831450              1.0812500              0.78542100
SP   1   1.00
      0.0998317              1.0000000              1.00000000
D    1   1.00
      1.1000000              1.0000000
D    1   1.00
      0.2750000              1.0000000
F    1   1.00
      0.4500000              1.0000000
****
S     0
S    6   1.00
  21917.1000000              0.0018690
   3301.4900000              0.0142300
    754.1460000              0.0696960
    212.7110000              0.2384870
     67.9896000              0.4833070
     23.0515000              0.3380740
SP   6   1.00
    423.7350000             -0.0023767              0.0040610
    100.7100000             -0.0316930              0.0306810
     32.1599000             -0.1133170              0.1304520
     11.8079000              0.0560900              0.3272050
      4.6311000              0.5922550              0.4528510
      1.8702500              0.4550060              0.2560420
SP   3   1.00
      2.6158400             -0.2503740             -0.0145110
      0.9221670              0.0669570              0.3102630
      0.3412870              1.0545100              0.7544830
SP   1   1.00
      0.1171670              1.0000000              1.0000000
D    1   1.00
      1.3000000              1.0000000
D    1   1.00
      0.3250000              1.0000000
F    1   1.00
      0.5500000              1.0000000
****
Cl     0
S    6   1.00
  25180.1000000              0.0018330
   3780.3500000              0.0140340
    860.4740000              0.0690970
    242.1450000              0.2374520
     77.3349000              0.4830340
     26.2470000              0.3398560
SP   6   1.00
    491.7650000             -0.0022974              0.0039894
    116.9840000             -0.0307140              0.0303180
     37.4153000             -0.1125280              0.1298800
     13.7834000              0.0450160              0.3279510
      5.4521500              0.5893530              0.4535270
      2.2258800              0.4652060              0.2521540
SP   3   1.00
      3.1864900             -0.2518300             -0.0142990
      1.1442700              0.0615890              0.3235720
      0.4203770              1.0601800              0.7435070
SP   1   1.00
      0.1426570              1.0000000              1.0000000
D    1   1.00
      1.5000000              1.0000000
D    1   1.00
      0.3750000              1.0000000
F    1   1.00
      0.7000000              1.0000000
****
}

set {
reference uhf
freeze_core true
e_convergence 10
d_convergence 10
dft_spherical_points 1202
dft_radial_points 99
}

e = energy('b3lyp')

print_out('Grab this energy {0}'.format(e))
--------------------------------------------------------------------------

    Molecular point group: c1

    Geometry (in Bohr), charge = 0, multiplicity = 2:

       Center              X                  Y                   Z               Mass
    ------------   -----------------  -----------------  -----------------  -----------------
         C           -0.265989910765     0.807481049056    -0.000000001852    12.000000000000
         O           -2.179555447765    -0.340947418444     0.000000008048    15.994914619570
         C            2.403051063535    -0.239552331744     0.000000008348    12.000000000000
         H            2.373199169535    -2.300957534144     0.000000028648     1.007825032230
         H            3.386153033235     0.474905186856    -1.663341025252     1.007825032230
         H            3.386153383635     0.474905356056     1.663340791548     1.007825032230

  Charge       = 0
  Multiplicity = 2
  Basis Set: ANONYMOUS6901525A
    Blend: 6-31G_2DFP_
  Basis Set: (ANONYMOUS6901525A AUX)
    Blend: DEF2-UNIVERSAL-JKFIT

    Orbital Energies [Eh]
    ---------------------

    Alpha Occupied:

       1A    -19.186830     2A    -10.270466     3A    -10.209655
       4A     -1.084592     5A     -0.761522     6A     -0.543620
       7A     -0.467722     8A     -0.457677     9A     -0.456550
      10A     -0.388629    11A     -0.386641    12A     -0.191464

    Alpha Virtual:

      13A     -0.017225    14A      0.092177    15A      0.137549
      16A      0.141490    17A      0.218885    18A      0.268799
      19A      0.428693    20A      0.432263    21A      0.443796
      22A      0.493698    23A      0.506083    24A      0.530937
      25A      0.562598    26A      0.578075    27A      0.611572
      28A      0.615975    29A      0.644909    30A      0.718345
      31A      0.767978    32A      0.786210    33A      0.832567
      34A      0.916028    35A      0.926254    36A      0.937733
      37A      1.023785    38A      1.085727    39A      1.109295
      40A      1.154474    41A      1.221891    42A      1.306589
      43A      1.316694    44A      1.328554    45A      1.405344
      46A      1.407492    47A      1.468799    48A      1.559393
      49A      1.631305    50A      1.655534    51A      1.721083
      52A      1.814266    53A      1.837974    54A      1.903066
      55A      2.065848    56A      2.165010    57A      2.504686
      58A      2.679954    59A      2.744625    60A      2.784080
      61A      2.844172    62A      2.894815    63A      2.972164
      64A      3.035552    65A      3.061459    66A      3.104483
      67A      3.116273    68A      3.183905    69A      3.314771
      70A      3.375282    71A      3.393146    72A      3.441816
      73A      3.467145    74A      3.489018    75A      3.571081
      76A      3.746692    77A      3.761563    78A      3.944211
      79A      3.982422    80A      4.060048    81A      4.112900
      82A      4.120540    83A      4.193082    84A      4.389177
      85A      4.436345    86A      4.450696    87A      4.532050
      88A      4.919496    89A      5.037315    90A      5.042736
      91A      5.199356    92A      5.209363    93A      5.482621
      94A      5.490633    95A      5.824107    96A      5.939224
      97A      6.110681    98A      6.771389    99A      6.773551
     100A      7.069515   101A      7.135709   102A      7.533986

    Beta Occupied:

       1A    -19.178761     2A    -10.260455     3A    -10.206223
       4A     -1.068745     5A     -0.749667     6A     -0.524019
       7A     -0.451895     8A     -0.446891     9A     -0.439855
      10A     -0.383534    11A     -0.348824

    Beta Virtual:

      12A     -0.052152    13A     -0.000973    14A      0.094916
      15A      0.143214    16A      0.144649    17A      0.229355
      18A      0.274393    19A      0.434236    20A      0.435693
      21A      0.466311    22A      0.500402    23A      0.527627
      24A      0.539517    25A      0.569056    26A      0.582209
      27A      0.623057    28A      0.629662    29A      0.650946
      30A      0.740491    31A      0.779055    32A      0.796040
      33A      0.833342    34A      0.920887    35A      0.946004
      36A      0.949672    37A      1.028007    38A      1.091962
      39A      1.111314    40A      1.160702    41A      1.231105
      42A      1.312225    43A      1.319510    44A      1.335353
      45A      1.413084    46A      1.415890    47A      1.481293
      48A      1.570444    49A      1.644590    50A      1.670022
      51A      1.727302    52A      1.817380    53A      1.852070
      54A      1.909827    55A      2.072567    56A      2.186423
      57A      2.517398    58A      2.694287    59A      2.759153
      60A      2.804982    61A      2.859201    62A      2.896457
      63A      2.981792    64A      3.052234    65A      3.069964
      66A      3.123394    67A      3.124758    68A      3.218495
      69A      3.358006    70A      3.386516    71A      3.399569
      72A      3.450483    73A      3.482557    74A      3.512176
      75A      3.584463    76A      3.770103    77A      3.773301
      78A      3.953039    79A      3.991771    80A      4.076522
      81A      4.123319    82A      4.127082    83A      4.205103
      84A      4.391443    85A      4.442555    86A      4.454896
      87A      4.542933    88A      4.923379    89A      5.054825
      90A      5.060788    91A      5.201505    92A      5.215112
      93A      5.495162    94A      5.504579    95A      5.837369
      96A      5.944808    97A      6.133903    98A      6.800725
      99A      6.803232   100A      7.073797   101A      7.165071
     102A      7.545619

    Final Occupation by Irrep:
              A
    DOCC [    11 ]
    SOCC [     1 ]

  @DF-UKS Final Energy:  -153.18843224551117

   => Energetics <=

    Nuclear Repulsion Energy =             62.9551404394724301
    One-Electron Energy =                -331.8996549114390291
    Two-Electron Energy =                 132.3411135687387912
    DFT Exchange-Correlation Energy =     -16.5850313422833366
    Empirical Dispersion Energy =           0.0000000000000000
    VV10 Nonlocal Energy =                  0.0000000000000000
    Total Energy =                       -153.1884322455111658

  UHF NO Occupations:
  HONO-2 :   10  A 1.9997813
  HONO-1 :   11  A 1.9992087
  HONO-0 :   12  A 1.0000000
  LUNO+0 :   13  A 0.0007913
  LUNO+1 :   14  A 0.0002187
  LUNO+2 :   15  A 0.0001752
  LUNO+3 :   16  A 0.0000613

Computation Completed

Properties will be evaluated at   0.000000,   0.000000,   0.000000 [a0]

Properties computed using the SCF density matrix

  Nuclear Dipole Moment: [e a0]
     X:     4.5314      Y:    -0.6712      Z:    -0.0000

  Electronic Dipole Moment: [e a0]
     X:    -3.6125      Y:     0.6231      Z:     0.0000

  Dipole Moment: [e a0]
     X:     0.9190      Y:    -0.0480      Z:    -0.0000     Total:     0.9202

  Dipole Moment: [D]
     X:     2.3358      Y:    -0.1221      Z:    -0.0000     Total:     2.3389

*** tstop() called on n058 at Thu Nov  4 14:55:08 2021
Module time:
	user time   =      50.78 seconds =       0.85 minutes
	system time =       0.54 seconds =       0.01 minutes
	total time  =         51 seconds =       0.85 minutes
Total time:
	user time   =      50.78 seconds =       0.85 minutes
	system time =       0.54 seconds =       0.01 minutes
	total time  =         51 seconds =       0.85 minutes
Grab this energy -153.18843224551117
    Psi4 stopped on: Thursday, 04 November 2021 02:55PM
    Psi4 wall time for execution: 0:00:51.36

*** Psi4 exiting successfully. Buy a developer a beer!
