                               Psi4 1.4a2.dev629

  ==> Input File <==

--------------------------------------------------------------------------
import os
memory 14 GB

molecule {
 C   -0.2631223437    0.7988664690   -0.0000000003
 O   -2.2025481111   -0.3292813738    0.0000000103
 C    2.4134811870   -0.2403405284    0.0000000111
 H    2.3964608604   -2.3075854862    0.0000000291
 H    3.3911630038    0.4742376842   -1.6650577007
 H    3.3911633536    0.4742378551    1.6650574705
units bohr
0 2
}

basis {

assign 6-31g_2dfp_

[ 6-31g_2dfp_ ]

spherical

!----------------------------------------------------------------------
! Basis Set Exchange
! Version v0.8.13
! https://www.basissetexchange.org
!----------------------------------------------------------------------
!   Basis set: 6-31G(2df,p)
! Description: 6-31G(2df,p)
!        Role: orbital
!     Version: 0  (Data from the original Basis Set Exchange)
!----------------------------------------------------------------------

****
H     0
S    3   1.00
     18.7311370              0.03349460
      2.8253937              0.23472695
      0.6401217              0.81375733
S    1   1.00
      0.1612778              1.00000000
P    1   1.00
      1.5000000              1.0000000
P    1   1.00
      0.3750000              1.0000000
****
B     0
S    6   1.00
   2068.8823000              0.0018663
    310.6495700              0.0142515
     70.6830330              0.0695516
     19.8610800              0.2325729
      6.2993048              0.4670787
      2.1270270              0.3634314
SP   3   1.00
      4.7279710             -0.1303938              0.0745976
      1.1903377             -0.1307889              0.3078467
      0.3594117              1.1309444              0.7434568
SP   1   1.00
      0.1267512              1.0000000              1.0000000
D    1   1.00
      0.8020000              1.0000000
D    1   1.00
      0.2005000              1.0000000
F    1   1.00
      0.5000000              1.0000000
****
C     0
S    6   1.00
   3047.5249000              0.0018347
    457.3695100              0.0140373
    103.9486900              0.0688426
     29.2101550              0.2321844
      9.2866630              0.4679413
      3.1639270              0.3623120
SP   3   1.00
      7.8682724             -0.1193324              0.0689991
      1.8812885             -0.1608542              0.3164240
      0.5442493              1.1434564              0.7443083
SP   1   1.00
      0.1687144              1.0000000              1.0000000
D    1   1.00
      1.2520000              1.0000000
D    1   1.00
      0.3130000              1.0000000
F    1   1.00
      0.8000000              1.0000000
****
N     0
S    6   1.00
   4173.5110000              0.0018348
    627.4579000              0.0139950
    142.9021000              0.0685870
     40.2343300              0.2322410
     12.8202100              0.4690700
      4.3904370              0.3604550
SP   3   1.00
     11.6263580             -0.1149610              0.0675800
      2.7162800             -0.1691180              0.3239070
      0.7722180              1.1458520              0.7408950
SP   1   1.00
      0.2120313              1.0000000              1.0000000
D    1   1.00
      1.8260000              1.0000000
D    1   1.00
      0.4565000              1.0000000
F    1   1.00
      1.0000000              1.0000000
****
O     0
S    6   1.00
   5484.6717000              0.0018311
    825.2349500              0.0139501
    188.0469600              0.0684451
     52.9645000              0.2327143
     16.8975700              0.4701930
      5.7996353              0.3585209
SP   3   1.00
     15.5396160             -0.1107775              0.0708743
      3.5999336             -0.1480263              0.3397528
      1.0137618              1.1307670              0.7271586
SP   1   1.00
      0.2700058              1.0000000              1.0000000
D    1   1.00
      2.5840000              1.0000000
D    1   1.00
      0.6460000              1.0000000
F    1   1.00
      1.4000000              1.0000000
****
F     0
S    6   1.00
   7001.7130900              0.0018196169
   1051.3660900              0.0139160796
    239.2856900              0.0684053245
     67.3974453              0.233185760
     21.5199573              0.471267439
      7.40310130             0.356618546
SP   3   1.00
     20.8479528             -0.108506975            0.0716287243
      4.80830834            -0.146451658            0.3459121030
      1.34406986             1.128688580            0.7224699570
SP   1   1.00
      0.358151393            1.0000000              1.0000000
D    1   1.00
      3.5000000              1.0000000
D    1   1.00
      0.8750000              1.0000000
F    1   1.00
      1.8500000              1.0000000
****
Al     0
S    6   1.00
  13983.1000000              0.00194267
   2098.7500000              0.0148599
    477.7050000              0.0728494
    134.3600000              0.2468300
     42.8709000              0.4872580
     14.5189000              0.3234960
SP   6   1.00
    239.6680000             -0.00292619             0.00460285
     57.4419000             -0.0374080              0.0331990
     18.2859000             -0.1144870              0.1362820
      6.5991400              0.1156350              0.3304760
      2.4904900              0.6125950              0.4491460
      0.9445400              0.3937990              0.2657040
SP   3   1.00
      1.2779000             -0.2276060             -0.0175130
      0.3975900              0.00144583             0.2445330
      0.1600950              1.0927900              0.8049340
SP   1   1.00
      0.0556577              1.0000000              1.0000000
D    1   1.00
      0.6500000              1.0000000
D    1   1.00
      0.1625000              1.0000000
F    1   1.00
      0.2500000              1.0000000
****
Si     0
S    6   1.00
  16115.9000000              0.00195948
   2425.5800000              0.01492880
    553.8670000              0.07284780
    156.3400000              0.24613000
     50.0683000              0.48591400
     17.0178000              0.32500200
SP   6   1.00
    292.7180000             -0.00278094             0.00443826
     69.8731000             -0.03571460             0.03266790
     22.3363000             -0.11498500             0.13472100
      8.1503900              0.09356340             0.32867800
      3.1345800              0.60301700             0.44964000
      1.2254300              0.41895900             0.26137200
SP   3   1.00
      1.7273800             -0.24463000            -0.01779510
      0.5729220              0.00431572             0.25353900
      0.2221920              1.09818000             0.80066900
SP   1   1.00
      0.0778369              1.00000000             1.00000000
D    1   1.00
      0.9000000              1.0000000
D    1   1.00
      0.2250000              1.0000000
F    1   1.00
      0.3200000              1.0000000
****
P     0
S    6   1.00
  19413.3000000              0.0018516
   2909.4200000              0.0142062
    661.3640000              0.0699995
    185.7590000              0.2400790
     59.1943000              0.4847620
     20.0310000              0.3352000
SP   6   1.00
    339.4780000             -0.00278217             0.00456462
     81.0101000             -0.0360499              0.03369360
     25.8780000             -0.1166310              0.13975500
      9.4522100              0.0968328              0.33936200
      3.6656600              0.6144180              0.45092100
      1.4674600              0.4037980              0.23858600
SP   3   1.00
      2.1562300             -0.2529230             -0.01776530
      0.7489970              0.0328517              0.27405800
      0.2831450              1.0812500              0.78542100
SP   1   1.00
      0.0998317              1.0000000              1.00000000
D    1   1.00
      1.1000000              1.0000000
D    1   1.00
      0.2750000              1.0000000
F    1   1.00
      0.4500000              1.0000000
****
S     0
S    6   1.00
  21917.1000000              0.0018690
   3301.4900000              0.0142300
    754.1460000              0.0696960
    212.7110000              0.2384870
     67.9896000              0.4833070
     23.0515000              0.3380740
SP   6   1.00
    423.7350000             -0.0023767              0.0040610
    100.7100000             -0.0316930              0.0306810
     32.1599000             -0.1133170              0.1304520
     11.8079000              0.0560900              0.3272050
      4.6311000              0.5922550              0.4528510
      1.8702500              0.4550060              0.2560420
SP   3   1.00
      2.6158400             -0.2503740             -0.0145110
      0.9221670              0.0669570              0.3102630
      0.3412870              1.0545100              0.7544830
SP   1   1.00
      0.1171670              1.0000000              1.0000000
D    1   1.00
      1.3000000              1.0000000
D    1   1.00
      0.3250000              1.0000000
F    1   1.00
      0.5500000              1.0000000
****
Cl     0
S    6   1.00
  25180.1000000              0.0018330
   3780.3500000              0.0140340
    860.4740000              0.0690970
    242.1450000              0.2374520
     77.3349000              0.4830340
     26.2470000              0.3398560
SP   6   1.00
    491.7650000             -0.0022974              0.0039894
    116.9840000             -0.0307140              0.0303180
     37.4153000             -0.1125280              0.1298800
     13.7834000              0.0450160              0.3279510
      5.4521500              0.5893530              0.4535270
      2.2258800              0.4652060              0.2521540
SP   3   1.00
      3.1864900             -0.2518300             -0.0142990
      1.1442700              0.0615890              0.3235720
      0.4203770              1.0601800              0.7435070
SP   1   1.00
      0.1426570              1.0000000              1.0000000
D    1   1.00
      1.5000000              1.0000000
D    1   1.00
      0.3750000              1.0000000
F    1   1.00
      0.7000000              1.0000000
****
}

set {
reference uhf
freeze_core true
e_convergence 10
d_convergence 10
dft_spherical_points 1202
dft_radial_points 99
}

e = energy('b3lyp')

print_out('Grab this energy {0}'.format(e))
--------------------------------------------------------------------------

    Molecular point group: c1

    Geometry (in Bohr), charge = 0, multiplicity = 2:

       Center              X                  Y                   Z               Mass
    ------------   -----------------  -----------------  -----------------  -----------------
         C           -0.259062420944     0.797338313208    -0.000000002431    12.000000000000
         O           -2.198488188344    -0.330809529592     0.000000008169    15.994914619570
         C            2.417541109756    -0.241868684192     0.000000008969    12.000000000000
         H            2.400520783156    -2.309113641992     0.000000026969     1.007825032230
         H            3.395222926556     0.472709528408    -1.665057702831     1.007825032230
         H            3.395223276356     0.472709699308     1.665057468369     1.007825032230

  Charge       = 0
  Multiplicity = 2
  Basis Set: ANONYMOUSB22EDEE8
    Blend: 6-31G_2DFP_
  Basis Set: (ANONYMOUSB22EDEE8 AUX)
    Blend: DEF2-UNIVERSAL-JKFIT

    Orbital Energies [Eh]
    ---------------------

    Alpha Occupied:

       1A    -19.186961     2A    -10.271862     3A    -10.210833
       4A     -1.080772     5A     -0.761812     6A     -0.543964
       7A     -0.466001     8A     -0.457241     9A     -0.456318
      10A     -0.387636    11A     -0.386260    12A     -0.191377

    Alpha Virtual:

      13A     -0.019141    14A      0.091536    15A      0.136302
      16A      0.141460    17A      0.216997    18A      0.267911
      19A      0.427789    20A      0.431360    21A      0.443751
      22A      0.493368    23A      0.506381    24A      0.529853
      25A      0.563378    26A      0.576948    27A      0.608361
      28A      0.615956    29A      0.643662    30A      0.718005
      31A      0.764540    32A      0.784784    33A      0.832239
      34A      0.917451    35A      0.926300    36A      0.933894
      37A      1.022924    38A      1.085125    39A      1.106736
      40A      1.152699    41A      1.222591    42A      1.305955
      43A      1.317430    44A      1.326084    45A      1.401311
      46A      1.407431    47A      1.468054    48A      1.559756
      49A      1.632298    50A      1.653705    51A      1.720522
      52A      1.813738    53A      1.831545    54A      1.899490
      55A      2.066534    56A      2.170049    57A      2.493545
      58A      2.680879    59A      2.743754    60A      2.783962
      61A      2.840830    62A      2.895037    63A      2.975685
      64A      3.026525    65A      3.055553    66A      3.104268
      67A      3.114546    68A      3.180268    69A      3.313635
      70A      3.366075    71A      3.393348    72A      3.439549
      73A      3.464881    74A      3.484088    75A      3.569142
      76A      3.738380    77A      3.762414    78A      3.942746
      79A      3.979181    80A      4.053571    81A      4.105944
      82A      4.119555    83A      4.187326    84A      4.390955
      85A      4.430260    86A      4.445133    87A      4.532175
      88A      4.918145    89A      5.036914    90A      5.042163
      91A      5.197886    92A      5.205326    93A      5.471806
      94A      5.481356    95A      5.827606    96A      5.929413
      97A      6.103910    98A      6.770467    99A      6.772808
     100A      7.071725   101A      7.134522   102A      7.529419

    Beta Occupied:

       1A    -19.178930     2A    -10.261775     3A    -10.207473
       4A     -1.064887     5A     -0.750055     6A     -0.524234
       7A     -0.451809     8A     -0.446258     9A     -0.438851
      10A     -0.382459    11A     -0.348151

    Beta Virtual:

      12A     -0.051884    13A     -0.002875    14A      0.094251
      15A      0.142037    16A      0.144570    17A      0.227494
      18A      0.273590    19A      0.433377    20A      0.435241
      21A      0.465224    22A      0.500062    23A      0.527623
      24A      0.539177    25A      0.569716    26A      0.581179
      27A      0.623261    28A      0.626924    29A      0.649478
      30A      0.740143    31A      0.775677    32A      0.794778
      33A      0.833036    34A      0.922282    35A      0.940164
      36A      0.951597    37A      1.027097    38A      1.091136
      39A      1.108914    40A      1.158868    41A      1.231948
      42A      1.311395    43A      1.320283    44A      1.332874
      45A      1.411477    46A      1.412873    47A      1.480157
      48A      1.571003    49A      1.645714    50A      1.667950
      51A      1.726730    52A      1.816989    53A      1.845763
      54A      1.906109    55A      2.073206    56A      2.191385
      57A      2.506224    58A      2.695063    59A      2.758214
      60A      2.805192    61A      2.856568    62A      2.896727
      63A      2.985044    64A      3.043549    65A      3.064198
      66A      3.122874    67A      3.123015    68A      3.215108
      69A      3.357422    70A      3.377744    71A      3.399484
      72A      3.448332    73A      3.479920    74A      3.507039
      75A      3.582243    76A      3.764000    77A      3.771932
      78A      3.951353    79A      3.988464    80A      4.069832
      81A      4.121178    82A      4.122429    83A      4.198544
      84A      4.393168    85A      4.436436    86A      4.449355
      87A      4.543078    88A      4.922040    89A      5.054339
      90A      5.060049    91A      5.200044    92A      5.211012
      93A      5.484463    94A      5.495192    95A      5.840809
      96A      5.934999    97A      6.127010    98A      6.799580
      99A      6.802253   100A      7.076020   101A      7.163778
     102A      7.541056

    Final Occupation by Irrep:
              A
    DOCC [    11 ]
    SOCC [     1 ]

  @DF-UKS Final Energy:  -153.18841700646527

   => Energetics <=

    Nuclear Repulsion Energy =             62.7084443192527559
    One-Electron Energy =                -331.4186719549861095
    Two-Electron Energy =                 132.1008039212539416
    DFT Exchange-Correlation Energy =     -16.5789932919858529
    Empirical Dispersion Energy =           0.0000000000000000
    VV10 Nonlocal Energy =                  0.0000000000000000
    Total Energy =                       -153.1884170064652722

  UHF NO Occupations:
  HONO-2 :   10  A 1.9997848
  HONO-1 :   11  A 1.9992040
  HONO-0 :   12  A 1.0000000
  LUNO+0 :   13  A 0.0007960
  LUNO+1 :   14  A 0.0002152
  LUNO+2 :   15  A 0.0001829
  LUNO+3 :   16  A 0.0000612

Computation Completed

Properties will be evaluated at   0.000000,   0.000000,   0.000000 [a0]

Properties computed using the SCF density matrix

  Nuclear Dipole Moment: [e a0]
     X:     4.5539      Y:    -0.6774      Z:    -0.0000

  Electronic Dipole Moment: [e a0]
     X:    -3.6185      Y:     0.6271      Z:     0.0000

  Dipole Moment: [e a0]
     X:     0.9354      Y:    -0.0502      Z:    -0.0000     Total:     0.9368

  Dipole Moment: [D]
     X:     2.3776      Y:    -0.1277      Z:    -0.0000     Total:     2.3810

*** tstop() called on n077 at Thu Nov  4 14:51:47 2021
Module time:
	user time   =      44.02 seconds =       0.73 minutes
	system time =       0.56 seconds =       0.01 minutes
	total time  =         45 seconds =       0.75 minutes
Total time:
	user time   =      44.02 seconds =       0.73 minutes
	system time =       0.56 seconds =       0.01 minutes
	total time  =         45 seconds =       0.75 minutes
Grab this energy -153.18841700646527
    Psi4 stopped on: Thursday, 04 November 2021 02:51PM
    Psi4 wall time for execution: 0:00:44.62

*** Psi4 exiting successfully. Buy a developer a beer!
