                               Psi4 1.4a2.dev629

  ==> Input File <==

--------------------------------------------------------------------------
import os
memory 14 GB

molecule {
 C   -0.2595665600    0.8060355968    0.0010043825
 O   -2.1912764966   -0.3331937911   -0.0002834090
 C    2.4105528916   -0.2442740698   -0.0025986655
 H    2.3825226127   -2.3140632566    0.0010261690
 H    3.3913734693    0.4700596576   -1.6591382214
 H    3.3910320651    0.4698015109    1.6599897444
units bohr
0 2
}

basis {

assign 6-31g_2dfp_

[ 6-31g_2dfp_ ]

spherical

!----------------------------------------------------------------------
! Basis Set Exchange
! Version v0.8.13
! https://www.basissetexchange.org
!----------------------------------------------------------------------
!   Basis set: 6-31G(2df,p)
! Description: 6-31G(2df,p)
!        Role: orbital
!     Version: 0  (Data from the original Basis Set Exchange)
!----------------------------------------------------------------------

****
H     0
S    3   1.00
     18.7311370              0.03349460
      2.8253937              0.23472695
      0.6401217              0.81375733
S    1   1.00
      0.1612778              1.00000000
P    1   1.00
      1.5000000              1.0000000
P    1   1.00
      0.3750000              1.0000000
****
B     0
S    6   1.00
   2068.8823000              0.0018663
    310.6495700              0.0142515
     70.6830330              0.0695516
     19.8610800              0.2325729
      6.2993048              0.4670787
      2.1270270              0.3634314
SP   3   1.00
      4.7279710             -0.1303938              0.0745976
      1.1903377             -0.1307889              0.3078467
      0.3594117              1.1309444              0.7434568
SP   1   1.00
      0.1267512              1.0000000              1.0000000
D    1   1.00
      0.8020000              1.0000000
D    1   1.00
      0.2005000              1.0000000
F    1   1.00
      0.5000000              1.0000000
****
C     0
S    6   1.00
   3047.5249000              0.0018347
    457.3695100              0.0140373
    103.9486900              0.0688426
     29.2101550              0.2321844
      9.2866630              0.4679413
      3.1639270              0.3623120
SP   3   1.00
      7.8682724             -0.1193324              0.0689991
      1.8812885             -0.1608542              0.3164240
      0.5442493              1.1434564              0.7443083
SP   1   1.00
      0.1687144              1.0000000              1.0000000
D    1   1.00
      1.2520000              1.0000000
D    1   1.00
      0.3130000              1.0000000
F    1   1.00
      0.8000000              1.0000000
****
N     0
S    6   1.00
   4173.5110000              0.0018348
    627.4579000              0.0139950
    142.9021000              0.0685870
     40.2343300              0.2322410
     12.8202100              0.4690700
      4.3904370              0.3604550
SP   3   1.00
     11.6263580             -0.1149610              0.0675800
      2.7162800             -0.1691180              0.3239070
      0.7722180              1.1458520              0.7408950
SP   1   1.00
      0.2120313              1.0000000              1.0000000
D    1   1.00
      1.8260000              1.0000000
D    1   1.00
      0.4565000              1.0000000
F    1   1.00
      1.0000000              1.0000000
****
O     0
S    6   1.00
   5484.6717000              0.0018311
    825.2349500              0.0139501
    188.0469600              0.0684451
     52.9645000              0.2327143
     16.8975700              0.4701930
      5.7996353              0.3585209
SP   3   1.00
     15.5396160             -0.1107775              0.0708743
      3.5999336             -0.1480263              0.3397528
      1.0137618              1.1307670              0.7271586
SP   1   1.00
      0.2700058              1.0000000              1.0000000
D    1   1.00
      2.5840000              1.0000000
D    1   1.00
      0.6460000              1.0000000
F    1   1.00
      1.4000000              1.0000000
****
F     0
S    6   1.00
   7001.7130900              0.0018196169
   1051.3660900              0.0139160796
    239.2856900              0.0684053245
     67.3974453              0.233185760
     21.5199573              0.471267439
      7.40310130             0.356618546
SP   3   1.00
     20.8479528             -0.108506975            0.0716287243
      4.80830834            -0.146451658            0.3459121030
      1.34406986             1.128688580            0.7224699570
SP   1   1.00
      0.358151393            1.0000000              1.0000000
D    1   1.00
      3.5000000              1.0000000
D    1   1.00
      0.8750000              1.0000000
F    1   1.00
      1.8500000              1.0000000
****
Al     0
S    6   1.00
  13983.1000000              0.00194267
   2098.7500000              0.0148599
    477.7050000              0.0728494
    134.3600000              0.2468300
     42.8709000              0.4872580
     14.5189000              0.3234960
SP   6   1.00
    239.6680000             -0.00292619             0.00460285
     57.4419000             -0.0374080              0.0331990
     18.2859000             -0.1144870              0.1362820
      6.5991400              0.1156350              0.3304760
      2.4904900              0.6125950              0.4491460
      0.9445400              0.3937990              0.2657040
SP   3   1.00
      1.2779000             -0.2276060             -0.0175130
      0.3975900              0.00144583             0.2445330
      0.1600950              1.0927900              0.8049340
SP   1   1.00
      0.0556577              1.0000000              1.0000000
D    1   1.00
      0.6500000              1.0000000
D    1   1.00
      0.1625000              1.0000000
F    1   1.00
      0.2500000              1.0000000
****
Si     0
S    6   1.00
  16115.9000000              0.00195948
   2425.5800000              0.01492880
    553.8670000              0.07284780
    156.3400000              0.24613000
     50.0683000              0.48591400
     17.0178000              0.32500200
SP   6   1.00
    292.7180000             -0.00278094             0.00443826
     69.8731000             -0.03571460             0.03266790
     22.3363000             -0.11498500             0.13472100
      8.1503900              0.09356340             0.32867800
      3.1345800              0.60301700             0.44964000
      1.2254300              0.41895900             0.26137200
SP   3   1.00
      1.7273800             -0.24463000            -0.01779510
      0.5729220              0.00431572             0.25353900
      0.2221920              1.09818000             0.80066900
SP   1   1.00
      0.0778369              1.00000000             1.00000000
D    1   1.00
      0.9000000              1.0000000
D    1   1.00
      0.2250000              1.0000000
F    1   1.00
      0.3200000              1.0000000
****
P     0
S    6   1.00
  19413.3000000              0.0018516
   2909.4200000              0.0142062
    661.3640000              0.0699995
    185.7590000              0.2400790
     59.1943000              0.4847620
     20.0310000              0.3352000
SP   6   1.00
    339.4780000             -0.00278217             0.00456462
     81.0101000             -0.0360499              0.03369360
     25.8780000             -0.1166310              0.13975500
      9.4522100              0.0968328              0.33936200
      3.6656600              0.6144180              0.45092100
      1.4674600              0.4037980              0.23858600
SP   3   1.00
      2.1562300             -0.2529230             -0.01776530
      0.7489970              0.0328517              0.27405800
      0.2831450              1.0812500              0.78542100
SP   1   1.00
      0.0998317              1.0000000              1.00000000
D    1   1.00
      1.1000000              1.0000000
D    1   1.00
      0.2750000              1.0000000
F    1   1.00
      0.4500000              1.0000000
****
S     0
S    6   1.00
  21917.1000000              0.0018690
   3301.4900000              0.0142300
    754.1460000              0.0696960
    212.7110000              0.2384870
     67.9896000              0.4833070
     23.0515000              0.3380740
SP   6   1.00
    423.7350000             -0.0023767              0.0040610
    100.7100000             -0.0316930              0.0306810
     32.1599000             -0.1133170              0.1304520
     11.8079000              0.0560900              0.3272050
      4.6311000              0.5922550              0.4528510
      1.8702500              0.4550060              0.2560420
SP   3   1.00
      2.6158400             -0.2503740             -0.0145110
      0.9221670              0.0669570              0.3102630
      0.3412870              1.0545100              0.7544830
SP   1   1.00
      0.1171670              1.0000000              1.0000000
D    1   1.00
      1.3000000              1.0000000
D    1   1.00
      0.3250000              1.0000000
F    1   1.00
      0.5500000              1.0000000
****
Cl     0
S    6   1.00
  25180.1000000              0.0018330
   3780.3500000              0.0140340
    860.4740000              0.0690970
    242.1450000              0.2374520
     77.3349000              0.4830340
     26.2470000              0.3398560
SP   6   1.00
    491.7650000             -0.0022974              0.0039894
    116.9840000             -0.0307140              0.0303180
     37.4153000             -0.1125280              0.1298800
     13.7834000              0.0450160              0.3279510
      5.4521500              0.5893530              0.4535270
      2.2258800              0.4652060              0.2521540
SP   3   1.00
      3.1864900             -0.2518300             -0.0142990
      1.1442700              0.0615890              0.3235720
      0.4203770              1.0601800              0.7435070
SP   1   1.00
      0.1426570              1.0000000              1.0000000
D    1   1.00
      1.5000000              1.0000000
D    1   1.00
      0.3750000              1.0000000
F    1   1.00
      0.7000000              1.0000000
****
}

set {
reference uhf
freeze_core true
e_convergence 10
d_convergence 10
dft_spherical_points 1202
dft_radial_points 99
}

e = energy('b3lyp')

print_out('Grab this energy {0}'.format(e))
--------------------------------------------------------------------------

    Molecular point group: c1

    Geometry (in Bohr), charge = 0, multiplicity = 2:

       Center              X                  Y                   Z               Mass
    ------------   -----------------  -----------------  -----------------  -----------------
         C           -0.259547951992     0.805413146261     0.001510494279    12.000000000000
         O           -2.191257888592    -0.333816241639     0.000222702779    15.994914619570
         C            2.410571499608    -0.244896520339    -0.002092553721    12.000000000000
         H            2.382541220708    -2.314685707139     0.001532280779     1.007825032230
         H            3.391392077308     0.469437207061    -1.658632109621     1.007825032230
         H            3.391050673108     0.469179060361     1.660495856179     1.007825032230

  Charge       = 0
  Multiplicity = 2
  Basis Set: ANONYMOUS51F0AB0C
    Blend: 6-31G_2DFP_
  Basis Set: (ANONYMOUS51F0AB0C AUX)
    Blend: DEF2-UNIVERSAL-JKFIT

    Orbital Energies [Eh]
    ---------------------

    Alpha Occupied:

       1A    -19.186961     2A    -10.271684     3A    -10.210343
       4A     -1.081279     5A     -0.761916     6A     -0.543963
       7A     -0.466640     8A     -0.457076     9A     -0.456378
      10A     -0.387640    11A     -0.386104    12A     -0.192211

    Alpha Virtual:

      13A     -0.018888    14A      0.092027    15A      0.136272
      16A      0.141767    17A      0.217669    18A      0.268117
      19A      0.428269    20A      0.431419    21A      0.443795
      22A      0.493895    23A      0.506115    24A      0.530185
      25A      0.563314    26A      0.577296    27A      0.608308
      28A      0.616343    29A      0.643770    30A      0.717617
      31A      0.766088    32A      0.785277    33A      0.832557
      34A      0.917322    35A      0.927246    36A      0.935278
      37A      1.023318    38A      1.084368    39A      1.108706
      40A      1.153384    41A      1.220824    42A      1.306316
      43A      1.316411    44A      1.327210    45A      1.403830
      46A      1.408161    47A      1.467746    48A      1.559759
      49A      1.630280    50A      1.653872    51A      1.720707
      52A      1.814844    53A      1.833528    54A      1.900995
      55A      2.065609    56A      2.165864    57A      2.495428
      58A      2.680324    59A      2.743734    60A      2.783236
      61A      2.844211    62A      2.894339    63A      2.972377
      64A      3.030927    65A      3.058069    66A      3.105115
      67A      3.114759    68A      3.183373    69A      3.313890
      70A      3.370306    71A      3.392641    72A      3.439344
      73A      3.465839    74A      3.486578    75A      3.569970
      76A      3.739316    77A      3.760138    78A      3.942603
      79A      3.982393    80A      4.055732    81A      4.110224
      82A      4.119187    83A      4.189091    84A      4.390658
      85A      4.433166    86A      4.449514    87A      4.530989
      88A      4.919854    89A      5.036987    90A      5.042214
      91A      5.202402    92A      5.203641    93A      5.473396
      94A      5.482690    95A      5.826501    96A      5.930195
      97A      6.103595    98A      6.770577    99A      6.772745
     100A      7.070744   101A      7.134933   102A      7.529738

    Beta Occupied:

       1A    -19.178896     2A    -10.261630     3A    -10.206960
       4A     -1.065354     5A     -0.750139     6A     -0.524287
       7A     -0.451861     8A     -0.446437     9A     -0.439003
      10A     -0.382441    11A     -0.347918

    Beta Virtual:

      12A     -0.052828    13A     -0.002605    14A      0.094802
      15A      0.141937    16A      0.144876    17A      0.228155
      18A      0.273799    19A      0.433408    20A      0.435595
      21A      0.465702    22A      0.500598    23A      0.527498
      24A      0.539183    25A      0.569756    26A      0.581458
      27A      0.623463    28A      0.626845    29A      0.649427
      30A      0.739586    31A      0.777237    32A      0.795246
      33A      0.833342    34A      0.922160    35A      0.943278
      36A      0.950959    37A      1.027507    38A      1.090570
      39A      1.110735    40A      1.159591    41A      1.230064
      42A      1.311938    43A      1.319274    44A      1.333993
      45A      1.412645    46A      1.415235    47A      1.480026
      48A      1.570990    49A      1.643491    50A      1.668255
      51A      1.726954    52A      1.818006    53A      1.847670
      54A      1.907623    55A      2.072322    56A      2.187261
      57A      2.508100    58A      2.694596    59A      2.758100
      60A      2.804348    61A      2.859683    62A      2.895983
      63A      2.981882    64A      3.047783    65A      3.066536
      66A      3.122749    67A      3.124125    68A      3.218070
      69A      3.357478    70A      3.381821    71A      3.399043
      72A      3.447786    73A      3.481312    74A      3.509591
      75A      3.583099    76A      3.765095    77A      3.769579
      78A      3.951293    79A      3.991708    80A      4.072176
      81A      4.121973    82A      4.125641    83A      4.200146
      84A      4.392876    85A      4.439349    86A      4.453713
      87A      4.541827    88A      4.923781    89A      5.054444
      90A      5.060222    91A      5.205853    92A      5.208119
      93A      5.486033    94A      5.496540    95A      5.839736
      96A      5.935779    97A      6.126792    98A      6.799861
      99A      6.802371   100A      7.075041   101A      7.164305
     102A      7.541401

    Final Occupation by Irrep:
              A
    DOCC [    11 ]
    SOCC [     1 ]

  @DF-UKS Final Energy:  -153.18841711201148

   => Energetics <=

    Nuclear Repulsion Energy =             62.7814106985327101
    One-Electron Energy =                -331.5624213957935353
    Two-Electron Energy =                 132.1730172692121243
    DFT Exchange-Correlation Energy =     -16.5804236839627563
    Empirical Dispersion Energy =           0.0000000000000000
    VV10 Nonlocal Energy =                  0.0000000000000000
    Total Energy =                       -153.1884171120114786

  UHF NO Occupations:
  HONO-2 :   10  A 1.9997832
  HONO-1 :   11  A 1.9992018
  HONO-0 :   12  A 1.0000000
  LUNO+0 :   13  A 0.0007982
  LUNO+1 :   14  A 0.0002168
  LUNO+2 :   15  A 0.0001797
  LUNO+3 :   16  A 0.0000616

Computation Completed

Properties will be evaluated at   0.000000,   0.000000,   0.000000 [a0]

Properties computed using the SCF density matrix

  Nuclear Dipole Moment: [e a0]
     X:     4.5411      Y:    -0.6835      Z:     0.0017

  Electronic Dipole Moment: [e a0]
     X:    -3.6099      Y:     0.6344      Z:    -0.0020

  Dipole Moment: [e a0]
     X:     0.9312      Y:    -0.0491      Z:    -0.0004     Total:     0.9325

  Dipole Moment: [D]
     X:     2.3668      Y:    -0.1247      Z:    -0.0009     Total:     2.3701

*** tstop() called on n054 at Tue Mar 15 10:28:24 2022
Module time:
	user time   =      50.75 seconds =       0.85 minutes
	system time =       0.52 seconds =       0.01 minutes
	total time  =         52 seconds =       0.87 minutes
Total time:
	user time   =      50.75 seconds =       0.85 minutes
	system time =       0.52 seconds =       0.01 minutes
	total time  =         52 seconds =       0.87 minutes
Grab this energy -153.18841711201148
    Psi4 stopped on: Tuesday, 15 March 2022 10:28AM
    Psi4 wall time for execution: 0:00:51.31

*** Psi4 exiting successfully. Buy a developer a beer!
