                               Psi4 1.4a2.dev629

  ==> Input File <==

--------------------------------------------------------------------------
import os
memory 14 GB

molecule {
 C   -0.2615560004    0.8000819710   -0.0010354888
 O   -2.2031384182   -0.3255754871   -0.0040768255
 C    2.4126784410   -0.2473089465    0.0008008187
 H    2.3925435166   -2.3113916727    0.0033189998
 H    3.3853238287    0.4713442312   -1.6642949699
 H    3.3987866146    0.4672155519    1.6652874657
units bohr
0 2
}

basis {

assign 6-31g_2dfp_

[ 6-31g_2dfp_ ]

spherical

!----------------------------------------------------------------------
! Basis Set Exchange
! Version v0.8.13
! https://www.basissetexchange.org
!----------------------------------------------------------------------
!   Basis set: 6-31G(2df,p)
! Description: 6-31G(2df,p)
!        Role: orbital
!     Version: 0  (Data from the original Basis Set Exchange)
!----------------------------------------------------------------------

****
H     0
S    3   1.00
     18.7311370              0.03349460
      2.8253937              0.23472695
      0.6401217              0.81375733
S    1   1.00
      0.1612778              1.00000000
P    1   1.00
      1.5000000              1.0000000
P    1   1.00
      0.3750000              1.0000000
****
B     0
S    6   1.00
   2068.8823000              0.0018663
    310.6495700              0.0142515
     70.6830330              0.0695516
     19.8610800              0.2325729
      6.2993048              0.4670787
      2.1270270              0.3634314
SP   3   1.00
      4.7279710             -0.1303938              0.0745976
      1.1903377             -0.1307889              0.3078467
      0.3594117              1.1309444              0.7434568
SP   1   1.00
      0.1267512              1.0000000              1.0000000
D    1   1.00
      0.8020000              1.0000000
D    1   1.00
      0.2005000              1.0000000
F    1   1.00
      0.5000000              1.0000000
****
C     0
S    6   1.00
   3047.5249000              0.0018347
    457.3695100              0.0140373
    103.9486900              0.0688426
     29.2101550              0.2321844
      9.2866630              0.4679413
      3.1639270              0.3623120
SP   3   1.00
      7.8682724             -0.1193324              0.0689991
      1.8812885             -0.1608542              0.3164240
      0.5442493              1.1434564              0.7443083
SP   1   1.00
      0.1687144              1.0000000              1.0000000
D    1   1.00
      1.2520000              1.0000000
D    1   1.00
      0.3130000              1.0000000
F    1   1.00
      0.8000000              1.0000000
****
N     0
S    6   1.00
   4173.5110000              0.0018348
    627.4579000              0.0139950
    142.9021000              0.0685870
     40.2343300              0.2322410
     12.8202100              0.4690700
      4.3904370              0.3604550
SP   3   1.00
     11.6263580             -0.1149610              0.0675800
      2.7162800             -0.1691180              0.3239070
      0.7722180              1.1458520              0.7408950
SP   1   1.00
      0.2120313              1.0000000              1.0000000
D    1   1.00
      1.8260000              1.0000000
D    1   1.00
      0.4565000              1.0000000
F    1   1.00
      1.0000000              1.0000000
****
O     0
S    6   1.00
   5484.6717000              0.0018311
    825.2349500              0.0139501
    188.0469600              0.0684451
     52.9645000              0.2327143
     16.8975700              0.4701930
      5.7996353              0.3585209
SP   3   1.00
     15.5396160             -0.1107775              0.0708743
      3.5999336             -0.1480263              0.3397528
      1.0137618              1.1307670              0.7271586
SP   1   1.00
      0.2700058              1.0000000              1.0000000
D    1   1.00
      2.5840000              1.0000000
D    1   1.00
      0.6460000              1.0000000
F    1   1.00
      1.4000000              1.0000000
****
F     0
S    6   1.00
   7001.7130900              0.0018196169
   1051.3660900              0.0139160796
    239.2856900              0.0684053245
     67.3974453              0.233185760
     21.5199573              0.471267439
      7.40310130             0.356618546
SP   3   1.00
     20.8479528             -0.108506975            0.0716287243
      4.80830834            -0.146451658            0.3459121030
      1.34406986             1.128688580            0.7224699570
SP   1   1.00
      0.358151393            1.0000000              1.0000000
D    1   1.00
      3.5000000              1.0000000
D    1   1.00
      0.8750000              1.0000000
F    1   1.00
      1.8500000              1.0000000
****
Al     0
S    6   1.00
  13983.1000000              0.00194267
   2098.7500000              0.0148599
    477.7050000              0.0728494
    134.3600000              0.2468300
     42.8709000              0.4872580
     14.5189000              0.3234960
SP   6   1.00
    239.6680000             -0.00292619             0.00460285
     57.4419000             -0.0374080              0.0331990
     18.2859000             -0.1144870              0.1362820
      6.5991400              0.1156350              0.3304760
      2.4904900              0.6125950              0.4491460
      0.9445400              0.3937990              0.2657040
SP   3   1.00
      1.2779000             -0.2276060             -0.0175130
      0.3975900              0.00144583             0.2445330
      0.1600950              1.0927900              0.8049340
SP   1   1.00
      0.0556577              1.0000000              1.0000000
D    1   1.00
      0.6500000              1.0000000
D    1   1.00
      0.1625000              1.0000000
F    1   1.00
      0.2500000              1.0000000
****
Si     0
S    6   1.00
  16115.9000000              0.00195948
   2425.5800000              0.01492880
    553.8670000              0.07284780
    156.3400000              0.24613000
     50.0683000              0.48591400
     17.0178000              0.32500200
SP   6   1.00
    292.7180000             -0.00278094             0.00443826
     69.8731000             -0.03571460             0.03266790
     22.3363000             -0.11498500             0.13472100
      8.1503900              0.09356340             0.32867800
      3.1345800              0.60301700             0.44964000
      1.2254300              0.41895900             0.26137200
SP   3   1.00
      1.7273800             -0.24463000            -0.01779510
      0.5729220              0.00431572             0.25353900
      0.2221920              1.09818000             0.80066900
SP   1   1.00
      0.0778369              1.00000000             1.00000000
D    1   1.00
      0.9000000              1.0000000
D    1   1.00
      0.2250000              1.0000000
F    1   1.00
      0.3200000              1.0000000
****
P     0
S    6   1.00
  19413.3000000              0.0018516
   2909.4200000              0.0142062
    661.3640000              0.0699995
    185.7590000              0.2400790
     59.1943000              0.4847620
     20.0310000              0.3352000
SP   6   1.00
    339.4780000             -0.00278217             0.00456462
     81.0101000             -0.0360499              0.03369360
     25.8780000             -0.1166310              0.13975500
      9.4522100              0.0968328              0.33936200
      3.6656600              0.6144180              0.45092100
      1.4674600              0.4037980              0.23858600
SP   3   1.00
      2.1562300             -0.2529230             -0.01776530
      0.7489970              0.0328517              0.27405800
      0.2831450              1.0812500              0.78542100
SP   1   1.00
      0.0998317              1.0000000              1.00000000
D    1   1.00
      1.1000000              1.0000000
D    1   1.00
      0.2750000              1.0000000
F    1   1.00
      0.4500000              1.0000000
****
S     0
S    6   1.00
  21917.1000000              0.0018690
   3301.4900000              0.0142300
    754.1460000              0.0696960
    212.7110000              0.2384870
     67.9896000              0.4833070
     23.0515000              0.3380740
SP   6   1.00
    423.7350000             -0.0023767              0.0040610
    100.7100000             -0.0316930              0.0306810
     32.1599000             -0.1133170              0.1304520
     11.8079000              0.0560900              0.3272050
      4.6311000              0.5922550              0.4528510
      1.8702500              0.4550060              0.2560420
SP   3   1.00
      2.6158400             -0.2503740             -0.0145110
      0.9221670              0.0669570              0.3102630
      0.3412870              1.0545100              0.7544830
SP   1   1.00
      0.1171670              1.0000000              1.0000000
D    1   1.00
      1.3000000              1.0000000
D    1   1.00
      0.3250000              1.0000000
F    1   1.00
      0.5500000              1.0000000
****
Cl     0
S    6   1.00
  25180.1000000              0.0018330
   3780.3500000              0.0140340
    860.4740000              0.0690970
    242.1450000              0.2374520
     77.3349000              0.4830340
     26.2470000              0.3398560
SP   6   1.00
    491.7650000             -0.0022974              0.0039894
    116.9840000             -0.0307140              0.0303180
     37.4153000             -0.1125280              0.1298800
     13.7834000              0.0450160              0.3279510
      5.4521500              0.5893530              0.4535270
      2.2258800              0.4652060              0.2521540
SP   3   1.00
      3.1864900             -0.2518300             -0.0142990
      1.1442700              0.0615890              0.3235720
      0.4203770              1.0601800              0.7435070
SP   1   1.00
      0.1426570              1.0000000              1.0000000
D    1   1.00
      1.5000000              1.0000000
D    1   1.00
      0.3750000              1.0000000
F    1   1.00
      0.7000000              1.0000000
****
}

set {
reference uhf
freeze_core true
e_convergence 10
d_convergence 10
dft_spherical_points 1202
dft_radial_points 99
}

e = energy('b3lyp')

print_out('Grab this energy {0}'.format(e))
--------------------------------------------------------------------------

    Molecular point group: c1

    Geometry (in Bohr), charge = 0, multiplicity = 2:

       Center              X                  Y                   Z               Mass
    ------------   -----------------  -----------------  -----------------  -----------------
         C           -0.257439620515     0.799102161377     0.000444791708    12.000000000000
         O           -2.199022038315    -0.326555296723    -0.002596544992    15.994914619570
         C            2.416794820885    -0.248288756123     0.002281099208    12.000000000000
         H            2.396659896485    -2.312371482323     0.004799280308     1.007825032230
         H            3.389440208585     0.470364421577    -1.662814689392     1.007825032230
         H            3.402902994485     0.466235742277     1.666767746208     1.007825032230

  Charge       = 0
  Multiplicity = 2
  Basis Set: ANONYMOUS7E787B17
    Blend: 6-31G_2DFP_
  Basis Set: (ANONYMOUS7E787B17 AUX)
    Blend: DEF2-UNIVERSAL-JKFIT

    Orbital Energies [Eh]
    ---------------------

    Alpha Occupied:

       1A    -19.186971     2A    -10.271930     3A    -10.210834
       4A     -1.080616     5A     -0.761760     6A     -0.543959
       7A     -0.466037     8A     -0.457423     9A     -0.455964
      10A     -0.387453    11A     -0.386313    12A     -0.191618

    Alpha Virtual:

      13A     -0.019189    14A      0.091493    15A      0.136689
      16A      0.141178    17A      0.216794    18A      0.267851
      19A      0.427588    20A      0.431595    21A      0.443598
      22A      0.493419    23A      0.506428    24A      0.530079
      25A      0.563270    26A      0.577072    27A      0.608139
      28A      0.615669    29A      0.643751    30A      0.717938
      31A      0.764620    32A      0.784769    33A      0.832227
      34A      0.917526    35A      0.926167    36A      0.933980
      37A      1.022952    38A      1.085476    39A      1.106894
      40A      1.152175    41A      1.221311    42A      1.306019
      43A      1.316693    44A      1.326386    45A      1.402098
      46A      1.407740    47A      1.467929    48A      1.560204
      49A      1.632055    50A      1.653604    51A      1.720717
      52A      1.813029    53A      1.831468    54A      1.900159
      55A      2.066223    56A      2.169300    57A      2.493166
      58A      2.680386    59A      2.743480    60A      2.784014
      61A      2.841147    62A      2.894571    63A      2.975322
      64A      3.027577    65A      3.056042    66A      3.104688
      67A      3.113781    68A      3.180629    69A      3.313486
      70A      3.366178    71A      3.393440    72A      3.439714
      73A      3.464326    74A      3.483878    75A      3.569499
      76A      3.737746    77A      3.762430    78A      3.941651
      79A      3.979849    80A      4.052955    81A      4.106474
      82A      4.119253    83A      4.186743    84A      4.388046
      85A      4.430568    86A      4.447039    87A      4.532607
      88A      4.918466    89A      5.036870    90A      5.042087
      91A      5.197372    92A      5.205982    93A      5.471319
      94A      5.480698    95A      5.827549    96A      5.928872
      97A      6.103242    98A      6.770396    99A      6.772690
     100A      7.071583   101A      7.134621   102A      7.529114

    Beta Occupied:

       1A    -19.178931     2A    -10.261848     3A    -10.207468
       4A     -1.064714     5A     -0.749997     6A     -0.524201
       7A     -0.451559     8A     -0.446629     9A     -0.438679
      10A     -0.382274    11A     -0.348094

    Beta Virtual:

      12A     -0.052121    13A     -0.002920    14A      0.094190
      15A      0.142396    16A      0.144301    17A      0.227302
      18A      0.273545    19A      0.433506    20A      0.435157
      21A      0.465057    22A      0.500104    23A      0.527705
      24A      0.539366    25A      0.569583    26A      0.581307
      27A      0.623000    28A      0.626725    29A      0.649526
      30A      0.740012    31A      0.775751    32A      0.794777
      33A      0.833012    34A      0.922362    35A      0.940141
      36A      0.951589    37A      1.027131    38A      1.091502
      39A      1.109026    40A      1.158352    41A      1.230669
      42A      1.311500    43A      1.319548    44A      1.333158
      45A      1.412273    46A      1.413245    47A      1.480081
      48A      1.571326    49A      1.645498    50A      1.667871
      51A      1.726944    52A      1.816250    53A      1.845663
      54A      1.906787    55A      2.072912    56A      2.190638
      57A      2.505844    58A      2.694593    59A      2.757916
      60A      2.805283    61A      2.856860    62A      2.896227
      63A      2.984720    64A      3.044513    65A      3.064710
      66A      3.121684    67A      3.123764    68A      3.215456
      69A      3.357253    70A      3.377902    71A      3.399652
      72A      3.448357    73A      3.479519    74A      3.506696
      75A      3.582721    76A      3.763329    77A      3.771997
      78A      3.950235    79A      3.989135    80A      4.069260
      81A      4.121650    82A      4.122111    83A      4.198001
      84A      4.390307    85A      4.436684    86A      4.451238
      87A      4.543516    88A      4.922333    89A      5.054327
      90A      5.060000    91A      5.199526    92A      5.211680
      93A      5.483987    94A      5.494546    95A      5.840760
      96A      5.934461    97A      6.126357    98A      6.799550
      99A      6.802176   100A      7.075882   101A      7.163909
     102A      7.540761

    Final Occupation by Irrep:
              A
    DOCC [    11 ]
    SOCC [     1 ]

  @DF-UKS Final Energy:  -153.18841307150223

   => Energetics <=

    Nuclear Repulsion Energy =             62.7008836144697739
    One-Electron Energy =                -331.4043565928432145
    Two-Electron Energy =                 132.0938017379003497
    DFT Exchange-Correlation Energy =     -16.5787418310291379
    Empirical Dispersion Energy =           0.0000000000000000
    VV10 Nonlocal Energy =                  0.0000000000000000
    Total Energy =                       -153.1884130715022252

  UHF NO Occupations:
  HONO-2 :   10  A 1.9997844
  HONO-1 :   11  A 1.9992030
  HONO-0 :   12  A 1.0000000
  LUNO+0 :   13  A 0.0007970
  LUNO+1 :   14  A 0.0002156
  LUNO+2 :   15  A 0.0001825
  LUNO+3 :   16  A 0.0000613

Computation Completed

Properties will be evaluated at   0.000000,   0.000000,   0.000000 [a0]

Properties computed using the SCF density matrix

  Nuclear Dipole Moment: [e a0]
     X:     4.5530      Y:    -0.6833      Z:     0.0043

  Electronic Dipole Moment: [e a0]
     X:    -3.6176      Y:     0.6310      Z:    -0.0034

  Dipole Moment: [e a0]
     X:     0.9354      Y:    -0.0523      Z:     0.0010     Total:     0.9368

  Dipole Moment: [D]
     X:     2.3775      Y:    -0.1329      Z:     0.0025     Total:     2.3812

*** tstop() called on n033 at Tue Mar 15 10:36:51 2022
Module time:
	user time   =      62.27 seconds =       1.04 minutes
	system time =       0.43 seconds =       0.01 minutes
	total time  =         63 seconds =       1.05 minutes
Total time:
	user time   =      62.27 seconds =       1.04 minutes
	system time =       0.43 seconds =       0.01 minutes
	total time  =         63 seconds =       1.05 minutes
Grab this energy -153.18841307150223
    Psi4 stopped on: Tuesday, 15 March 2022 10:36AM
    Psi4 wall time for execution: 0:01:02.75

*** Psi4 exiting successfully. Buy a developer a beer!
