                               Psi4 1.4a2.dev629

  ==> Input File <==

--------------------------------------------------------------------------
import os
memory 14 GB

molecule {
 C   -0.2540050131    0.8063880311    0.0000000000
 O   -2.1942697114   -0.3347974705    0.0000000000
 C    2.4098988841   -0.2449521863   -0.0000000000
 H    2.3829007805   -2.3094532710   -0.0000000000
 H    3.3900565211    0.4685902722   -1.6645318109
 H    3.3900565211    0.4685902722    1.6645318109
units bohr
0 2
}

basis {

assign 6-31g_2dfp_

[ 6-31g_2dfp_ ]

spherical

!----------------------------------------------------------------------
! Basis Set Exchange
! Version v0.8.13
! https://www.basissetexchange.org
!----------------------------------------------------------------------
!   Basis set: 6-31G(2df,p)
! Description: 6-31G(2df,p)
!        Role: orbital
!     Version: 0  (Data from the original Basis Set Exchange)
!----------------------------------------------------------------------

****
H     0
S    3   1.00
     18.7311370              0.03349460
      2.8253937              0.23472695
      0.6401217              0.81375733
S    1   1.00
      0.1612778              1.00000000
P    1   1.00
      1.5000000              1.0000000
P    1   1.00
      0.3750000              1.0000000
****
B     0
S    6   1.00
   2068.8823000              0.0018663
    310.6495700              0.0142515
     70.6830330              0.0695516
     19.8610800              0.2325729
      6.2993048              0.4670787
      2.1270270              0.3634314
SP   3   1.00
      4.7279710             -0.1303938              0.0745976
      1.1903377             -0.1307889              0.3078467
      0.3594117              1.1309444              0.7434568
SP   1   1.00
      0.1267512              1.0000000              1.0000000
D    1   1.00
      0.8020000              1.0000000
D    1   1.00
      0.2005000              1.0000000
F    1   1.00
      0.5000000              1.0000000
****
C     0
S    6   1.00
   3047.5249000              0.0018347
    457.3695100              0.0140373
    103.9486900              0.0688426
     29.2101550              0.2321844
      9.2866630              0.4679413
      3.1639270              0.3623120
SP   3   1.00
      7.8682724             -0.1193324              0.0689991
      1.8812885             -0.1608542              0.3164240
      0.5442493              1.1434564              0.7443083
SP   1   1.00
      0.1687144              1.0000000              1.0000000
D    1   1.00
      1.2520000              1.0000000
D    1   1.00
      0.3130000              1.0000000
F    1   1.00
      0.8000000              1.0000000
****
N     0
S    6   1.00
   4173.5110000              0.0018348
    627.4579000              0.0139950
    142.9021000              0.0685870
     40.2343300              0.2322410
     12.8202100              0.4690700
      4.3904370              0.3604550
SP   3   1.00
     11.6263580             -0.1149610              0.0675800
      2.7162800             -0.1691180              0.3239070
      0.7722180              1.1458520              0.7408950
SP   1   1.00
      0.2120313              1.0000000              1.0000000
D    1   1.00
      1.8260000              1.0000000
D    1   1.00
      0.4565000              1.0000000
F    1   1.00
      1.0000000              1.0000000
****
O     0
S    6   1.00
   5484.6717000              0.0018311
    825.2349500              0.0139501
    188.0469600              0.0684451
     52.9645000              0.2327143
     16.8975700              0.4701930
      5.7996353              0.3585209
SP   3   1.00
     15.5396160             -0.1107775              0.0708743
      3.5999336             -0.1480263              0.3397528
      1.0137618              1.1307670              0.7271586
SP   1   1.00
      0.2700058              1.0000000              1.0000000
D    1   1.00
      2.5840000              1.0000000
D    1   1.00
      0.6460000              1.0000000
F    1   1.00
      1.4000000              1.0000000
****
F     0
S    6   1.00
   7001.7130900              0.0018196169
   1051.3660900              0.0139160796
    239.2856900              0.0684053245
     67.3974453              0.233185760
     21.5199573              0.471267439
      7.40310130             0.356618546
SP   3   1.00
     20.8479528             -0.108506975            0.0716287243
      4.80830834            -0.146451658            0.3459121030
      1.34406986             1.128688580            0.7224699570
SP   1   1.00
      0.358151393            1.0000000              1.0000000
D    1   1.00
      3.5000000              1.0000000
D    1   1.00
      0.8750000              1.0000000
F    1   1.00
      1.8500000              1.0000000
****
Al     0
S    6   1.00
  13983.1000000              0.00194267
   2098.7500000              0.0148599
    477.7050000              0.0728494
    134.3600000              0.2468300
     42.8709000              0.4872580
     14.5189000              0.3234960
SP   6   1.00
    239.6680000             -0.00292619             0.00460285
     57.4419000             -0.0374080              0.0331990
     18.2859000             -0.1144870              0.1362820
      6.5991400              0.1156350              0.3304760
      2.4904900              0.6125950              0.4491460
      0.9445400              0.3937990              0.2657040
SP   3   1.00
      1.2779000             -0.2276060             -0.0175130
      0.3975900              0.00144583             0.2445330
      0.1600950              1.0927900              0.8049340
SP   1   1.00
      0.0556577              1.0000000              1.0000000
D    1   1.00
      0.6500000              1.0000000
D    1   1.00
      0.1625000              1.0000000
F    1   1.00
      0.2500000              1.0000000
****
Si     0
S    6   1.00
  16115.9000000              0.00195948
   2425.5800000              0.01492880
    553.8670000              0.07284780
    156.3400000              0.24613000
     50.0683000              0.48591400
     17.0178000              0.32500200
SP   6   1.00
    292.7180000             -0.00278094             0.00443826
     69.8731000             -0.03571460             0.03266790
     22.3363000             -0.11498500             0.13472100
      8.1503900              0.09356340             0.32867800
      3.1345800              0.60301700             0.44964000
      1.2254300              0.41895900             0.26137200
SP   3   1.00
      1.7273800             -0.24463000            -0.01779510
      0.5729220              0.00431572             0.25353900
      0.2221920              1.09818000             0.80066900
SP   1   1.00
      0.0778369              1.00000000             1.00000000
D    1   1.00
      0.9000000              1.0000000
D    1   1.00
      0.2250000              1.0000000
F    1   1.00
      0.3200000              1.0000000
****
P     0
S    6   1.00
  19413.3000000              0.0018516
   2909.4200000              0.0142062
    661.3640000              0.0699995
    185.7590000              0.2400790
     59.1943000              0.4847620
     20.0310000              0.3352000
SP   6   1.00
    339.4780000             -0.00278217             0.00456462
     81.0101000             -0.0360499              0.03369360
     25.8780000             -0.1166310              0.13975500
      9.4522100              0.0968328              0.33936200
      3.6656600              0.6144180              0.45092100
      1.4674600              0.4037980              0.23858600
SP   3   1.00
      2.1562300             -0.2529230             -0.01776530
      0.7489970              0.0328517              0.27405800
      0.2831450              1.0812500              0.78542100
SP   1   1.00
      0.0998317              1.0000000              1.00000000
D    1   1.00
      1.1000000              1.0000000
D    1   1.00
      0.2750000              1.0000000
F    1   1.00
      0.4500000              1.0000000
****
S     0
S    6   1.00
  21917.1000000              0.0018690
   3301.4900000              0.0142300
    754.1460000              0.0696960
    212.7110000              0.2384870
     67.9896000              0.4833070
     23.0515000              0.3380740
SP   6   1.00
    423.7350000             -0.0023767              0.0040610
    100.7100000             -0.0316930              0.0306810
     32.1599000             -0.1133170              0.1304520
     11.8079000              0.0560900              0.3272050
      4.6311000              0.5922550              0.4528510
      1.8702500              0.4550060              0.2560420
SP   3   1.00
      2.6158400             -0.2503740             -0.0145110
      0.9221670              0.0669570              0.3102630
      0.3412870              1.0545100              0.7544830
SP   1   1.00
      0.1171670              1.0000000              1.0000000
D    1   1.00
      1.3000000              1.0000000
D    1   1.00
      0.3250000              1.0000000
F    1   1.00
      0.5500000              1.0000000
****
Cl     0
S    6   1.00
  25180.1000000              0.0018330
   3780.3500000              0.0140340
    860.4740000              0.0690970
    242.1450000              0.2374520
     77.3349000              0.4830340
     26.2470000              0.3398560
SP   6   1.00
    491.7650000             -0.0022974              0.0039894
    116.9840000             -0.0307140              0.0303180
     37.4153000             -0.1125280              0.1298800
     13.7834000              0.0450160              0.3279510
      5.4521500              0.5893530              0.4535270
      2.2258800              0.4652060              0.2521540
SP   3   1.00
      3.1864900             -0.2518300             -0.0142990
      1.1442700              0.0615890              0.3235720
      0.4203770              1.0601800              0.7435070
SP   1   1.00
      0.1426570              1.0000000              1.0000000
D    1   1.00
      1.5000000              1.0000000
D    1   1.00
      0.3750000              1.0000000
F    1   1.00
      0.7000000              1.0000000
****
}

set {
reference uhf
freeze_core true
e_convergence 10
d_convergence 10
dft_spherical_points 1202
dft_radial_points 99
}

e = energy('b3lyp')

print_out('Grab this energy {0}'.format(e))
--------------------------------------------------------------------------

    Molecular point group: cs

    Geometry (in Bohr), charge = 0, multiplicity = 2:

       Center              X                  Y                   Z               Mass
    ------------   -----------------  -----------------  -----------------  -----------------
         C           -0.254197592764     0.806407502373     0.000000000000    12.000000000000
         O           -2.194462291064    -0.334777999227     0.000000000000    15.994914619570
         C            2.409706304436    -0.244932715027     0.000000000000    12.000000000000
         H            2.382708200836    -2.309433799727     0.000000000000     1.007825032230
         H            3.389863941436     0.468609743473    -1.664531810900     1.007825032230
         H            3.389863941436     0.468609743473     1.664531810900     1.007825032230

  Charge       = 0
  Multiplicity = 2
  Basis Set: ANONYMOUS668410F0
    Blend: 6-31G_2DFP_
  Basis Set: (ANONYMOUS668410F0 AUX)
    Blend: DEF2-UNIVERSAL-JKFIT

    Orbital Energies [Eh]
    ---------------------

    Alpha Occupied:

       1Ap   -19.186844     2Ap   -10.272262     3Ap   -10.210675
       4Ap    -1.078737     5Ap    -0.762692     6Ap    -0.544214
       7Ap    -0.466017     8Ap    -0.457177     1App   -0.456354
       2App   -0.386439     9Ap    -0.385259    10Ap    -0.193102

    Alpha Virtual:

       3App   -0.020110    11Ap     0.091551    12Ap     0.136456
       4App    0.141090    13Ap     0.217931    14Ap     0.267996
      15Ap     0.427950     5App    0.431356    16Ap     0.443795
       6App    0.493679    17Ap     0.506172    18Ap     0.529851
       7App    0.562958    19Ap     0.577264    20Ap     0.605886
       8App    0.616011    21Ap     0.643718    22Ap     0.716802
       9App    0.765760    23Ap     0.785023    10App    0.831997
      11App    0.918282    24Ap     0.928106    25Ap     0.936119
      12App    1.022952    26Ap     1.084911    27Ap     1.106761
      13App    1.153508    28Ap     1.222135    29Ap     1.306606
      14App    1.316739    30Ap     1.327709    31Ap     1.403096
      15App    1.407136    32Ap     1.467554    33Ap     1.560215
      34Ap     1.628582    16App    1.652433    35Ap     1.719171
      17App    1.812763    36Ap     1.833965    37Ap     1.901054
      18App    2.064124    38Ap     2.165215    39Ap     2.489071
      19App    2.680395    40Ap     2.744198    41Ap     2.783946
      20App    2.841031    21App    2.894193    42Ap     2.972862
      43Ap     3.030443    22App    3.057373    23App    3.105764
      44Ap     3.115222    45Ap     3.182393    24App    3.314735
      46Ap     3.366674    25App    3.392991    26App    3.439140
      27App    3.466010    47Ap     3.484809    48Ap     3.570883
      49Ap     3.734364    50Ap     3.762415    51Ap     3.942970
      28App    3.985043    52Ap     4.054384    53Ap     4.111056
      29App    4.119274    54Ap     4.187942    30App    4.390072
      55Ap     4.435641    31App    4.448532    56Ap     4.533191
      57Ap     4.919352    58Ap     5.036984    32App    5.041988
      33App    5.197914    59Ap     5.206618    60Ap     5.467527
      34App    5.476466    61Ap     5.827968    35App    5.923511
      62Ap     6.099055    63Ap     6.770287    36App    6.772305
      37App    7.072023    64Ap     7.134939    65Ap     7.526748

    Beta Occupied:

       1Ap   -19.178755     2Ap   -10.262172     3Ap   -10.207342
       4Ap    -1.062707     5Ap    -0.750931     6Ap    -0.524445
       1App   -0.451894     7Ap    -0.447067     8Ap    -0.438214
       2App   -0.381199     9Ap    -0.346719

    Beta Virtual:

      10Ap    -0.053502     3App   -0.003809    11Ap     0.094234
      12Ap     0.142185     4App    0.144176    13Ap     0.228239
      14Ap     0.273762     5App    0.433320    15Ap     0.435012
      16Ap     0.465956     6App    0.500367    17Ap     0.527314
      18Ap     0.538910     7App    0.569296    19Ap     0.581500
       8App    0.623198    20Ap     0.624860    21Ap     0.649142
      22Ap     0.738524     9App    0.776983    23Ap     0.795118
      10App    0.832777    11App    0.923116    24Ap     0.944134
      25Ap     0.951874    12App    1.027127    26Ap     1.091045
      27Ap     1.108858    13App    1.159713    28Ap     1.231327
      29Ap     1.312182    14App    1.319559    30Ap     1.334508
      15App    1.412599    31Ap     1.413467    32Ap     1.479874
      33Ap     1.571543    34Ap     1.641693    16App    1.666822
      35Ap     1.725444    17App    1.815906    36Ap     1.848027
      37Ap     1.907705    18App    2.070854    38Ap     2.186699
      39Ap     2.501713    19App    2.694658    40Ap     2.758616
      41Ap     2.805071    20App    2.856409    21App    2.895826
      42Ap     2.982296    43Ap     3.047094    22App    3.065952
      44Ap     3.123606    23App    3.124318    45Ap     3.217104
      24App    3.358644    46Ap     3.378149    25App    3.399142
      26App    3.446519    27App    3.482571    47Ap     3.507957
      48Ap     3.584045    49Ap     3.760172    50Ap     3.771750
      51Ap     3.951662    28App    3.994282    52Ap     4.070735
      29App    4.122109    53Ap     4.125543    54Ap     4.199836
      30App    4.392303    55Ap     4.441903    31App    4.452717
      56Ap     4.544060    57Ap     4.923235    58Ap     5.054525
      32App    5.060044    33App    5.200113    59Ap     5.212342
      60Ap     5.480231    34App    5.490337    61Ap     5.841233
      35App    5.929106    62Ap     6.122315    63Ap     6.799644
      36App    6.802010    37App    7.076343    64Ap     7.164417
      65Ap     7.538463

    Final Occupation by Irrep:
             Ap   App
    DOCC [     9,    2 ]
    SOCC [     1,    0 ]

  @DF-UKS Final Energy:  -153.18835460768022

   => Energetics <=

    Nuclear Repulsion Energy =             62.7208013458543689
    One-Electron Energy =                -331.4486761588427726
    Two-Electron Energy =                 132.1174751280890121
    DFT Exchange-Correlation Energy =     -16.5779549227808616
    Empirical Dispersion Energy =           0.0000000000000000
    VV10 Nonlocal Energy =                  0.0000000000000000
    Total Energy =                       -153.1883546076802247

  UHF NO Occupations:
  HONO-2 :    8 Ap 1.9997883
  HONO-1 :    9 Ap 1.9991939
  HONO-0 :   10 Ap 1.0000000
  LUNO+0 :   11 Ap 0.0008061
  LUNO+1 :   12 Ap 0.0002117
  LUNO+2 :    3App 0.0001822
  LUNO+3 :   13 Ap 0.0000620

Computation Completed

Properties will be evaluated at   0.000000,   0.000000,   0.000000 [a0]

Properties computed using the SCF density matrix

  Nuclear Dipole Moment: [e a0]
     X:     4.5398      Y:    -0.6816      Z:     0.0000

  Electronic Dipole Moment: [e a0]
     X:    -3.5999      Y:     0.6323      Z:     0.0000

  Dipole Moment: [e a0]
     X:     0.9399      Y:    -0.0493      Z:     0.0000     Total:     0.9412

  Dipole Moment: [D]
     X:     2.3891      Y:    -0.1254      Z:     0.0000     Total:     2.3924

*** tstop() called on n041 at Tue Mar 15 10:32:09 2022
Module time:
	user time   =      65.73 seconds =       1.10 minutes
	system time =       0.43 seconds =       0.01 minutes
	total time  =         66 seconds =       1.10 minutes
Total time:
	user time   =      65.73 seconds =       1.10 minutes
	system time =       0.43 seconds =       0.01 minutes
	total time  =         66 seconds =       1.10 minutes
Grab this energy -153.18835460768022
    Psi4 stopped on: Tuesday, 15 March 2022 10:32AM
    Psi4 wall time for execution: 0:01:06.19

*** Psi4 exiting successfully. Buy a developer a beer!
