                               Psi4 1.4a2.dev629

  ==> Input File <==

--------------------------------------------------------------------------
import os
memory 14 GB

molecule {
 C   -0.2647211130    0.8016177422    0.0000000000
 O   -2.2081918900   -0.3296186425    0.0000000000
 C    2.4141358267   -0.2467533354    0.0000000000
 H    2.3880327539   -2.3094635752    0.0000000000
 H    3.3976912023    0.4692917294   -1.6650626281
 H    3.3976912023    0.4692917294    1.6650626281
units bohr
0 2
}

basis {

assign 6-31g_2dfp_

[ 6-31g_2dfp_ ]

spherical

!----------------------------------------------------------------------
! Basis Set Exchange
! Version v0.8.13
! https://www.basissetexchange.org
!----------------------------------------------------------------------
!   Basis set: 6-31G(2df,p)
! Description: 6-31G(2df,p)
!        Role: orbital
!     Version: 0  (Data from the original Basis Set Exchange)
!----------------------------------------------------------------------

****
H     0
S    3   1.00
     18.7311370              0.03349460
      2.8253937              0.23472695
      0.6401217              0.81375733
S    1   1.00
      0.1612778              1.00000000
P    1   1.00
      1.5000000              1.0000000
P    1   1.00
      0.3750000              1.0000000
****
B     0
S    6   1.00
   2068.8823000              0.0018663
    310.6495700              0.0142515
     70.6830330              0.0695516
     19.8610800              0.2325729
      6.2993048              0.4670787
      2.1270270              0.3634314
SP   3   1.00
      4.7279710             -0.1303938              0.0745976
      1.1903377             -0.1307889              0.3078467
      0.3594117              1.1309444              0.7434568
SP   1   1.00
      0.1267512              1.0000000              1.0000000
D    1   1.00
      0.8020000              1.0000000
D    1   1.00
      0.2005000              1.0000000
F    1   1.00
      0.5000000              1.0000000
****
C     0
S    6   1.00
   3047.5249000              0.0018347
    457.3695100              0.0140373
    103.9486900              0.0688426
     29.2101550              0.2321844
      9.2866630              0.4679413
      3.1639270              0.3623120
SP   3   1.00
      7.8682724             -0.1193324              0.0689991
      1.8812885             -0.1608542              0.3164240
      0.5442493              1.1434564              0.7443083
SP   1   1.00
      0.1687144              1.0000000              1.0000000
D    1   1.00
      1.2520000              1.0000000
D    1   1.00
      0.3130000              1.0000000
F    1   1.00
      0.8000000              1.0000000
****
N     0
S    6   1.00
   4173.5110000              0.0018348
    627.4579000              0.0139950
    142.9021000              0.0685870
     40.2343300              0.2322410
     12.8202100              0.4690700
      4.3904370              0.3604550
SP   3   1.00
     11.6263580             -0.1149610              0.0675800
      2.7162800             -0.1691180              0.3239070
      0.7722180              1.1458520              0.7408950
SP   1   1.00
      0.2120313              1.0000000              1.0000000
D    1   1.00
      1.8260000              1.0000000
D    1   1.00
      0.4565000              1.0000000
F    1   1.00
      1.0000000              1.0000000
****
O     0
S    6   1.00
   5484.6717000              0.0018311
    825.2349500              0.0139501
    188.0469600              0.0684451
     52.9645000              0.2327143
     16.8975700              0.4701930
      5.7996353              0.3585209
SP   3   1.00
     15.5396160             -0.1107775              0.0708743
      3.5999336             -0.1480263              0.3397528
      1.0137618              1.1307670              0.7271586
SP   1   1.00
      0.2700058              1.0000000              1.0000000
D    1   1.00
      2.5840000              1.0000000
D    1   1.00
      0.6460000              1.0000000
F    1   1.00
      1.4000000              1.0000000
****
F     0
S    6   1.00
   7001.7130900              0.0018196169
   1051.3660900              0.0139160796
    239.2856900              0.0684053245
     67.3974453              0.233185760
     21.5199573              0.471267439
      7.40310130             0.356618546
SP   3   1.00
     20.8479528             -0.108506975            0.0716287243
      4.80830834            -0.146451658            0.3459121030
      1.34406986             1.128688580            0.7224699570
SP   1   1.00
      0.358151393            1.0000000              1.0000000
D    1   1.00
      3.5000000              1.0000000
D    1   1.00
      0.8750000              1.0000000
F    1   1.00
      1.8500000              1.0000000
****
Al     0
S    6   1.00
  13983.1000000              0.00194267
   2098.7500000              0.0148599
    477.7050000              0.0728494
    134.3600000              0.2468300
     42.8709000              0.4872580
     14.5189000              0.3234960
SP   6   1.00
    239.6680000             -0.00292619             0.00460285
     57.4419000             -0.0374080              0.0331990
     18.2859000             -0.1144870              0.1362820
      6.5991400              0.1156350              0.3304760
      2.4904900              0.6125950              0.4491460
      0.9445400              0.3937990              0.2657040
SP   3   1.00
      1.2779000             -0.2276060             -0.0175130
      0.3975900              0.00144583             0.2445330
      0.1600950              1.0927900              0.8049340
SP   1   1.00
      0.0556577              1.0000000              1.0000000
D    1   1.00
      0.6500000              1.0000000
D    1   1.00
      0.1625000              1.0000000
F    1   1.00
      0.2500000              1.0000000
****
Si     0
S    6   1.00
  16115.9000000              0.00195948
   2425.5800000              0.01492880
    553.8670000              0.07284780
    156.3400000              0.24613000
     50.0683000              0.48591400
     17.0178000              0.32500200
SP   6   1.00
    292.7180000             -0.00278094             0.00443826
     69.8731000             -0.03571460             0.03266790
     22.3363000             -0.11498500             0.13472100
      8.1503900              0.09356340             0.32867800
      3.1345800              0.60301700             0.44964000
      1.2254300              0.41895900             0.26137200
SP   3   1.00
      1.7273800             -0.24463000            -0.01779510
      0.5729220              0.00431572             0.25353900
      0.2221920              1.09818000             0.80066900
SP   1   1.00
      0.0778369              1.00000000             1.00000000
D    1   1.00
      0.9000000              1.0000000
D    1   1.00
      0.2250000              1.0000000
F    1   1.00
      0.3200000              1.0000000
****
P     0
S    6   1.00
  19413.3000000              0.0018516
   2909.4200000              0.0142062
    661.3640000              0.0699995
    185.7590000              0.2400790
     59.1943000              0.4847620
     20.0310000              0.3352000
SP   6   1.00
    339.4780000             -0.00278217             0.00456462
     81.0101000             -0.0360499              0.03369360
     25.8780000             -0.1166310              0.13975500
      9.4522100              0.0968328              0.33936200
      3.6656600              0.6144180              0.45092100
      1.4674600              0.4037980              0.23858600
SP   3   1.00
      2.1562300             -0.2529230             -0.01776530
      0.7489970              0.0328517              0.27405800
      0.2831450              1.0812500              0.78542100
SP   1   1.00
      0.0998317              1.0000000              1.00000000
D    1   1.00
      1.1000000              1.0000000
D    1   1.00
      0.2750000              1.0000000
F    1   1.00
      0.4500000              1.0000000
****
S     0
S    6   1.00
  21917.1000000              0.0018690
   3301.4900000              0.0142300
    754.1460000              0.0696960
    212.7110000              0.2384870
     67.9896000              0.4833070
     23.0515000              0.3380740
SP   6   1.00
    423.7350000             -0.0023767              0.0040610
    100.7100000             -0.0316930              0.0306810
     32.1599000             -0.1133170              0.1304520
     11.8079000              0.0560900              0.3272050
      4.6311000              0.5922550              0.4528510
      1.8702500              0.4550060              0.2560420
SP   3   1.00
      2.6158400             -0.2503740             -0.0145110
      0.9221670              0.0669570              0.3102630
      0.3412870              1.0545100              0.7544830
SP   1   1.00
      0.1171670              1.0000000              1.0000000
D    1   1.00
      1.3000000              1.0000000
D    1   1.00
      0.3250000              1.0000000
F    1   1.00
      0.5500000              1.0000000
****
Cl     0
S    6   1.00
  25180.1000000              0.0018330
   3780.3500000              0.0140340
    860.4740000              0.0690970
    242.1450000              0.2374520
     77.3349000              0.4830340
     26.2470000              0.3398560
SP   6   1.00
    491.7650000             -0.0022974              0.0039894
    116.9840000             -0.0307140              0.0303180
     37.4153000             -0.1125280              0.1298800
     13.7834000              0.0450160              0.3279510
      5.4521500              0.5893530              0.4535270
      2.2258800              0.4652060              0.2521540
SP   3   1.00
      3.1864900             -0.2518300             -0.0142990
      1.1442700              0.0615890              0.3235720
      0.4203770              1.0601800              0.7435070
SP   1   1.00
      0.1426570              1.0000000              1.0000000
D    1   1.00
      1.5000000              1.0000000
D    1   1.00
      0.3750000              1.0000000
F    1   1.00
      0.7000000              1.0000000
****
}

set {
reference uhf
freeze_core true
e_convergence 10
d_convergence 10
dft_spherical_points 1202
dft_radial_points 99
}

e = energy('b3lyp')

print_out('Grab this energy {0}'.format(e))
--------------------------------------------------------------------------

    Molecular point group: cs

    Geometry (in Bohr), charge = 0, multiplicity = 2:

       Center              X                  Y                   Z               Mass
    ------------   -----------------  -----------------  -----------------  -----------------
         C           -0.258407801333     0.801512123642     0.000000000000    12.000000000000
         O           -2.201878578333    -0.329724261058     0.000000000000    15.994914619570
         C            2.420449138367    -0.246858953958     0.000000000000    12.000000000000
         H            2.394346065567    -2.309569193758     0.000000000000     1.007825032230
         H            3.404004513967     0.469186110842    -1.665062628100     1.007825032230
         H            3.404004513967     0.469186110842     1.665062628100     1.007825032230

  Charge       = 0
  Multiplicity = 2
  Basis Set: ANONYMOUS830E4722
    Blend: 6-31G_2DFP_
  Basis Set: (ANONYMOUS830E4722 AUX)
    Blend: DEF2-UNIVERSAL-JKFIT

    Orbital Energies [Eh]
    ---------------------

    Alpha Occupied:

       1Ap   -19.187146     2Ap   -10.272602     3Ap   -10.211284
       4Ap    -1.079416     5Ap    -0.761340     6Ap    -0.544114
       7Ap    -0.465752     8Ap    -0.456959     1App   -0.455367
       2App   -0.386975     9Ap    -0.386268    10Ap    -0.192246

    Alpha Virtual:

       3App   -0.020038    11Ap     0.091309    12Ap     0.136709
       4App    0.140865    13Ap     0.215786    14Ap     0.267486
      15Ap     0.427291     5App    0.431864    16Ap     0.443019
       6App    0.493162    17Ap     0.506509    18Ap     0.530051
       7App    0.562910    19Ap     0.576796    20Ap     0.606227
       8App    0.615309    21Ap     0.643195    22Ap     0.717582
       9App    0.764524    23Ap     0.784252    10App    0.832010
      11App    0.917619    24Ap     0.926613    25Ap     0.934111
      12App    1.021121    26Ap     1.083002    27Ap     1.107188
      13App    1.152578    28Ap     1.219444    29Ap     1.305260
      14App    1.315787    30Ap     1.326158    31Ap     1.402419
      15App    1.406376    32Ap     1.466830    33Ap     1.560194
      34Ap     1.630281    16App    1.652518    35Ap     1.719797
      17App    1.811521    36Ap     1.829904    37Ap     1.899163
      18App    2.064588    38Ap     2.167358    39Ap     2.489664
      19App    2.679386    40Ap     2.742362    41Ap     2.783513
      20App    2.840261    21App    2.894484    42Ap     2.973777
      43Ap     3.027506    22App    3.055268    23App    3.106247
      44Ap     3.112122    45Ap     3.181450    24App    3.313725
      46Ap     3.365225    25App    3.392745    26App    3.438589
      27App    3.464063    47Ap     3.483358    48Ap     3.569134
      49Ap     3.733474    50Ap     3.758765    51Ap     3.940438
      28App    3.975441    52Ap     4.048363    53Ap     4.105378
      29App    4.118010    54Ap     4.186716    30App    4.385534
      55Ap     4.427449    31App    4.445536    56Ap     4.528990
      57Ap     4.917077    58Ap     5.036467    32App    5.041740
      33App    5.195058    59Ap     5.204648    60Ap     5.467256
      34App    5.476212    61Ap     5.827664    35App    5.924370
      62Ap     6.098798    63Ap     6.769925    36App    6.772180
      37App    7.071370    64Ap     7.134315    65Ap     7.527100

    Beta Occupied:

       1Ap   -19.179110     2Ap   -10.262509     3Ap   -10.207910
       4Ap    -1.063492     5Ap    -0.749583     6Ap    -0.524296
       1App   -0.450869     7Ap    -0.446590     8Ap    -0.438309
       2App   -0.381793     9Ap    -0.347821

    Beta Virtual:

      10Ap    -0.052741     3App   -0.003768    11Ap     0.093996
      12Ap     0.142372     4App    0.143987    13Ap     0.226408
      14Ap     0.273233     5App    0.433872    15Ap     0.434803
      16Ap     0.464367     6App    0.499819    17Ap     0.527773
      18Ap     0.539376     7App    0.569215    19Ap     0.581030
       8App    0.622661    20Ap     0.625091    21Ap     0.648758
      22Ap     0.739490     9App    0.775711    23Ap     0.794329
      10App    0.832785    11App    0.922444    24Ap     0.940396
      25Ap     0.951902    12App    1.025258    26Ap     1.089006
      27Ap     1.109347    13App    1.158753    28Ap     1.228842
      29Ap     1.310728    14App    1.318589    30Ap     1.332953
      15App    1.411836    31Ap     1.412656    32Ap     1.478926
      33Ap     1.571399    34Ap     1.643663    16App    1.666755
      35Ap     1.725968    17App    1.814767    36Ap     1.844077
      37Ap     1.905723    18App    2.071263    38Ap     2.188677
      39Ap     2.502327    19App    2.693547    40Ap     2.756815
      41Ap     2.804827    20App    2.856127    21App    2.896110
      42Ap     2.983063    43Ap     3.044389    22App    3.063875
      44Ap     3.120670    23App    3.124786    45Ap     3.216402
      24App    3.357597    46Ap     3.377190    25App    3.398951
      26App    3.447188    27App    3.479370    47Ap     3.505680
      48Ap     3.582546    49Ap     3.758604    50Ap     3.768813
      51Ap     3.949035    28App    3.984703    52Ap     4.064712
      53Ap     4.120602    29App    4.120839    54Ap     4.198044
      30App    4.387796    55Ap     4.433578    31App    4.449694
      56Ap     4.539844    57Ap     4.920899    58Ap     5.053928
      32App    5.059637    33App    5.197202    59Ap     5.210324
      60Ap     5.479957    34App    5.490048    61Ap     5.840860
      35App    5.929951    62Ap     6.121909    63Ap     6.799059
      36App    6.801644    37App    7.075666    64Ap     7.163595
      65Ap     7.538754

    Final Occupation by Irrep:
             Ap   App
    DOCC [     9,    2 ]
    SOCC [     1,    0 ]

  @DF-UKS Final Energy:  -153.18835701076046

   => Energetics <=

    Nuclear Repulsion Energy =             62.6094197189221404
    One-Electron Energy =                -331.2267934266225211
    Two-Electron Energy =                 132.0048999058591335
    DFT Exchange-Correlation Energy =     -16.5758832089191941
    Empirical Dispersion Energy =           0.0000000000000000
    VV10 Nonlocal Energy =                  0.0000000000000000
    Total Energy =                       -153.1883570107604555

  UHF NO Occupations:
  HONO-2 :    8 Ap 1.9997829
  HONO-1 :    9 Ap 1.9992010
  HONO-0 :   10 Ap 1.0000000
  LUNO+0 :   11 Ap 0.0007990
  LUNO+1 :   12 Ap 0.0002171
  LUNO+2 :    3App 0.0001843
  LUNO+3 :   13 Ap 0.0000614

Computation Completed

Properties will be evaluated at   0.000000,   0.000000,   0.000000 [a0]

Properties computed using the SCF density matrix

  Nuclear Dipole Moment: [e a0]
     X:     4.5596      Y:    -0.6811      Z:     0.0000

  Electronic Dipole Moment: [e a0]
     X:    -3.6207      Y:     0.6297      Z:     0.0000

  Dipole Moment: [e a0]
     X:     0.9388      Y:    -0.0514      Z:     0.0000     Total:     0.9402

  Dipole Moment: [D]
     X:     2.3863      Y:    -0.1307      Z:     0.0000     Total:     2.3899

*** tstop() called on n061 at Tue Mar 15 10:37:08 2022
Module time:
	user time   =      50.63 seconds =       0.84 minutes
	system time =       0.52 seconds =       0.01 minutes
	total time  =         51 seconds =       0.85 minutes
Total time:
	user time   =      50.63 seconds =       0.84 minutes
	system time =       0.52 seconds =       0.01 minutes
	total time  =         51 seconds =       0.85 minutes
Grab this energy -153.18835701076046
    Psi4 stopped on: Tuesday, 15 March 2022 10:37AM
    Psi4 wall time for execution: 0:00:51.20

*** Psi4 exiting successfully. Buy a developer a beer!
