                               Psi4 1.4a2.dev629

  ==> Input File <==

--------------------------------------------------------------------------
import os
memory 14 GB

molecule {
 C   -0.2596094271    0.8026842866    0.0000000099
 O   -2.1915747617   -0.3365639738    0.0000000074
 C    2.4135836850   -0.2422169908   -0.0000000159
 H    2.3866614080   -2.2984895306    0.0000000400
 H    3.3887683502    0.4723603309   -1.6600366914
 H    3.3887686956    0.4723604977    1.6600364700
units bohr
0 2
}

basis {

assign 6-31g_2dfp_

[ 6-31g_2dfp_ ]

spherical

!----------------------------------------------------------------------
! Basis Set Exchange
! Version v0.8.13
! https://www.basissetexchange.org
!----------------------------------------------------------------------
!   Basis set: 6-31G(2df,p)
! Description: 6-31G(2df,p)
!        Role: orbital
!     Version: 0  (Data from the original Basis Set Exchange)
!----------------------------------------------------------------------

****
H     0
S    3   1.00
     18.7311370              0.03349460
      2.8253937              0.23472695
      0.6401217              0.81375733
S    1   1.00
      0.1612778              1.00000000
P    1   1.00
      1.5000000              1.0000000
P    1   1.00
      0.3750000              1.0000000
****
B     0
S    6   1.00
   2068.8823000              0.0018663
    310.6495700              0.0142515
     70.6830330              0.0695516
     19.8610800              0.2325729
      6.2993048              0.4670787
      2.1270270              0.3634314
SP   3   1.00
      4.7279710             -0.1303938              0.0745976
      1.1903377             -0.1307889              0.3078467
      0.3594117              1.1309444              0.7434568
SP   1   1.00
      0.1267512              1.0000000              1.0000000
D    1   1.00
      0.8020000              1.0000000
D    1   1.00
      0.2005000              1.0000000
F    1   1.00
      0.5000000              1.0000000
****
C     0
S    6   1.00
   3047.5249000              0.0018347
    457.3695100              0.0140373
    103.9486900              0.0688426
     29.2101550              0.2321844
      9.2866630              0.4679413
      3.1639270              0.3623120
SP   3   1.00
      7.8682724             -0.1193324              0.0689991
      1.8812885             -0.1608542              0.3164240
      0.5442493              1.1434564              0.7443083
SP   1   1.00
      0.1687144              1.0000000              1.0000000
D    1   1.00
      1.2520000              1.0000000
D    1   1.00
      0.3130000              1.0000000
F    1   1.00
      0.8000000              1.0000000
****
N     0
S    6   1.00
   4173.5110000              0.0018348
    627.4579000              0.0139950
    142.9021000              0.0685870
     40.2343300              0.2322410
     12.8202100              0.4690700
      4.3904370              0.3604550
SP   3   1.00
     11.6263580             -0.1149610              0.0675800
      2.7162800             -0.1691180              0.3239070
      0.7722180              1.1458520              0.7408950
SP   1   1.00
      0.2120313              1.0000000              1.0000000
D    1   1.00
      1.8260000              1.0000000
D    1   1.00
      0.4565000              1.0000000
F    1   1.00
      1.0000000              1.0000000
****
O     0
S    6   1.00
   5484.6717000              0.0018311
    825.2349500              0.0139501
    188.0469600              0.0684451
     52.9645000              0.2327143
     16.8975700              0.4701930
      5.7996353              0.3585209
SP   3   1.00
     15.5396160             -0.1107775              0.0708743
      3.5999336             -0.1480263              0.3397528
      1.0137618              1.1307670              0.7271586
SP   1   1.00
      0.2700058              1.0000000              1.0000000
D    1   1.00
      2.5840000              1.0000000
D    1   1.00
      0.6460000              1.0000000
F    1   1.00
      1.4000000              1.0000000
****
F     0
S    6   1.00
   7001.7130900              0.0018196169
   1051.3660900              0.0139160796
    239.2856900              0.0684053245
     67.3974453              0.233185760
     21.5199573              0.471267439
      7.40310130             0.356618546
SP   3   1.00
     20.8479528             -0.108506975            0.0716287243
      4.80830834            -0.146451658            0.3459121030
      1.34406986             1.128688580            0.7224699570
SP   1   1.00
      0.358151393            1.0000000              1.0000000
D    1   1.00
      3.5000000              1.0000000
D    1   1.00
      0.8750000              1.0000000
F    1   1.00
      1.8500000              1.0000000
****
Al     0
S    6   1.00
  13983.1000000              0.00194267
   2098.7500000              0.0148599
    477.7050000              0.0728494
    134.3600000              0.2468300
     42.8709000              0.4872580
     14.5189000              0.3234960
SP   6   1.00
    239.6680000             -0.00292619             0.00460285
     57.4419000             -0.0374080              0.0331990
     18.2859000             -0.1144870              0.1362820
      6.5991400              0.1156350              0.3304760
      2.4904900              0.6125950              0.4491460
      0.9445400              0.3937990              0.2657040
SP   3   1.00
      1.2779000             -0.2276060             -0.0175130
      0.3975900              0.00144583             0.2445330
      0.1600950              1.0927900              0.8049340
SP   1   1.00
      0.0556577              1.0000000              1.0000000
D    1   1.00
      0.6500000              1.0000000
D    1   1.00
      0.1625000              1.0000000
F    1   1.00
      0.2500000              1.0000000
****
Si     0
S    6   1.00
  16115.9000000              0.00195948
   2425.5800000              0.01492880
    553.8670000              0.07284780
    156.3400000              0.24613000
     50.0683000              0.48591400
     17.0178000              0.32500200
SP   6   1.00
    292.7180000             -0.00278094             0.00443826
     69.8731000             -0.03571460             0.03266790
     22.3363000             -0.11498500             0.13472100
      8.1503900              0.09356340             0.32867800
      3.1345800              0.60301700             0.44964000
      1.2254300              0.41895900             0.26137200
SP   3   1.00
      1.7273800             -0.24463000            -0.01779510
      0.5729220              0.00431572             0.25353900
      0.2221920              1.09818000             0.80066900
SP   1   1.00
      0.0778369              1.00000000             1.00000000
D    1   1.00
      0.9000000              1.0000000
D    1   1.00
      0.2250000              1.0000000
F    1   1.00
      0.3200000              1.0000000
****
P     0
S    6   1.00
  19413.3000000              0.0018516
   2909.4200000              0.0142062
    661.3640000              0.0699995
    185.7590000              0.2400790
     59.1943000              0.4847620
     20.0310000              0.3352000
SP   6   1.00
    339.4780000             -0.00278217             0.00456462
     81.0101000             -0.0360499              0.03369360
     25.8780000             -0.1166310              0.13975500
      9.4522100              0.0968328              0.33936200
      3.6656600              0.6144180              0.45092100
      1.4674600              0.4037980              0.23858600
SP   3   1.00
      2.1562300             -0.2529230             -0.01776530
      0.7489970              0.0328517              0.27405800
      0.2831450              1.0812500              0.78542100
SP   1   1.00
      0.0998317              1.0000000              1.00000000
D    1   1.00
      1.1000000              1.0000000
D    1   1.00
      0.2750000              1.0000000
F    1   1.00
      0.4500000              1.0000000
****
S     0
S    6   1.00
  21917.1000000              0.0018690
   3301.4900000              0.0142300
    754.1460000              0.0696960
    212.7110000              0.2384870
     67.9896000              0.4833070
     23.0515000              0.3380740
SP   6   1.00
    423.7350000             -0.0023767              0.0040610
    100.7100000             -0.0316930              0.0306810
     32.1599000             -0.1133170              0.1304520
     11.8079000              0.0560900              0.3272050
      4.6311000              0.5922550              0.4528510
      1.8702500              0.4550060              0.2560420
SP   3   1.00
      2.6158400             -0.2503740             -0.0145110
      0.9221670              0.0669570              0.3102630
      0.3412870              1.0545100              0.7544830
SP   1   1.00
      0.1171670              1.0000000              1.0000000
D    1   1.00
      1.3000000              1.0000000
D    1   1.00
      0.3250000              1.0000000
F    1   1.00
      0.5500000              1.0000000
****
Cl     0
S    6   1.00
  25180.1000000              0.0018330
   3780.3500000              0.0140340
    860.4740000              0.0690970
    242.1450000              0.2374520
     77.3349000              0.4830340
     26.2470000              0.3398560
SP   6   1.00
    491.7650000             -0.0022974              0.0039894
    116.9840000             -0.0307140              0.0303180
     37.4153000             -0.1125280              0.1298800
     13.7834000              0.0450160              0.3279510
      5.4521500              0.5893530              0.4535270
      2.2258800              0.4652060              0.2521540
SP   3   1.00
      3.1864900             -0.2518300             -0.0142990
      1.1442700              0.0615890              0.3235720
      0.4203770              1.0601800              0.7435070
SP   1   1.00
      0.1426570              1.0000000              1.0000000
D    1   1.00
      1.5000000              1.0000000
D    1   1.00
      0.3750000              1.0000000
F    1   1.00
      0.7000000              1.0000000
****
}

set {
reference uhf
freeze_core true
e_convergence 10
d_convergence 10
dft_spherical_points 1202
dft_radial_points 99
}

e = energy('b3lyp')

print_out('Grab this energy {0}'.format(e))
--------------------------------------------------------------------------

    Molecular point group: c1

    Geometry (in Bohr), charge = 0, multiplicity = 2:

       Center              X                  Y                   Z               Mass
    ------------   -----------------  -----------------  -----------------  -----------------
         C           -0.260296307787     0.803197240739     0.000000013072    12.000000000000
         O           -2.192261642387    -0.336051019661     0.000000010572    15.994914619570
         C            2.412896804313    -0.241704036661    -0.000000012728    12.000000000000
         H            2.385974527313    -2.297976576461     0.000000043172     1.007825032230
         H            3.388081469513     0.472873285039    -1.660036688228     1.007825032230
         H            3.388081814913     0.472873451839     1.660036473172     1.007825032230

  Charge       = 0
  Multiplicity = 2
  Basis Set: ANONYMOUSB6C450A9
    Blend: 6-31G_2DFP_
  Basis Set: (ANONYMOUSB6C450A9 AUX)
    Blend: DEF2-UNIVERSAL-JKFIT

    Orbital Energies [Eh]
    ---------------------

    Alpha Occupied:

       1A    -19.186862     2A    -10.271584     3A    -10.209556
       4A     -1.081088     5A     -0.762496     6A     -0.544046
       7A     -0.466804     8A     -0.457446     9A     -0.456695
      10A     -0.387727    11A     -0.386445    12A     -0.191873

    Alpha Virtual:

      13A     -0.018799    14A      0.092305    15A      0.137835
      16A      0.141988    17A      0.217233    18A      0.268040
      19A      0.428023    20A      0.431750    21A      0.443786
      22A      0.493983    23A      0.506527    24A      0.531051
      25A      0.563873    26A      0.579257    27A      0.608578
      28A      0.616362    29A      0.644670    30A      0.718068
      31A      0.766416    32A      0.785342    33A      0.833648
      34A      0.917494    35A      0.927308    36A      0.936234
      37A      1.023754    38A      1.085693    39A      1.107962
      40A      1.153982    41A      1.222778    42A      1.305904
      43A      1.317776    44A      1.327522    45A      1.405115
      46A      1.409884    47A      1.469511    48A      1.560070
      49A      1.631747    50A      1.654043    51A      1.724955
      52A      1.815400    53A      1.835505    54A      1.902703
      55A      2.066678    56A      2.167253    57A      2.495202
      58A      2.680913    59A      2.744001    60A      2.786560
      61A      2.844057    62A      2.895846    63A      2.974376
      64A      3.030786    65A      3.057456    66A      3.105046
      67A      3.114900    68A      3.181587    69A      3.314189
      70A      3.367971    71A      3.390605    72A      3.440525
      73A      3.465461    74A      3.485075    75A      3.573686
      76A      3.739309    77A      3.761718    78A      3.945797
      79A      3.984194    80A      4.055773    81A      4.113752
      82A      4.124456    83A      4.192508    84A      4.395399
      85A      4.436391    86A      4.454955    87A      4.535256
      88A      4.924389    89A      5.037415    90A      5.042295
      91A      5.206638    92A      5.216475    93A      5.473359
      94A      5.482678    95A      5.826904    96A      5.930225
      97A      6.103964    98A      6.770655    99A      6.772833
     100A      7.071167   101A      7.134987   102A      7.529777

    Beta Occupied:

       1A    -19.178807     2A    -10.261519     3A    -10.206176
       4A     -1.065176     5A     -0.750753     6A     -0.524269
       7A     -0.452186     8A     -0.447451     9A     -0.438838
      10A     -0.382524    11A     -0.348051

    Beta Virtual:

      12A     -0.052383    13A     -0.002504    14A      0.095011
      15A      0.143454    16A      0.145062    17A      0.227726
      18A      0.273726    19A      0.433747    20A      0.435379
      21A      0.465573    22A      0.500691    23A      0.527991
      24A      0.540109    25A      0.570330    26A      0.583465
      27A      0.623484    28A      0.627186    29A      0.650311
      30A      0.740024    31A      0.777579    32A      0.795338
      33A      0.834422    34A      0.922325    35A      0.943883
      36A      0.951296    37A      1.027943    38A      1.091845
      39A      1.110036    40A      1.160173    41A      1.232085
      42A      1.311544    43A      1.320550    44A      1.334276
      45A      1.415433    46A      1.415443    47A      1.481761
      48A      1.571234    49A      1.645166    50A      1.668380
      51A      1.731295    52A      1.818571    53A      1.849424
      54A      1.909295    55A      2.073403    56A      2.188656
      57A      2.507891    58A      2.695203    59A      2.758504
      60A      2.807701    61A      2.859525    62A      2.897480
      63A      2.983726    64A      3.047597    65A      3.065999
      66A      3.123388    67A      3.123609    68A      3.216267
      69A      3.357834    70A      3.379455    71A      3.396945
      72A      3.448849    73A      3.481105    74A      3.508507
      75A      3.586665    76A      3.765165    77A      3.771229
      78A      3.954385    79A      3.993516    80A      4.072169
      81A      4.127254    82A      4.128660    83A      4.203899
      84A      4.397734    85A      4.442550    86A      4.459035
      87A      4.546045    88A      4.928317    89A      5.054919
      90A      5.060266    91A      5.208857    92A      5.222091
      93A      5.485991    94A      5.496503    95A      5.840136
      96A      5.935810    97A      6.127135    98A      6.799889
      99A      6.802407   100A      7.075461   101A      7.164325
     102A      7.541431

    Final Occupation by Irrep:
              A
    DOCC [    11 ]
    SOCC [     1 ]

  @DF-UKS Final Energy:  -153.18836978436914

   => Energetics <=

    Nuclear Repulsion Energy =             62.8023232047186539
    One-Electron Energy =                -331.6011437457326565
    Two-Electron Energy =                 132.1933885187894191
    DFT Exchange-Correlation Energy =     -16.5829377621445886
    Empirical Dispersion Energy =           0.0000000000000000
    VV10 Nonlocal Energy =                  0.0000000000000000
    Total Energy =                       -153.1883697843691436

  UHF NO Occupations:
  HONO-2 :   10  A 1.9997843
  HONO-1 :   11  A 1.9992034
  HONO-0 :   12  A 1.0000000
  LUNO+0 :   13  A 0.0007966
  LUNO+1 :   14  A 0.0002157
  LUNO+2 :   15  A 0.0001806
  LUNO+3 :   16  A 0.0000615

Computation Completed

Properties will be evaluated at   0.000000,   0.000000,   0.000000 [a0]

Properties computed using the SCF density matrix

  Nuclear Dipole Moment: [e a0]
     X:     4.5396      Y:    -0.6717      Z:    -0.0000

  Electronic Dipole Moment: [e a0]
     X:    -3.6071      Y:     0.6222      Z:     0.0000

  Dipole Moment: [e a0]
     X:     0.9326      Y:    -0.0495      Z:    -0.0000     Total:     0.9339

  Dipole Moment: [D]
     X:     2.3703      Y:    -0.1258      Z:    -0.0000     Total:     2.3737

*** tstop() called on n082 at Thu Nov  4 14:46:47 2021
Module time:
	user time   =      44.12 seconds =       0.74 minutes
	system time =       0.53 seconds =       0.01 minutes
	total time  =         45 seconds =       0.75 minutes
Total time:
	user time   =      44.12 seconds =       0.74 minutes
	system time =       0.53 seconds =       0.01 minutes
	total time  =         45 seconds =       0.75 minutes
Grab this energy -153.18836978436914
    Psi4 stopped on: Thursday, 04 November 2021 02:46PM
    Psi4 wall time for execution: 0:00:44.69

*** Psi4 exiting successfully. Buy a developer a beer!
