                               Psi4 1.4a2.dev629

  ==> Input File <==

--------------------------------------------------------------------------
import os
memory 14 GB

molecule {
 C   -0.2587389976    0.8045038719    0.0010358422
 O   -2.1912188099   -0.3328556324    0.0040742989
 C    2.4097162548   -0.2456355298   -0.0008000575
 H    2.3828610562   -2.3089554182   -0.0033275746
 H    3.3977344097    0.4665822020   -1.6647080682
 H    3.3842840690    0.4707261542    1.6637255592
units bohr
0 2
}

basis {

assign 6-31g_2dfp_

[ 6-31g_2dfp_ ]

spherical

!----------------------------------------------------------------------
! Basis Set Exchange
! Version v0.8.13
! https://www.basissetexchange.org
!----------------------------------------------------------------------
!   Basis set: 6-31G(2df,p)
! Description: 6-31G(2df,p)
!        Role: orbital
!     Version: 0  (Data from the original Basis Set Exchange)
!----------------------------------------------------------------------

****
H     0
S    3   1.00
     18.7311370              0.03349460
      2.8253937              0.23472695
      0.6401217              0.81375733
S    1   1.00
      0.1612778              1.00000000
P    1   1.00
      1.5000000              1.0000000
P    1   1.00
      0.3750000              1.0000000
****
B     0
S    6   1.00
   2068.8823000              0.0018663
    310.6495700              0.0142515
     70.6830330              0.0695516
     19.8610800              0.2325729
      6.2993048              0.4670787
      2.1270270              0.3634314
SP   3   1.00
      4.7279710             -0.1303938              0.0745976
      1.1903377             -0.1307889              0.3078467
      0.3594117              1.1309444              0.7434568
SP   1   1.00
      0.1267512              1.0000000              1.0000000
D    1   1.00
      0.8020000              1.0000000
D    1   1.00
      0.2005000              1.0000000
F    1   1.00
      0.5000000              1.0000000
****
C     0
S    6   1.00
   3047.5249000              0.0018347
    457.3695100              0.0140373
    103.9486900              0.0688426
     29.2101550              0.2321844
      9.2866630              0.4679413
      3.1639270              0.3623120
SP   3   1.00
      7.8682724             -0.1193324              0.0689991
      1.8812885             -0.1608542              0.3164240
      0.5442493              1.1434564              0.7443083
SP   1   1.00
      0.1687144              1.0000000              1.0000000
D    1   1.00
      1.2520000              1.0000000
D    1   1.00
      0.3130000              1.0000000
F    1   1.00
      0.8000000              1.0000000
****
N     0
S    6   1.00
   4173.5110000              0.0018348
    627.4579000              0.0139950
    142.9021000              0.0685870
     40.2343300              0.2322410
     12.8202100              0.4690700
      4.3904370              0.3604550
SP   3   1.00
     11.6263580             -0.1149610              0.0675800
      2.7162800             -0.1691180              0.3239070
      0.7722180              1.1458520              0.7408950
SP   1   1.00
      0.2120313              1.0000000              1.0000000
D    1   1.00
      1.8260000              1.0000000
D    1   1.00
      0.4565000              1.0000000
F    1   1.00
      1.0000000              1.0000000
****
O     0
S    6   1.00
   5484.6717000              0.0018311
    825.2349500              0.0139501
    188.0469600              0.0684451
     52.9645000              0.2327143
     16.8975700              0.4701930
      5.7996353              0.3585209
SP   3   1.00
     15.5396160             -0.1107775              0.0708743
      3.5999336             -0.1480263              0.3397528
      1.0137618              1.1307670              0.7271586
SP   1   1.00
      0.2700058              1.0000000              1.0000000
D    1   1.00
      2.5840000              1.0000000
D    1   1.00
      0.6460000              1.0000000
F    1   1.00
      1.4000000              1.0000000
****
F     0
S    6   1.00
   7001.7130900              0.0018196169
   1051.3660900              0.0139160796
    239.2856900              0.0684053245
     67.3974453              0.233185760
     21.5199573              0.471267439
      7.40310130             0.356618546
SP   3   1.00
     20.8479528             -0.108506975            0.0716287243
      4.80830834            -0.146451658            0.3459121030
      1.34406986             1.128688580            0.7224699570
SP   1   1.00
      0.358151393            1.0000000              1.0000000
D    1   1.00
      3.5000000              1.0000000
D    1   1.00
      0.8750000              1.0000000
F    1   1.00
      1.8500000              1.0000000
****
Al     0
S    6   1.00
  13983.1000000              0.00194267
   2098.7500000              0.0148599
    477.7050000              0.0728494
    134.3600000              0.2468300
     42.8709000              0.4872580
     14.5189000              0.3234960
SP   6   1.00
    239.6680000             -0.00292619             0.00460285
     57.4419000             -0.0374080              0.0331990
     18.2859000             -0.1144870              0.1362820
      6.5991400              0.1156350              0.3304760
      2.4904900              0.6125950              0.4491460
      0.9445400              0.3937990              0.2657040
SP   3   1.00
      1.2779000             -0.2276060             -0.0175130
      0.3975900              0.00144583             0.2445330
      0.1600950              1.0927900              0.8049340
SP   1   1.00
      0.0556577              1.0000000              1.0000000
D    1   1.00
      0.6500000              1.0000000
D    1   1.00
      0.1625000              1.0000000
F    1   1.00
      0.2500000              1.0000000
****
Si     0
S    6   1.00
  16115.9000000              0.00195948
   2425.5800000              0.01492880
    553.8670000              0.07284780
    156.3400000              0.24613000
     50.0683000              0.48591400
     17.0178000              0.32500200
SP   6   1.00
    292.7180000             -0.00278094             0.00443826
     69.8731000             -0.03571460             0.03266790
     22.3363000             -0.11498500             0.13472100
      8.1503900              0.09356340             0.32867800
      3.1345800              0.60301700             0.44964000
      1.2254300              0.41895900             0.26137200
SP   3   1.00
      1.7273800             -0.24463000            -0.01779510
      0.5729220              0.00431572             0.25353900
      0.2221920              1.09818000             0.80066900
SP   1   1.00
      0.0778369              1.00000000             1.00000000
D    1   1.00
      0.9000000              1.0000000
D    1   1.00
      0.2250000              1.0000000
F    1   1.00
      0.3200000              1.0000000
****
P     0
S    6   1.00
  19413.3000000              0.0018516
   2909.4200000              0.0142062
    661.3640000              0.0699995
    185.7590000              0.2400790
     59.1943000              0.4847620
     20.0310000              0.3352000
SP   6   1.00
    339.4780000             -0.00278217             0.00456462
     81.0101000             -0.0360499              0.03369360
     25.8780000             -0.1166310              0.13975500
      9.4522100              0.0968328              0.33936200
      3.6656600              0.6144180              0.45092100
      1.4674600              0.4037980              0.23858600
SP   3   1.00
      2.1562300             -0.2529230             -0.01776530
      0.7489970              0.0328517              0.27405800
      0.2831450              1.0812500              0.78542100
SP   1   1.00
      0.0998317              1.0000000              1.00000000
D    1   1.00
      1.1000000              1.0000000
D    1   1.00
      0.2750000              1.0000000
F    1   1.00
      0.4500000              1.0000000
****
S     0
S    6   1.00
  21917.1000000              0.0018690
   3301.4900000              0.0142300
    754.1460000              0.0696960
    212.7110000              0.2384870
     67.9896000              0.4833070
     23.0515000              0.3380740
SP   6   1.00
    423.7350000             -0.0023767              0.0040610
    100.7100000             -0.0316930              0.0306810
     32.1599000             -0.1133170              0.1304520
     11.8079000              0.0560900              0.3272050
      4.6311000              0.5922550              0.4528510
      1.8702500              0.4550060              0.2560420
SP   3   1.00
      2.6158400             -0.2503740             -0.0145110
      0.9221670              0.0669570              0.3102630
      0.3412870              1.0545100              0.7544830
SP   1   1.00
      0.1171670              1.0000000              1.0000000
D    1   1.00
      1.3000000              1.0000000
D    1   1.00
      0.3250000              1.0000000
F    1   1.00
      0.5500000              1.0000000
****
Cl     0
S    6   1.00
  25180.1000000              0.0018330
   3780.3500000              0.0140340
    860.4740000              0.0690970
    242.1450000              0.2374520
     77.3349000              0.4830340
     26.2470000              0.3398560
SP   6   1.00
    491.7650000             -0.0022974              0.0039894
    116.9840000             -0.0307140              0.0303180
     37.4153000             -0.1125280              0.1298800
     13.7834000              0.0450160              0.3279510
      5.4521500              0.5893530              0.4535270
      2.2258800              0.4652060              0.2521540
SP   3   1.00
      3.1864900             -0.2518300             -0.0142990
      1.1442700              0.0615890              0.3235720
      0.4203770              1.0601800              0.7435070
SP   1   1.00
      0.1426570              1.0000000              1.0000000
D    1   1.00
      1.5000000              1.0000000
D    1   1.00
      0.3750000              1.0000000
F    1   1.00
      0.7000000              1.0000000
****
}

set {
reference uhf
freeze_core true
e_convergence 10
d_convergence 10
dft_spherical_points 1202
dft_radial_points 99
}

e = energy('b3lyp')

print_out('Grab this energy {0}'.format(e))
--------------------------------------------------------------------------

    Molecular point group: c1

    Geometry (in Bohr), charge = 0, multiplicity = 2:

       Center              X                  Y                   Z               Mass
    ------------   -----------------  -----------------  -----------------  -----------------
         C           -0.258738168231     0.804502885349    -0.000443842877    12.000000000000
         O           -2.191217980531    -0.332856618951     0.002594613823    15.994914619570
         C            2.409717084169    -0.245636516351    -0.002279742577    12.000000000000
         H            2.382861885569    -2.308956404751    -0.004807259677     1.007825032230
         H            3.397735239069     0.466581215449    -1.666187753277     1.007825032230
         H            3.384284898369     0.470725167649     1.662245874123     1.007825032230

  Charge       = 0
  Multiplicity = 2
  Basis Set: ANONYMOUSECABC816
    Blend: 6-31G_2DFP_
  Basis Set: (ANONYMOUSECABC816 AUX)
    Blend: DEF2-UNIVERSAL-JKFIT

    Orbital Energies [Eh]
    ---------------------

    Alpha Occupied:

       1A    -19.186882     2A    -10.271555     3A    -10.210389
       4A     -1.081307     5A     -0.761991     6A     -0.543929
       7A     -0.466574     8A     -0.457501     9A     -0.456210
      10A     -0.387518    11A     -0.386074    12A     -0.192065

    Alpha Virtual:

      13A     -0.018846    14A      0.091740    15A      0.136892
      16A      0.141258    17A      0.217889    18A      0.268213
      19A      0.428065    20A      0.431754    21A      0.443724
      22A      0.493598    23A      0.506252    24A      0.530270
      25A      0.562940    26A      0.577493    27A      0.608547
      28A      0.615883    29A      0.644094    30A      0.717678
      31A      0.766118    32A      0.785332    33A      0.832266
      34A      0.917275    35A      0.927075    36A      0.935707
      37A      1.023231    38A      1.085387    39A      1.107590
      40A      1.153411    41A      1.221780    42A      1.306358
      43A      1.316745    44A      1.327533    45A      1.403525
      46A      1.407470    47A      1.468131    48A      1.559947
      49A      1.630597    50A      1.653869    51A      1.720317
      52A      1.813350    53A      1.834534    54A      1.901346
      55A      2.065403    56A      2.166525    57A      2.495610
      58A      2.680245    59A      2.744103    60A      2.784012
      61A      2.842112    62A      2.894523    63A      2.973469
      64A      3.031205    65A      3.058323    66A      3.104895
      67A      3.115102    68A      3.182279    69A      3.314343
      70A      3.369376    71A      3.393215    72A      3.440331
      73A      3.465694    74A      3.485900    75A      3.570499
      76A      3.739655    77A      3.762118    78A      3.942932
      79A      3.982375    80A      4.055829    81A      4.110133
      82A      4.119685    83A      4.189182    84A      4.389066
      85A      4.434100    86A      4.448861    87A      4.532635
      88A      4.919095    89A      5.037043    90A      5.042263
      91A      5.198224    92A      5.207315    93A      5.473784
      94A      5.482575    95A      5.826672    96A      5.930539
      97A      6.104369    98A      6.770685    99A      6.772853
     100A      7.071037   101A      7.135075   102A      7.529979

    Beta Occupied:

       1A    -19.178816     2A    -10.261494     3A    -10.207012
       4A     -1.065381     5A     -0.750199     6A     -0.524219
       7A     -0.451792     8A     -0.446835     9A     -0.438915
      10A     -0.382343    11A     -0.347883

    Beta Virtual:

      12A     -0.052594    13A     -0.002571    14A      0.094446
      15A      0.142584    16A      0.144388    17A      0.228318
      18A      0.273896    19A      0.433640    20A      0.435340
      21A      0.465769    22A      0.500292    23A      0.527610
      24A      0.539208    25A      0.569311    26A      0.581684
      27A      0.623083    28A      0.627142    29A      0.649805
      30A      0.739657    31A      0.777261    32A      0.795310
      33A      0.833046    34A      0.922119    35A      0.943456
      36A      0.951011    37A      1.027422    38A      1.091524
      39A      1.109670    40A      1.159611    41A      1.231036
      42A      1.311899    43A      1.319600    44A      1.334321
      45A      1.412941    46A      1.413938    47A      1.480450
      48A      1.571113    49A      1.643882    50A      1.668249
      51A      1.726556    52A      1.816511    53A      1.848667
      54A      1.908011    55A      2.072116    56A      2.187937
      57A      2.508286    58A      2.694513    59A      2.758564
      60A      2.805111    61A      2.857485    62A      2.896167
      63A      2.982953    64A      3.047963    65A      3.066912
      66A      3.122663    67A      3.124437    68A      3.216988
      69A      3.357975    70A      3.380859    71A      3.399483
      72A      3.448509    73A      3.481466    74A      3.508936
      75A      3.583757    76A      3.765406    77A      3.771517
      78A      3.951626    79A      3.991669    80A      4.072201
      81A      4.122504    82A      4.124765    83A      4.200902
      84A      4.391323    85A      4.440269    86A      4.453078
      87A      4.543524    88A      4.922972    89A      5.054547
      90A      5.060269    91A      5.200392    92A      5.213038
      93A      5.486426    94A      5.496463    95A      5.839915
      96A      5.936127    97A      6.127568    98A      6.799968
      99A      6.802478   100A      7.075337   101A      7.164450
     102A      7.541644

    Final Occupation by Irrep:
              A
    DOCC [    11 ]
    SOCC [     1 ]

  @DF-UKS Final Energy:  -153.18843458022525

   => Energetics <=

    Nuclear Repulsion Energy =             62.7918017891690710
    One-Electron Energy =                -331.5833891537920408
    Two-Electron Energy =                 132.1837102933648112
    DFT Exchange-Correlation Energy =     -16.5805575089671144
    Empirical Dispersion Energy =           0.0000000000000000
    VV10 Nonlocal Energy =                  0.0000000000000000
    Total Energy =                       -153.1884345802252483

  UHF NO Occupations:
  HONO-2 :   10  A 1.9997847
  HONO-1 :   11  A 1.9992019
  HONO-0 :   12  A 1.0000000
  LUNO+0 :   13  A 0.0007981
  LUNO+1 :   14  A 0.0002153
  LUNO+2 :   15  A 0.0001800
  LUNO+3 :   16  A 0.0000615

Computation Completed

Properties will be evaluated at   0.000000,   0.000000,   0.000000 [a0]

Properties computed using the SCF density matrix

  Nuclear Dipole Moment: [e a0]
     X:     4.5410      Y:    -0.6813      Z:    -0.0043

  Electronic Dipole Moment: [e a0]
     X:    -3.6096      Y:     0.6309      Z:     0.0034

  Dipole Moment: [e a0]
     X:     0.9314      Y:    -0.0504      Z:    -0.0010     Total:     0.9328

  Dipole Moment: [D]
     X:     2.3674      Y:    -0.1281      Z:    -0.0025     Total:     2.3709

*** tstop() called on n086 at Tue Mar 15 10:36:02 2022
Module time:
	user time   =      44.33 seconds =       0.74 minutes
	system time =       0.51 seconds =       0.01 minutes
	total time  =         45 seconds =       0.75 minutes
Total time:
	user time   =      44.33 seconds =       0.74 minutes
	system time =       0.51 seconds =       0.01 minutes
	total time  =         45 seconds =       0.75 minutes
Grab this energy -153.18843458022525
    Psi4 stopped on: Tuesday, 15 March 2022 10:36AM
    Psi4 wall time for execution: 0:00:44.88

*** Psi4 exiting successfully. Buy a developer a beer!
