                               Psi4 1.4a2.dev629

  ==> Input File <==

--------------------------------------------------------------------------
import os
memory 14 GB

molecule {
 C   -0.2607195043    0.7985422770    0.0000000000
 O   -2.2030608075   -0.3252420095    0.0000000000
 C    2.4118524869   -0.2486727443    0.0000000000
 H    2.3928546668   -2.3062815534    0.0000000000
 H    3.3918555701    0.4680098390   -1.6694725261
 H    3.3918555701    0.4680098390    1.6694725261
units bohr
0 2
}

basis {

assign 6-31g_2dfp_

[ 6-31g_2dfp_ ]

spherical

!----------------------------------------------------------------------
! Basis Set Exchange
! Version v0.8.13
! https://www.basissetexchange.org
!----------------------------------------------------------------------
!   Basis set: 6-31G(2df,p)
! Description: 6-31G(2df,p)
!        Role: orbital
!     Version: 0  (Data from the original Basis Set Exchange)
!----------------------------------------------------------------------

****
H     0
S    3   1.00
     18.7311370              0.03349460
      2.8253937              0.23472695
      0.6401217              0.81375733
S    1   1.00
      0.1612778              1.00000000
P    1   1.00
      1.5000000              1.0000000
P    1   1.00
      0.3750000              1.0000000
****
B     0
S    6   1.00
   2068.8823000              0.0018663
    310.6495700              0.0142515
     70.6830330              0.0695516
     19.8610800              0.2325729
      6.2993048              0.4670787
      2.1270270              0.3634314
SP   3   1.00
      4.7279710             -0.1303938              0.0745976
      1.1903377             -0.1307889              0.3078467
      0.3594117              1.1309444              0.7434568
SP   1   1.00
      0.1267512              1.0000000              1.0000000
D    1   1.00
      0.8020000              1.0000000
D    1   1.00
      0.2005000              1.0000000
F    1   1.00
      0.5000000              1.0000000
****
C     0
S    6   1.00
   3047.5249000              0.0018347
    457.3695100              0.0140373
    103.9486900              0.0688426
     29.2101550              0.2321844
      9.2866630              0.4679413
      3.1639270              0.3623120
SP   3   1.00
      7.8682724             -0.1193324              0.0689991
      1.8812885             -0.1608542              0.3164240
      0.5442493              1.1434564              0.7443083
SP   1   1.00
      0.1687144              1.0000000              1.0000000
D    1   1.00
      1.2520000              1.0000000
D    1   1.00
      0.3130000              1.0000000
F    1   1.00
      0.8000000              1.0000000
****
N     0
S    6   1.00
   4173.5110000              0.0018348
    627.4579000              0.0139950
    142.9021000              0.0685870
     40.2343300              0.2322410
     12.8202100              0.4690700
      4.3904370              0.3604550
SP   3   1.00
     11.6263580             -0.1149610              0.0675800
      2.7162800             -0.1691180              0.3239070
      0.7722180              1.1458520              0.7408950
SP   1   1.00
      0.2120313              1.0000000              1.0000000
D    1   1.00
      1.8260000              1.0000000
D    1   1.00
      0.4565000              1.0000000
F    1   1.00
      1.0000000              1.0000000
****
O     0
S    6   1.00
   5484.6717000              0.0018311
    825.2349500              0.0139501
    188.0469600              0.0684451
     52.9645000              0.2327143
     16.8975700              0.4701930
      5.7996353              0.3585209
SP   3   1.00
     15.5396160             -0.1107775              0.0708743
      3.5999336             -0.1480263              0.3397528
      1.0137618              1.1307670              0.7271586
SP   1   1.00
      0.2700058              1.0000000              1.0000000
D    1   1.00
      2.5840000              1.0000000
D    1   1.00
      0.6460000              1.0000000
F    1   1.00
      1.4000000              1.0000000
****
F     0
S    6   1.00
   7001.7130900              0.0018196169
   1051.3660900              0.0139160796
    239.2856900              0.0684053245
     67.3974453              0.233185760
     21.5199573              0.471267439
      7.40310130             0.356618546
SP   3   1.00
     20.8479528             -0.108506975            0.0716287243
      4.80830834            -0.146451658            0.3459121030
      1.34406986             1.128688580            0.7224699570
SP   1   1.00
      0.358151393            1.0000000              1.0000000
D    1   1.00
      3.5000000              1.0000000
D    1   1.00
      0.8750000              1.0000000
F    1   1.00
      1.8500000              1.0000000
****
Al     0
S    6   1.00
  13983.1000000              0.00194267
   2098.7500000              0.0148599
    477.7050000              0.0728494
    134.3600000              0.2468300
     42.8709000              0.4872580
     14.5189000              0.3234960
SP   6   1.00
    239.6680000             -0.00292619             0.00460285
     57.4419000             -0.0374080              0.0331990
     18.2859000             -0.1144870              0.1362820
      6.5991400              0.1156350              0.3304760
      2.4904900              0.6125950              0.4491460
      0.9445400              0.3937990              0.2657040
SP   3   1.00
      1.2779000             -0.2276060             -0.0175130
      0.3975900              0.00144583             0.2445330
      0.1600950              1.0927900              0.8049340
SP   1   1.00
      0.0556577              1.0000000              1.0000000
D    1   1.00
      0.6500000              1.0000000
D    1   1.00
      0.1625000              1.0000000
F    1   1.00
      0.2500000              1.0000000
****
Si     0
S    6   1.00
  16115.9000000              0.00195948
   2425.5800000              0.01492880
    553.8670000              0.07284780
    156.3400000              0.24613000
     50.0683000              0.48591400
     17.0178000              0.32500200
SP   6   1.00
    292.7180000             -0.00278094             0.00443826
     69.8731000             -0.03571460             0.03266790
     22.3363000             -0.11498500             0.13472100
      8.1503900              0.09356340             0.32867800
      3.1345800              0.60301700             0.44964000
      1.2254300              0.41895900             0.26137200
SP   3   1.00
      1.7273800             -0.24463000            -0.01779510
      0.5729220              0.00431572             0.25353900
      0.2221920              1.09818000             0.80066900
SP   1   1.00
      0.0778369              1.00000000             1.00000000
D    1   1.00
      0.9000000              1.0000000
D    1   1.00
      0.2250000              1.0000000
F    1   1.00
      0.3200000              1.0000000
****
P     0
S    6   1.00
  19413.3000000              0.0018516
   2909.4200000              0.0142062
    661.3640000              0.0699995
    185.7590000              0.2400790
     59.1943000              0.4847620
     20.0310000              0.3352000
SP   6   1.00
    339.4780000             -0.00278217             0.00456462
     81.0101000             -0.0360499              0.03369360
     25.8780000             -0.1166310              0.13975500
      9.4522100              0.0968328              0.33936200
      3.6656600              0.6144180              0.45092100
      1.4674600              0.4037980              0.23858600
SP   3   1.00
      2.1562300             -0.2529230             -0.01776530
      0.7489970              0.0328517              0.27405800
      0.2831450              1.0812500              0.78542100
SP   1   1.00
      0.0998317              1.0000000              1.00000000
D    1   1.00
      1.1000000              1.0000000
D    1   1.00
      0.2750000              1.0000000
F    1   1.00
      0.4500000              1.0000000
****
S     0
S    6   1.00
  21917.1000000              0.0018690
   3301.4900000              0.0142300
    754.1460000              0.0696960
    212.7110000              0.2384870
     67.9896000              0.4833070
     23.0515000              0.3380740
SP   6   1.00
    423.7350000             -0.0023767              0.0040610
    100.7100000             -0.0316930              0.0306810
     32.1599000             -0.1133170              0.1304520
     11.8079000              0.0560900              0.3272050
      4.6311000              0.5922550              0.4528510
      1.8702500              0.4550060              0.2560420
SP   3   1.00
      2.6158400             -0.2503740             -0.0145110
      0.9221670              0.0669570              0.3102630
      0.3412870              1.0545100              0.7544830
SP   1   1.00
      0.1171670              1.0000000              1.0000000
D    1   1.00
      1.3000000              1.0000000
D    1   1.00
      0.3250000              1.0000000
F    1   1.00
      0.5500000              1.0000000
****
Cl     0
S    6   1.00
  25180.1000000              0.0018330
   3780.3500000              0.0140340
    860.4740000              0.0690970
    242.1450000              0.2374520
     77.3349000              0.4830340
     26.2470000              0.3398560
SP   6   1.00
    491.7650000             -0.0022974              0.0039894
    116.9840000             -0.0307140              0.0303180
     37.4153000             -0.1125280              0.1298800
     13.7834000              0.0450160              0.3279510
      5.4521500              0.5893530              0.4535270
      2.2258800              0.4652060              0.2521540
SP   3   1.00
      3.1864900             -0.2518300             -0.0142990
      1.1442700              0.0615890              0.3235720
      0.4203770              1.0601800              0.7435070
SP   1   1.00
      0.1426570              1.0000000              1.0000000
D    1   1.00
      1.5000000              1.0000000
D    1   1.00
      0.3750000              1.0000000
F    1   1.00
      0.7000000              1.0000000
****
}

set {
reference uhf
freeze_core true
e_convergence 10
d_convergence 10
dft_spherical_points 1202
dft_radial_points 99
}

e = energy('b3lyp')

print_out('Grab this energy {0}'.format(e))
--------------------------------------------------------------------------

    Molecular point group: cs

    Geometry (in Bohr), charge = 0, multiplicity = 2:

       Center              X                  Y                   Z               Mass
    ------------   -----------------  -----------------  -----------------  -----------------
         C           -0.256632856765     0.798188195847     0.000000000000    12.000000000000
         O           -2.198974159965    -0.325596090653     0.000000000000    15.994914619570
         C            2.415939134435    -0.249026825453     0.000000000000    12.000000000000
         H            2.396941314335    -2.306635634553     0.000000000000     1.007825032230
         H            3.395942217635     0.467655757847    -1.669472526100     1.007825032230
         H            3.395942217635     0.467655757847     1.669472526100     1.007825032230

  Charge       = 0
  Multiplicity = 2
  Basis Set: ANONYMOUSE17EE9EE
    Blend: 6-31G_2DFP_
  Basis Set: (ANONYMOUSE17EE9EE AUX)
    Blend: DEF2-UNIVERSAL-JKFIT

    Orbital Energies [Eh]
    ---------------------

    Alpha Occupied:

       1Ap   -19.186892     2Ap   -10.271801     3Ap   -10.210879
       4Ap    -1.080644     5Ap    -0.761838     6Ap    -0.543932
       7Ap    -0.465978     8Ap    -0.457673     1App   -0.455959
       2App   -0.387342     9Ap    -0.386271    10Ap    -0.191472

    Alpha Virtual:

       3App   -0.019147    11Ap     0.091188    12Ap     0.137329
       4App    0.140666    13Ap     0.217009    14Ap     0.267954
      15Ap     0.427429     5App    0.431882    16Ap     0.443522
       6App    0.493124    17Ap     0.506564    18Ap     0.530138
       7App    0.562904    19Ap     0.577267    20Ap     0.608379
       8App    0.615223    21Ap     0.644093    22Ap     0.718015
       9App    0.764642    23Ap     0.784825    10App    0.831943
      11App    0.917490    24Ap     0.926016    25Ap     0.934394
      12App    1.022876    26Ap     1.086359    27Ap     1.106000
      13App    1.152104    28Ap     1.222222    29Ap     1.306206
      14App    1.316864    30Ap     1.326727    31Ap     1.401513
      15App    1.407336    32Ap     1.468285    33Ap     1.560364
      34Ap     1.632434    16App    1.653601    35Ap     1.720327
      17App    1.811498    36Ap     1.832258    37Ap     1.900784
      18App    2.066027    38Ap     2.169968    39Ap     2.493343
      19App    2.680306    40Ap     2.743835    41Ap     2.784797
      20App    2.839077    21App    2.894790    42Ap     2.976401
      43Ap     3.027896    22App    3.056220    23App    3.104631
      44Ap     3.114055    45Ap     3.179543    24App    3.313923
      46Ap     3.365236    25App    3.394056    26App    3.440767
      27App    3.464155    47Ap     3.483159    48Ap     3.570053
      49Ap     3.738119    50Ap     3.764392    51Ap     3.941861
      28App    3.979958    52Ap     4.052866    53Ap     4.106419
      29App    4.119708    54Ap     4.186961    30App    4.386451
      55Ap     4.431668    31App    4.446133    56Ap     4.534467
      57Ap     4.917723    58Ap     5.036945    32App    5.042132
      33App    5.191919    59Ap     5.210985    60Ap     5.471727
      34App    5.480593    61Ap     5.827724    35App    5.929221
      62Ap     6.104017    63Ap     6.770504    36App    6.772798
      37App    7.071879    64Ap     7.134763    65Ap     7.529360

    Beta Occupied:

       1Ap   -19.178852     2Ap   -10.261711     3Ap   -10.207519
       4Ap    -1.064740     5Ap    -0.750060     6Ap    -0.524138
       1App   -0.451430     7Ap    -0.447095     8Ap    -0.438576
       2App   -0.382179     9Ap    -0.348057

    Beta Virtual:

      10Ap    -0.051884     3App   -0.002885    11Ap     0.093818
      12Ap     0.143073     4App    0.143795    13Ap     0.227460
      14Ap     0.273648     5App    0.433878    15Ap     0.434760
      16Ap     0.465118     6App    0.499798    17Ap     0.527814
      18Ap     0.539365     7App    0.569142    19Ap     0.581541
       8App    0.622631    20Ap     0.627022    21Ap     0.649925
      22Ap     0.740099     9App    0.775765    23Ap     0.794844
      10App    0.832723    11App    0.922331    24Ap     0.940317
      25Ap     0.951649    12App    1.027056    26Ap     1.092264
      27Ap     1.108224    13App    1.158285    28Ap     1.231592
      29Ap     1.311667    14App    1.319655    30Ap     1.333504
      31Ap     1.411697    15App    1.412833    32Ap     1.480469
      33Ap     1.571422    34Ap     1.645952    16App    1.667866
      35Ap     1.726539    17App    1.814720    36Ap     1.846436
      37Ap     1.907458    18App    2.072715    38Ap     2.191322
      39Ap     2.506025    19App    2.694510    40Ap     2.758365
      41Ap     2.806057    20App    2.854692    21App    2.896445
      42Ap     2.985783    43Ap     3.044727    22App    3.065017
      44Ap     3.122492    23App    3.123263    45Ap     3.214383
      24App    3.357742    46Ap     3.376902    25App    3.400146
      26App    3.449113    27App    3.479671    47Ap     3.506022
      48Ap     3.583398    49Ap     3.763694    50Ap     3.773893
      51Ap     3.950454    28App    3.989215    52Ap     4.069105
      53Ap     4.120933    29App    4.122491    54Ap     4.198873
      30App    4.388738    55Ap     4.437828    31App    4.450312
      56Ap     4.545416    57Ap     4.921544    58Ap     5.054444
      32App    5.060043    33App    5.194030    59Ap     5.216691
      60Ap     5.484398    34App    5.494480    61Ap     5.840943
      35App    5.934813    62Ap     6.127134    63Ap     6.799656
      36App    6.802283    37App    7.076181    64Ap     7.164055
      65Ap     7.541008

    Final Occupation by Irrep:
             Ap   App
    DOCC [     9,    2 ]
    SOCC [     1,    0 ]

  @DF-UKS Final Energy:  -153.18840981249670

   => Energetics <=

    Nuclear Repulsion Energy =             62.7113669598520005
    One-Electron Energy =                -331.4254616464361334
    Two-Electron Energy =                 132.1045691558321380
    DFT Exchange-Correlation Energy =     -16.5788842817446991
    Empirical Dispersion Energy =           0.0000000000000000
    VV10 Nonlocal Energy =                  0.0000000000000000
    Total Energy =                       -153.1884098124967011

  UHF NO Occupations:
  HONO-2 :    8 Ap 1.9997859
  HONO-1 :    9 Ap 1.9992031
  HONO-0 :   10 Ap 1.0000000
  LUNO+0 :   11 Ap 0.0007969
  LUNO+1 :   12 Ap 0.0002141
  LUNO+2 :    3App 0.0001828
  LUNO+3 :   13 Ap 0.0000613

Computation Completed

Properties will be evaluated at   0.000000,   0.000000,   0.000000 [a0]

Properties computed using the SCF density matrix

  Nuclear Dipole Moment: [e a0]
     X:     4.5529      Y:    -0.6811      Z:     0.0000

  Electronic Dipole Moment: [e a0]
     X:    -3.6173      Y:     0.6275      Z:     0.0000

  Dipole Moment: [e a0]
     X:     0.9356      Y:    -0.0536      Z:     0.0000     Total:     0.9371

  Dipole Moment: [D]
     X:     2.3781      Y:    -0.1363      Z:     0.0000     Total:     2.3820

*** tstop() called on n054 at Tue Mar 15 10:35:08 2022
Module time:
	user time   =      50.63 seconds =       0.84 minutes
	system time =       0.53 seconds =       0.01 minutes
	total time  =         51 seconds =       0.85 minutes
Total time:
	user time   =      50.63 seconds =       0.84 minutes
	system time =       0.53 seconds =       0.01 minutes
	total time  =         51 seconds =       0.85 minutes
Grab this energy -153.1884098124967
    Psi4 stopped on: Tuesday, 15 March 2022 10:35AM
    Psi4 wall time for execution: 0:00:51.20

*** Psi4 exiting successfully. Buy a developer a beer!
