                               Psi4 1.4a2.dev629

  ==> Input File <==

--------------------------------------------------------------------------
import os
memory 14 GB

molecule {
 C   -0.2559361998    0.8088929204    0.0010362932
 O   -2.1792381051   -0.3401067233    0.0040716568
 C    2.4067429399   -0.2439664690   -0.0007992751
 H    2.3731820942   -2.3065018073   -0.0033360883
 H    3.3966625122    0.4659442688   -1.6641283241
 H    3.3832247408    0.4701034582    1.6631557375
units bohr
0 2
}

basis {

assign 6-31g_2dfp_

[ 6-31g_2dfp_ ]

spherical

!----------------------------------------------------------------------
! Basis Set Exchange
! Version v0.8.13
! https://www.basissetexchange.org
!----------------------------------------------------------------------
!   Basis set: 6-31G(2df,p)
! Description: 6-31G(2df,p)
!        Role: orbital
!     Version: 0  (Data from the original Basis Set Exchange)
!----------------------------------------------------------------------

****
H     0
S    3   1.00
     18.7311370              0.03349460
      2.8253937              0.23472695
      0.6401217              0.81375733
S    1   1.00
      0.1612778              1.00000000
P    1   1.00
      1.5000000              1.0000000
P    1   1.00
      0.3750000              1.0000000
****
B     0
S    6   1.00
   2068.8823000              0.0018663
    310.6495700              0.0142515
     70.6830330              0.0695516
     19.8610800              0.2325729
      6.2993048              0.4670787
      2.1270270              0.3634314
SP   3   1.00
      4.7279710             -0.1303938              0.0745976
      1.1903377             -0.1307889              0.3078467
      0.3594117              1.1309444              0.7434568
SP   1   1.00
      0.1267512              1.0000000              1.0000000
D    1   1.00
      0.8020000              1.0000000
D    1   1.00
      0.2005000              1.0000000
F    1   1.00
      0.5000000              1.0000000
****
C     0
S    6   1.00
   3047.5249000              0.0018347
    457.3695100              0.0140373
    103.9486900              0.0688426
     29.2101550              0.2321844
      9.2866630              0.4679413
      3.1639270              0.3623120
SP   3   1.00
      7.8682724             -0.1193324              0.0689991
      1.8812885             -0.1608542              0.3164240
      0.5442493              1.1434564              0.7443083
SP   1   1.00
      0.1687144              1.0000000              1.0000000
D    1   1.00
      1.2520000              1.0000000
D    1   1.00
      0.3130000              1.0000000
F    1   1.00
      0.8000000              1.0000000
****
N     0
S    6   1.00
   4173.5110000              0.0018348
    627.4579000              0.0139950
    142.9021000              0.0685870
     40.2343300              0.2322410
     12.8202100              0.4690700
      4.3904370              0.3604550
SP   3   1.00
     11.6263580             -0.1149610              0.0675800
      2.7162800             -0.1691180              0.3239070
      0.7722180              1.1458520              0.7408950
SP   1   1.00
      0.2120313              1.0000000              1.0000000
D    1   1.00
      1.8260000              1.0000000
D    1   1.00
      0.4565000              1.0000000
F    1   1.00
      1.0000000              1.0000000
****
O     0
S    6   1.00
   5484.6717000              0.0018311
    825.2349500              0.0139501
    188.0469600              0.0684451
     52.9645000              0.2327143
     16.8975700              0.4701930
      5.7996353              0.3585209
SP   3   1.00
     15.5396160             -0.1107775              0.0708743
      3.5999336             -0.1480263              0.3397528
      1.0137618              1.1307670              0.7271586
SP   1   1.00
      0.2700058              1.0000000              1.0000000
D    1   1.00
      2.5840000              1.0000000
D    1   1.00
      0.6460000              1.0000000
F    1   1.00
      1.4000000              1.0000000
****
F     0
S    6   1.00
   7001.7130900              0.0018196169
   1051.3660900              0.0139160796
    239.2856900              0.0684053245
     67.3974453              0.233185760
     21.5199573              0.471267439
      7.40310130             0.356618546
SP   3   1.00
     20.8479528             -0.108506975            0.0716287243
      4.80830834            -0.146451658            0.3459121030
      1.34406986             1.128688580            0.7224699570
SP   1   1.00
      0.358151393            1.0000000              1.0000000
D    1   1.00
      3.5000000              1.0000000
D    1   1.00
      0.8750000              1.0000000
F    1   1.00
      1.8500000              1.0000000
****
Al     0
S    6   1.00
  13983.1000000              0.00194267
   2098.7500000              0.0148599
    477.7050000              0.0728494
    134.3600000              0.2468300
     42.8709000              0.4872580
     14.5189000              0.3234960
SP   6   1.00
    239.6680000             -0.00292619             0.00460285
     57.4419000             -0.0374080              0.0331990
     18.2859000             -0.1144870              0.1362820
      6.5991400              0.1156350              0.3304760
      2.4904900              0.6125950              0.4491460
      0.9445400              0.3937990              0.2657040
SP   3   1.00
      1.2779000             -0.2276060             -0.0175130
      0.3975900              0.00144583             0.2445330
      0.1600950              1.0927900              0.8049340
SP   1   1.00
      0.0556577              1.0000000              1.0000000
D    1   1.00
      0.6500000              1.0000000
D    1   1.00
      0.1625000              1.0000000
F    1   1.00
      0.2500000              1.0000000
****
Si     0
S    6   1.00
  16115.9000000              0.00195948
   2425.5800000              0.01492880
    553.8670000              0.07284780
    156.3400000              0.24613000
     50.0683000              0.48591400
     17.0178000              0.32500200
SP   6   1.00
    292.7180000             -0.00278094             0.00443826
     69.8731000             -0.03571460             0.03266790
     22.3363000             -0.11498500             0.13472100
      8.1503900              0.09356340             0.32867800
      3.1345800              0.60301700             0.44964000
      1.2254300              0.41895900             0.26137200
SP   3   1.00
      1.7273800             -0.24463000            -0.01779510
      0.5729220              0.00431572             0.25353900
      0.2221920              1.09818000             0.80066900
SP   1   1.00
      0.0778369              1.00000000             1.00000000
D    1   1.00
      0.9000000              1.0000000
D    1   1.00
      0.2250000              1.0000000
F    1   1.00
      0.3200000              1.0000000
****
P     0
S    6   1.00
  19413.3000000              0.0018516
   2909.4200000              0.0142062
    661.3640000              0.0699995
    185.7590000              0.2400790
     59.1943000              0.4847620
     20.0310000              0.3352000
SP   6   1.00
    339.4780000             -0.00278217             0.00456462
     81.0101000             -0.0360499              0.03369360
     25.8780000             -0.1166310              0.13975500
      9.4522100              0.0968328              0.33936200
      3.6656600              0.6144180              0.45092100
      1.4674600              0.4037980              0.23858600
SP   3   1.00
      2.1562300             -0.2529230             -0.01776530
      0.7489970              0.0328517              0.27405800
      0.2831450              1.0812500              0.78542100
SP   1   1.00
      0.0998317              1.0000000              1.00000000
D    1   1.00
      1.1000000              1.0000000
D    1   1.00
      0.2750000              1.0000000
F    1   1.00
      0.4500000              1.0000000
****
S     0
S    6   1.00
  21917.1000000              0.0018690
   3301.4900000              0.0142300
    754.1460000              0.0696960
    212.7110000              0.2384870
     67.9896000              0.4833070
     23.0515000              0.3380740
SP   6   1.00
    423.7350000             -0.0023767              0.0040610
    100.7100000             -0.0316930              0.0306810
     32.1599000             -0.1133170              0.1304520
     11.8079000              0.0560900              0.3272050
      4.6311000              0.5922550              0.4528510
      1.8702500              0.4550060              0.2560420
SP   3   1.00
      2.6158400             -0.2503740             -0.0145110
      0.9221670              0.0669570              0.3102630
      0.3412870              1.0545100              0.7544830
SP   1   1.00
      0.1171670              1.0000000              1.0000000
D    1   1.00
      1.3000000              1.0000000
D    1   1.00
      0.3250000              1.0000000
F    1   1.00
      0.5500000              1.0000000
****
Cl     0
S    6   1.00
  25180.1000000              0.0018330
   3780.3500000              0.0140340
    860.4740000              0.0690970
    242.1450000              0.2374520
     77.3349000              0.4830340
     26.2470000              0.3398560
SP   6   1.00
    491.7650000             -0.0022974              0.0039894
    116.9840000             -0.0307140              0.0303180
     37.4153000             -0.1125280              0.1298800
     13.7834000              0.0450160              0.3279510
      5.4521500              0.5893530              0.4535270
      2.2258800              0.4652060              0.2521540
SP   3   1.00
      3.1864900             -0.2518300             -0.0142990
      1.1442700              0.0615890              0.3235720
      0.4203770              1.0601800              0.7435070
SP   1   1.00
      0.1426570              1.0000000              1.0000000
D    1   1.00
      1.5000000              1.0000000
D    1   1.00
      0.3750000              1.0000000
F    1   1.00
      0.7000000              1.0000000
****
}

set {
reference uhf
freeze_core true
e_convergence 10
d_convergence 10
dft_spherical_points 1202
dft_radial_points 99
}

e = energy('b3lyp')

print_out('Grab this energy {0}'.format(e))
--------------------------------------------------------------------------

    Molecular point group: c1

    Geometry (in Bohr), charge = 0, multiplicity = 2:

       Center              X                  Y                   Z               Mass
    ------------   -----------------  -----------------  -----------------  -----------------
         C           -0.260065732900     0.809870142278    -0.000442786563    12.000000000000
         O           -2.183367638200    -0.339129501422     0.002592577037    15.994914619570
         C            2.402613406800    -0.242989247122    -0.002278354863    12.000000000000
         H            2.369052561100    -2.305524585422    -0.004815168063     1.007825032230
         H            3.392532979100     0.466921490678    -1.665607403863     1.007825032230
         H            3.379095207700     0.471080680078     1.661676657737     1.007825032230

  Charge       = 0
  Multiplicity = 2
  Basis Set: ANONYMOUS145EE7BC
    Blend: 6-31G_2DFP_
  Basis Set: (ANONYMOUS145EE7BC AUX)
    Blend: DEF2-UNIVERSAL-JKFIT

    Orbital Energies [Eh]
    ---------------------

    Alpha Occupied:

       1A    -19.186795     2A    -10.271178     3A    -10.209946
       4A     -1.082005     5A     -0.762221     6A     -0.543901
       7A     -0.467117     8A     -0.457579     9A     -0.456457
      10A     -0.387580    11A     -0.385827    12A     -0.192510

    Alpha Virtual:

      13A     -0.018503    14A      0.091988    15A      0.137095
      16A      0.141337    17A      0.218925    18A      0.268598
      19A      0.428531    20A      0.431917    21A      0.443874
      22A      0.493774    23A      0.506036    24A      0.530517
      25A      0.562608    26A      0.577922    27A      0.608959
      28A      0.616103    29A      0.644445    30A      0.717424
      31A      0.767623    32A      0.785882    33A      0.832300
      34A      0.917027    35A      0.927264    36A      0.938174
      37A      1.023482    38A      1.085240    39A      1.108340
      40A      1.154678    41A      1.222239    42A      1.306745
      43A      1.316802    44A      1.328686    45A      1.404915
      46A      1.407197    47A      1.468190    48A      1.559640
      49A      1.629296    50A      1.654082    51A      1.719916
      52A      1.813710    53A      1.837443    54A      1.902710
      55A      2.064552    56A      2.163700    57A      2.498068
      58A      2.680112    59A      2.744718    60A      2.784014
      61A      2.843077    62A      2.894477    63A      2.971559
      64A      3.034800    65A      3.060505    66A      3.105221
      67A      3.116530    68A      3.184005    69A      3.315184
      70A      3.372616    71A      3.392979    72A      3.440818
      73A      3.467175    74A      3.487929    75A      3.571449
      76A      3.741289    77A      3.761896    78A      3.944268
      79A      3.984945    80A      4.058704    81A      4.113733
      82A      4.120120    83A      4.191771    84A      4.390087
      85A      4.437692    86A      4.450689    87A      4.532614
      88A      4.919742    89A      5.037228    90A      5.042431
      91A      5.199101    92A      5.208639    93A      5.476288
      94A      5.484445    95A      5.825812    96A      5.932227
      97A      6.105424    98A      6.770994    99A      6.773000
     100A      7.070485   101A      7.135480   102A      7.530867

    Beta Occupied:

       1A    -19.178702     2A    -10.261138     3A    -10.206558
       4A     -1.066053     5A     -0.750399     6A     -0.524238
       7A     -0.452030     8A     -0.447048     9A     -0.439147
      10A     -0.382409    11A     -0.347664

    Beta Virtual:

      12A     -0.053066    13A     -0.002223    14A      0.094704
      15A      0.142773    16A      0.144475    17A      0.229274
      18A      0.274273    19A      0.433775    20A      0.435514
      21A      0.466503    22A      0.500476    23A      0.527416
      24A      0.539162    25A      0.569034    26A      0.582071
      27A      0.623173    28A      0.627560    29A      0.650095
      30A      0.739305    31A      0.778780    32A      0.795830
      33A      0.833076    34A      0.921878    35A      0.946780
      36A      0.950442    37A      1.027687    38A      1.091473
      39A      1.110387    40A      1.160900    41A      1.231387
      42A      1.312351    43A      1.319655    44A      1.335492
      45A      1.412730    46A      1.415471    47A      1.480682
      48A      1.570858    49A      1.642404    50A      1.668575
      51A      1.726166    52A      1.816809    53A      1.851483
      54A      1.909443    55A      2.071290    56A      2.185181
      57A      2.510744    58A      2.694441    59A      2.759202
      60A      2.804943    61A      2.858112    62A      2.896110
      63A      2.981134    64A      3.051371    65A      3.069008
      66A      3.123503    67A      3.125484    68A      3.218596
      69A      3.358668    70A      3.383862    71A      3.399308
      72A      3.448601    73A      3.483458    74A      3.511183
      75A      3.584741    76A      3.766712    77A      3.771610
      78A      3.953086    79A      3.994248    80A      4.075140
      81A      4.122912    82A      4.127794    83A      4.203961
      84A      4.392339    85A      4.443913    86A      4.454927
      87A      4.543479    88A      4.923630    89A      5.054777
      90A      5.060533    91A      5.201281    92A      5.214388
      93A      5.488902    94A      5.498373    95A      5.839091
      96A      5.937816    97A      6.128707    98A      6.800408
      99A      6.802764   100A      7.074786   101A      7.164943
     102A      7.542548

    Final Occupation by Irrep:
              A
    DOCC [    11 ]
    SOCC [     1 ]

  @DF-UKS Final Energy:  -153.18842902384827

   => Energetics <=

    Nuclear Repulsion Energy =             62.8833017096573883
    One-Electron Energy =                -331.7635206588233245
    Two-Electron Energy =                 132.2741712322786327
    DFT Exchange-Correlation Energy =     -16.5823813069609365
    Empirical Dispersion Energy =           0.0000000000000000
    VV10 Nonlocal Energy =                  0.0000000000000000
    Total Energy =                       -153.1884290238482720

  UHF NO Occupations:
  HONO-2 :   10  A 1.9997850
  HONO-1 :   11  A 1.9992007
  HONO-0 :   12  A 1.0000000
  LUNO+0 :   13  A 0.0007993
  LUNO+1 :   14  A 0.0002150
  LUNO+2 :   15  A 0.0001774
  LUNO+3 :   16  A 0.0000618

Computation Completed

Properties will be evaluated at   0.000000,   0.000000,   0.000000 [a0]

Properties computed using the SCF density matrix

  Nuclear Dipole Moment: [e a0]
     X:     4.5290      Y:    -0.6793      Z:    -0.0043

  Electronic Dipole Moment: [e a0]
     X:    -3.6016      Y:     0.6308      Z:     0.0034

  Dipole Moment: [e a0]
     X:     0.9274      Y:    -0.0485      Z:    -0.0010     Total:     0.9287

  Dipole Moment: [D]
     X:     2.3573      Y:    -0.1233      Z:    -0.0024     Total:     2.3605

*** tstop() called on n029 at Tue Mar 15 10:36:36 2022
Module time:
	user time   =      62.29 seconds =       1.04 minutes
	system time =       0.43 seconds =       0.01 minutes
	total time  =         63 seconds =       1.05 minutes
Total time:
	user time   =      62.29 seconds =       1.04 minutes
	system time =       0.43 seconds =       0.01 minutes
	total time  =         63 seconds =       1.05 minutes
Grab this energy -153.18842902384827
    Psi4 stopped on: Tuesday, 15 March 2022 10:36AM
    Psi4 wall time for execution: 0:01:02.77

*** Psi4 exiting successfully. Buy a developer a beer!
