                               Psi4 1.4a2.dev629

  ==> Input File <==

--------------------------------------------------------------------------
import os
memory 14 GB

molecule {
 C   -0.2646533496    0.8029078654    0.0000000005
 O   -2.1876139661   -0.3347799610    0.0000000098
 C    2.4095675360   -0.2449700649    0.0000000088
 H    2.3868532218   -2.3040126783    0.0000000306
 H    3.3912220791    0.4754946445   -1.6636458202
 H    3.3912224288    0.4754948142    1.6636455904
units bohr
0 2
}

basis {

assign 6-31g_2dfp_

[ 6-31g_2dfp_ ]

spherical

!----------------------------------------------------------------------
! Basis Set Exchange
! Version v0.8.13
! https://www.basissetexchange.org
!----------------------------------------------------------------------
!   Basis set: 6-31G(2df,p)
! Description: 6-31G(2df,p)
!        Role: orbital
!     Version: 0  (Data from the original Basis Set Exchange)
!----------------------------------------------------------------------

****
H     0
S    3   1.00
     18.7311370              0.03349460
      2.8253937              0.23472695
      0.6401217              0.81375733
S    1   1.00
      0.1612778              1.00000000
P    1   1.00
      1.5000000              1.0000000
P    1   1.00
      0.3750000              1.0000000
****
B     0
S    6   1.00
   2068.8823000              0.0018663
    310.6495700              0.0142515
     70.6830330              0.0695516
     19.8610800              0.2325729
      6.2993048              0.4670787
      2.1270270              0.3634314
SP   3   1.00
      4.7279710             -0.1303938              0.0745976
      1.1903377             -0.1307889              0.3078467
      0.3594117              1.1309444              0.7434568
SP   1   1.00
      0.1267512              1.0000000              1.0000000
D    1   1.00
      0.8020000              1.0000000
D    1   1.00
      0.2005000              1.0000000
F    1   1.00
      0.5000000              1.0000000
****
C     0
S    6   1.00
   3047.5249000              0.0018347
    457.3695100              0.0140373
    103.9486900              0.0688426
     29.2101550              0.2321844
      9.2866630              0.4679413
      3.1639270              0.3623120
SP   3   1.00
      7.8682724             -0.1193324              0.0689991
      1.8812885             -0.1608542              0.3164240
      0.5442493              1.1434564              0.7443083
SP   1   1.00
      0.1687144              1.0000000              1.0000000
D    1   1.00
      1.2520000              1.0000000
D    1   1.00
      0.3130000              1.0000000
F    1   1.00
      0.8000000              1.0000000
****
N     0
S    6   1.00
   4173.5110000              0.0018348
    627.4579000              0.0139950
    142.9021000              0.0685870
     40.2343300              0.2322410
     12.8202100              0.4690700
      4.3904370              0.3604550
SP   3   1.00
     11.6263580             -0.1149610              0.0675800
      2.7162800             -0.1691180              0.3239070
      0.7722180              1.1458520              0.7408950
SP   1   1.00
      0.2120313              1.0000000              1.0000000
D    1   1.00
      1.8260000              1.0000000
D    1   1.00
      0.4565000              1.0000000
F    1   1.00
      1.0000000              1.0000000
****
O     0
S    6   1.00
   5484.6717000              0.0018311
    825.2349500              0.0139501
    188.0469600              0.0684451
     52.9645000              0.2327143
     16.8975700              0.4701930
      5.7996353              0.3585209
SP   3   1.00
     15.5396160             -0.1107775              0.0708743
      3.5999336             -0.1480263              0.3397528
      1.0137618              1.1307670              0.7271586
SP   1   1.00
      0.2700058              1.0000000              1.0000000
D    1   1.00
      2.5840000              1.0000000
D    1   1.00
      0.6460000              1.0000000
F    1   1.00
      1.4000000              1.0000000
****
F     0
S    6   1.00
   7001.7130900              0.0018196169
   1051.3660900              0.0139160796
    239.2856900              0.0684053245
     67.3974453              0.233185760
     21.5199573              0.471267439
      7.40310130             0.356618546
SP   3   1.00
     20.8479528             -0.108506975            0.0716287243
      4.80830834            -0.146451658            0.3459121030
      1.34406986             1.128688580            0.7224699570
SP   1   1.00
      0.358151393            1.0000000              1.0000000
D    1   1.00
      3.5000000              1.0000000
D    1   1.00
      0.8750000              1.0000000
F    1   1.00
      1.8500000              1.0000000
****
Al     0
S    6   1.00
  13983.1000000              0.00194267
   2098.7500000              0.0148599
    477.7050000              0.0728494
    134.3600000              0.2468300
     42.8709000              0.4872580
     14.5189000              0.3234960
SP   6   1.00
    239.6680000             -0.00292619             0.00460285
     57.4419000             -0.0374080              0.0331990
     18.2859000             -0.1144870              0.1362820
      6.5991400              0.1156350              0.3304760
      2.4904900              0.6125950              0.4491460
      0.9445400              0.3937990              0.2657040
SP   3   1.00
      1.2779000             -0.2276060             -0.0175130
      0.3975900              0.00144583             0.2445330
      0.1600950              1.0927900              0.8049340
SP   1   1.00
      0.0556577              1.0000000              1.0000000
D    1   1.00
      0.6500000              1.0000000
D    1   1.00
      0.1625000              1.0000000
F    1   1.00
      0.2500000              1.0000000
****
Si     0
S    6   1.00
  16115.9000000              0.00195948
   2425.5800000              0.01492880
    553.8670000              0.07284780
    156.3400000              0.24613000
     50.0683000              0.48591400
     17.0178000              0.32500200
SP   6   1.00
    292.7180000             -0.00278094             0.00443826
     69.8731000             -0.03571460             0.03266790
     22.3363000             -0.11498500             0.13472100
      8.1503900              0.09356340             0.32867800
      3.1345800              0.60301700             0.44964000
      1.2254300              0.41895900             0.26137200
SP   3   1.00
      1.7273800             -0.24463000            -0.01779510
      0.5729220              0.00431572             0.25353900
      0.2221920              1.09818000             0.80066900
SP   1   1.00
      0.0778369              1.00000000             1.00000000
D    1   1.00
      0.9000000              1.0000000
D    1   1.00
      0.2250000              1.0000000
F    1   1.00
      0.3200000              1.0000000
****
P     0
S    6   1.00
  19413.3000000              0.0018516
   2909.4200000              0.0142062
    661.3640000              0.0699995
    185.7590000              0.2400790
     59.1943000              0.4847620
     20.0310000              0.3352000
SP   6   1.00
    339.4780000             -0.00278217             0.00456462
     81.0101000             -0.0360499              0.03369360
     25.8780000             -0.1166310              0.13975500
      9.4522100              0.0968328              0.33936200
      3.6656600              0.6144180              0.45092100
      1.4674600              0.4037980              0.23858600
SP   3   1.00
      2.1562300             -0.2529230             -0.01776530
      0.7489970              0.0328517              0.27405800
      0.2831450              1.0812500              0.78542100
SP   1   1.00
      0.0998317              1.0000000              1.00000000
D    1   1.00
      1.1000000              1.0000000
D    1   1.00
      0.2750000              1.0000000
F    1   1.00
      0.4500000              1.0000000
****
S     0
S    6   1.00
  21917.1000000              0.0018690
   3301.4900000              0.0142300
    754.1460000              0.0696960
    212.7110000              0.2384870
     67.9896000              0.4833070
     23.0515000              0.3380740
SP   6   1.00
    423.7350000             -0.0023767              0.0040610
    100.7100000             -0.0316930              0.0306810
     32.1599000             -0.1133170              0.1304520
     11.8079000              0.0560900              0.3272050
      4.6311000              0.5922550              0.4528510
      1.8702500              0.4550060              0.2560420
SP   3   1.00
      2.6158400             -0.2503740             -0.0145110
      0.9221670              0.0669570              0.3102630
      0.3412870              1.0545100              0.7544830
SP   1   1.00
      0.1171670              1.0000000              1.0000000
D    1   1.00
      1.3000000              1.0000000
D    1   1.00
      0.3250000              1.0000000
F    1   1.00
      0.5500000              1.0000000
****
Cl     0
S    6   1.00
  25180.1000000              0.0018330
   3780.3500000              0.0140340
    860.4740000              0.0690970
    242.1450000              0.2374520
     77.3349000              0.4830340
     26.2470000              0.3398560
SP   6   1.00
    491.7650000             -0.0022974              0.0039894
    116.9840000             -0.0307140              0.0303180
     37.4153000             -0.1125280              0.1298800
     13.7834000              0.0450160              0.3279510
      5.4521500              0.5893530              0.4535270
      2.2258800              0.4652060              0.2521540
SP   3   1.00
      3.1864900             -0.2518300             -0.0142990
      1.1442700              0.0615890              0.3235720
      0.4203770              1.0601800              0.7435070
SP   1   1.00
      0.1426570              1.0000000              1.0000000
D    1   1.00
      1.5000000              1.0000000
D    1   1.00
      0.3750000              1.0000000
F    1   1.00
      0.7000000              1.0000000
****
}

set {
reference uhf
freeze_core true
e_convergence 10
d_convergence 10
dft_spherical_points 1202
dft_radial_points 99
}

e = energy('b3lyp')

print_out('Grab this energy {0}'.format(e))
--------------------------------------------------------------------------

    Molecular point group: c1

    Geometry (in Bohr), charge = 0, multiplicity = 2:

       Center              X                  Y                   Z               Mass
    ------------   -----------------  -----------------  -----------------  -----------------
         C           -0.264405069930     0.803445634400    -0.000000001071    12.000000000000
         O           -2.187365686430    -0.334242192000     0.000000008229    15.994914619570
         C            2.409815815670    -0.244432295900     0.000000007229    12.000000000000
         H            2.387101501470    -2.303474909300     0.000000029029     1.007825032230
         H            3.391470358770     0.476032413500    -1.663645821771     1.007825032230
         H            3.391470708470     0.476032583200     1.663645588829     1.007825032230

  Charge       = 0
  Multiplicity = 2
  Basis Set: ANONYMOUS1C16B2C5
    Blend: 6-31G_2DFP_
  Basis Set: (ANONYMOUS1C16B2C5 AUX)
    Blend: DEF2-UNIVERSAL-JKFIT

    Orbital Energies [Eh]
    ---------------------

    Alpha Occupied:

       1A    -19.186930     2A    -10.270911     3A    -10.210098
       4A     -1.083737     5A     -0.761241     6A     -0.543643
       7A     -0.467194     8A     -0.457734     9A     -0.456009
      10A     -0.388380    11A     -0.386950    12A     -0.191261

    Alpha Virtual:

      13A     -0.017619    14A      0.091886    15A      0.137743
      16A      0.141121    17A      0.217645    18A      0.268352
      19A      0.428041    20A      0.432319    21A      0.443504
      22A      0.493579    23A      0.506342    24A      0.530921
      25A      0.562833    26A      0.577769    27A      0.610944
      28A      0.615469    29A      0.644652    30A      0.718538
      31A      0.766546    32A      0.785643    33A      0.832524
      34A      0.916355    35A      0.925900    36A      0.935368
      37A      1.023575    38A      1.086128    39A      1.108842
      40A      1.152634    41A      1.220140    42A      1.306309
      43A      1.315850    44A      1.327709    45A      1.404757
      46A      1.408065    47A      1.468581    48A      1.560175
      49A      1.632402    50A      1.655203    51A      1.721672
      52A      1.813210    53A      1.835067    54A      1.902325
      55A      2.066379    56A      2.167091    57A      2.501823
      58A      2.679606    59A      2.743756    60A      2.784114
      61A      2.843472    62A      2.894454    63A      2.973721
      64A      3.033003    65A      3.059748    66A      3.104670
      67A      3.114037    68A      3.182576    69A      3.313784
      70A      3.372093    71A      3.393462    72A      3.441238
      73A      3.465369    74A      3.486732    75A      3.570501
      76A      3.744469    77A      3.761694    78A      3.941859
      79A      3.980602    80A      4.056534    81A      4.109827
      82A      4.119792    83A      4.189891    84A      4.385242
      85A      4.433079    86A      4.450729    87A      4.532637
      88A      4.919148    89A      5.037082    90A      5.042472
      91A      5.197949    92A      5.208781    93A      5.479619
      94A      5.488075    95A      5.825022    96A      5.937016
      97A      6.108934    98A      6.771015    99A      6.773282
     100A      7.069929   101A      7.135381   102A      7.532818

    Beta Occupied:

       1A    -19.178878     2A    -10.260884     3A    -10.206671
       4A     -1.067898     5A     -0.749410     6A     -0.523967
       7A     -0.451367     8A     -0.447083     9A     -0.439449
      10A     -0.383286    11A     -0.348990

    Beta Virtual:

      12A     -0.051917    13A     -0.001368    14A      0.094597
      15A      0.143404    16A      0.144276    17A      0.228206
      18A      0.273969    19A      0.434304    20A      0.435361
      21A      0.465417    22A      0.500266    23A      0.527926
      24A      0.539730    25A      0.569208    26A      0.581943
      27A      0.622706    28A      0.629073    29A      0.650698
      30A      0.740717    31A      0.777603    32A      0.795517
      33A      0.833290    34A      0.921211    35A      0.942694
      36A      0.950179    37A      1.027788    38A      1.092257
      39A      1.110865    40A      1.158854    41A      1.229466
      42A      1.311948    43A      1.318641    44A      1.334479
      45A      1.413642    46A      1.415185    47A      1.480946
      48A      1.571056    49A      1.645878    50A      1.669600
      51A      1.727900    52A      1.816356    53A      1.849245
      54A      1.909015    55A      2.073090    56A      2.188435
      57A      2.514534    58A      2.693901    59A      2.758237
      60A      2.805226    61A      2.858801    62A      2.896088
      63A      2.983289    64A      3.049797    65A      3.068359
      66A      3.122490    67A      3.123384    68A      3.217268
      69A      3.357168    70A      3.383606    71A      3.399896
      72A      3.450266    73A      3.480307    74A      3.509539
      75A      3.583981    76A      3.770110    77A      3.771215
      78A      3.950539    79A      3.989942    80A      4.072990
      81A      4.122574    82A      4.124516    83A      4.201497
      84A      4.387547    85A      4.439204    86A      4.454876
      87A      4.543548    88A      4.922993    89A      5.054580
      90A      5.060456    91A      5.200080    92A      5.214517
      93A      5.492201    94A      5.501995    95A      5.838254
      96A      5.942601    97A      6.132087    98A      6.800262
      99A      6.802865   100A      7.074214   101A      7.164686
     102A      7.544445

    Final Occupation by Irrep:
              A
    DOCC [    11 ]
    SOCC [     1 ]

  @DF-UKS Final Energy:  -153.18844693186921

   => Energetics <=

    Nuclear Repulsion Energy =             62.8561123889043856
    One-Electron Energy =                -331.7053078533775192
    Two-Electron Energy =                 132.2437024711618108
    DFT Exchange-Correlation Energy =     -16.5829539385578641
    Empirical Dispersion Energy =           0.0000000000000000
    VV10 Nonlocal Energy =                  0.0000000000000000
    Total Energy =                       -153.1884469318692084

  UHF NO Occupations:
  HONO-2 :   10  A 1.9997804
  HONO-1 :   11  A 1.9992088
  HONO-0 :   12  A 1.0000000
  LUNO+0 :   13  A 0.0007912
  LUNO+1 :   14  A 0.0002196
  LUNO+2 :   15  A 0.0001773
  LUNO+3 :   16  A 0.0000612

Computation Completed

Properties will be evaluated at   0.000000,   0.000000,   0.000000 [a0]

Properties computed using the SCF density matrix

  Nuclear Dipole Moment: [e a0]
     X:     4.5436      Y:    -0.6713      Z:    -0.0000

  Electronic Dipole Moment: [e a0]
     X:    -3.6206      Y:     0.6210      Z:     0.0000

  Dipole Moment: [e a0]
     X:     0.9230      Y:    -0.0503      Z:    -0.0000     Total:     0.9244

  Dipole Moment: [D]
     X:     2.3460      Y:    -0.1279      Z:    -0.0000     Total:     2.3495

*** tstop() called on n032 at Thu Nov  4 14:50:36 2021
Module time:
	user time   =      62.47 seconds =       1.04 minutes
	system time =       0.39 seconds =       0.01 minutes
	total time  =         63 seconds =       1.05 minutes
Total time:
	user time   =      62.47 seconds =       1.04 minutes
	system time =       0.39 seconds =       0.01 minutes
	total time  =         63 seconds =       1.05 minutes
Grab this energy -153.1884469318692
    Psi4 stopped on: Thursday, 04 November 2021 02:50PM
    Psi4 wall time for execution: 0:01:02.91

*** Psi4 exiting successfully. Buy a developer a beer!
