                               Psi4 1.4a2.dev629

  ==> Input File <==

--------------------------------------------------------------------------
import os
memory 14 GB

molecule {
 C   -0.2592553347    0.8058702598   -0.0000000000
 O   -2.1902944942   -0.3329252023   -0.0000000000
 C    2.4062597334   -0.2448904539    0.0000000000
 H    2.3830379965   -2.3152967170   -0.0000000000
 H    3.3924450406    0.4708038806   -1.6684046234
 H    3.3924450406    0.4708038806    1.6684046234
units bohr
0 2
}

basis {

assign 6-31g_2dfp_

[ 6-31g_2dfp_ ]

spherical

!----------------------------------------------------------------------
! Basis Set Exchange
! Version v0.8.13
! https://www.basissetexchange.org
!----------------------------------------------------------------------
!   Basis set: 6-31G(2df,p)
! Description: 6-31G(2df,p)
!        Role: orbital
!     Version: 0  (Data from the original Basis Set Exchange)
!----------------------------------------------------------------------

****
H     0
S    3   1.00
     18.7311370              0.03349460
      2.8253937              0.23472695
      0.6401217              0.81375733
S    1   1.00
      0.1612778              1.00000000
P    1   1.00
      1.5000000              1.0000000
P    1   1.00
      0.3750000              1.0000000
****
B     0
S    6   1.00
   2068.8823000              0.0018663
    310.6495700              0.0142515
     70.6830330              0.0695516
     19.8610800              0.2325729
      6.2993048              0.4670787
      2.1270270              0.3634314
SP   3   1.00
      4.7279710             -0.1303938              0.0745976
      1.1903377             -0.1307889              0.3078467
      0.3594117              1.1309444              0.7434568
SP   1   1.00
      0.1267512              1.0000000              1.0000000
D    1   1.00
      0.8020000              1.0000000
D    1   1.00
      0.2005000              1.0000000
F    1   1.00
      0.5000000              1.0000000
****
C     0
S    6   1.00
   3047.5249000              0.0018347
    457.3695100              0.0140373
    103.9486900              0.0688426
     29.2101550              0.2321844
      9.2866630              0.4679413
      3.1639270              0.3623120
SP   3   1.00
      7.8682724             -0.1193324              0.0689991
      1.8812885             -0.1608542              0.3164240
      0.5442493              1.1434564              0.7443083
SP   1   1.00
      0.1687144              1.0000000              1.0000000
D    1   1.00
      1.2520000              1.0000000
D    1   1.00
      0.3130000              1.0000000
F    1   1.00
      0.8000000              1.0000000
****
N     0
S    6   1.00
   4173.5110000              0.0018348
    627.4579000              0.0139950
    142.9021000              0.0685870
     40.2343300              0.2322410
     12.8202100              0.4690700
      4.3904370              0.3604550
SP   3   1.00
     11.6263580             -0.1149610              0.0675800
      2.7162800             -0.1691180              0.3239070
      0.7722180              1.1458520              0.7408950
SP   1   1.00
      0.2120313              1.0000000              1.0000000
D    1   1.00
      1.8260000              1.0000000
D    1   1.00
      0.4565000              1.0000000
F    1   1.00
      1.0000000              1.0000000
****
O     0
S    6   1.00
   5484.6717000              0.0018311
    825.2349500              0.0139501
    188.0469600              0.0684451
     52.9645000              0.2327143
     16.8975700              0.4701930
      5.7996353              0.3585209
SP   3   1.00
     15.5396160             -0.1107775              0.0708743
      3.5999336             -0.1480263              0.3397528
      1.0137618              1.1307670              0.7271586
SP   1   1.00
      0.2700058              1.0000000              1.0000000
D    1   1.00
      2.5840000              1.0000000
D    1   1.00
      0.6460000              1.0000000
F    1   1.00
      1.4000000              1.0000000
****
F     0
S    6   1.00
   7001.7130900              0.0018196169
   1051.3660900              0.0139160796
    239.2856900              0.0684053245
     67.3974453              0.233185760
     21.5199573              0.471267439
      7.40310130             0.356618546
SP   3   1.00
     20.8479528             -0.108506975            0.0716287243
      4.80830834            -0.146451658            0.3459121030
      1.34406986             1.128688580            0.7224699570
SP   1   1.00
      0.358151393            1.0000000              1.0000000
D    1   1.00
      3.5000000              1.0000000
D    1   1.00
      0.8750000              1.0000000
F    1   1.00
      1.8500000              1.0000000
****
Al     0
S    6   1.00
  13983.1000000              0.00194267
   2098.7500000              0.0148599
    477.7050000              0.0728494
    134.3600000              0.2468300
     42.8709000              0.4872580
     14.5189000              0.3234960
SP   6   1.00
    239.6680000             -0.00292619             0.00460285
     57.4419000             -0.0374080              0.0331990
     18.2859000             -0.1144870              0.1362820
      6.5991400              0.1156350              0.3304760
      2.4904900              0.6125950              0.4491460
      0.9445400              0.3937990              0.2657040
SP   3   1.00
      1.2779000             -0.2276060             -0.0175130
      0.3975900              0.00144583             0.2445330
      0.1600950              1.0927900              0.8049340
SP   1   1.00
      0.0556577              1.0000000              1.0000000
D    1   1.00
      0.6500000              1.0000000
D    1   1.00
      0.1625000              1.0000000
F    1   1.00
      0.2500000              1.0000000
****
Si     0
S    6   1.00
  16115.9000000              0.00195948
   2425.5800000              0.01492880
    553.8670000              0.07284780
    156.3400000              0.24613000
     50.0683000              0.48591400
     17.0178000              0.32500200
SP   6   1.00
    292.7180000             -0.00278094             0.00443826
     69.8731000             -0.03571460             0.03266790
     22.3363000             -0.11498500             0.13472100
      8.1503900              0.09356340             0.32867800
      3.1345800              0.60301700             0.44964000
      1.2254300              0.41895900             0.26137200
SP   3   1.00
      1.7273800             -0.24463000            -0.01779510
      0.5729220              0.00431572             0.25353900
      0.2221920              1.09818000             0.80066900
SP   1   1.00
      0.0778369              1.00000000             1.00000000
D    1   1.00
      0.9000000              1.0000000
D    1   1.00
      0.2250000              1.0000000
F    1   1.00
      0.3200000              1.0000000
****
P     0
S    6   1.00
  19413.3000000              0.0018516
   2909.4200000              0.0142062
    661.3640000              0.0699995
    185.7590000              0.2400790
     59.1943000              0.4847620
     20.0310000              0.3352000
SP   6   1.00
    339.4780000             -0.00278217             0.00456462
     81.0101000             -0.0360499              0.03369360
     25.8780000             -0.1166310              0.13975500
      9.4522100              0.0968328              0.33936200
      3.6656600              0.6144180              0.45092100
      1.4674600              0.4037980              0.23858600
SP   3   1.00
      2.1562300             -0.2529230             -0.01776530
      0.7489970              0.0328517              0.27405800
      0.2831450              1.0812500              0.78542100
SP   1   1.00
      0.0998317              1.0000000              1.00000000
D    1   1.00
      1.1000000              1.0000000
D    1   1.00
      0.2750000              1.0000000
F    1   1.00
      0.4500000              1.0000000
****
S     0
S    6   1.00
  21917.1000000              0.0018690
   3301.4900000              0.0142300
    754.1460000              0.0696960
    212.7110000              0.2384870
     67.9896000              0.4833070
     23.0515000              0.3380740
SP   6   1.00
    423.7350000             -0.0023767              0.0040610
    100.7100000             -0.0316930              0.0306810
     32.1599000             -0.1133170              0.1304520
     11.8079000              0.0560900              0.3272050
      4.6311000              0.5922550              0.4528510
      1.8702500              0.4550060              0.2560420
SP   3   1.00
      2.6158400             -0.2503740             -0.0145110
      0.9221670              0.0669570              0.3102630
      0.3412870              1.0545100              0.7544830
SP   1   1.00
      0.1171670              1.0000000              1.0000000
D    1   1.00
      1.3000000              1.0000000
D    1   1.00
      0.3250000              1.0000000
F    1   1.00
      0.5500000              1.0000000
****
Cl     0
S    6   1.00
  25180.1000000              0.0018330
   3780.3500000              0.0140340
    860.4740000              0.0690970
    242.1450000              0.2374520
     77.3349000              0.4830340
     26.2470000              0.3398560
SP   6   1.00
    491.7650000             -0.0022974              0.0039894
    116.9840000             -0.0307140              0.0303180
     37.4153000             -0.1125280              0.1298800
     13.7834000              0.0450160              0.3279510
      5.4521500              0.5893530              0.4535270
      2.2258800              0.4652060              0.2521540
SP   3   1.00
      3.1864900             -0.2518300             -0.0142990
      1.1442700              0.0615890              0.3235720
      0.4203770              1.0601800              0.7435070
SP   1   1.00
      0.1426570              1.0000000              1.0000000
D    1   1.00
      1.5000000              1.0000000
D    1   1.00
      0.3750000              1.0000000
F    1   1.00
      0.7000000              1.0000000
****
}

set {
reference uhf
freeze_core true
e_convergence 10
d_convergence 10
dft_spherical_points 1202
dft_radial_points 99
}

e = energy('b3lyp')

print_out('Grab this energy {0}'.format(e))
--------------------------------------------------------------------------

    Molecular point group: cs

    Geometry (in Bohr), charge = 0, multiplicity = 2:

       Center              X                  Y                   Z               Mass
    ------------   -----------------  -----------------  -----------------  -----------------
         C           -0.258561370285     0.805353983638     0.000000000000    12.000000000000
         O           -2.189600529785    -0.333441478462     0.000000000000    15.994914619570
         C            2.406953697815    -0.245406730062     0.000000000000    12.000000000000
         H            2.383731960915    -2.315812993162     0.000000000000     1.007825032230
         H            3.393139005015     0.470287604438    -1.668404623400     1.007825032230
         H            3.393139005015     0.470287604438     1.668404623400     1.007825032230

  Charge       = 0
  Multiplicity = 2
  Basis Set: ANONYMOUS391AE3F4
    Blend: 6-31G_2DFP_
  Basis Set: (ANONYMOUS391AE3F4 AUX)
    Blend: DEF2-UNIVERSAL-JKFIT

    Orbital Energies [Eh]
    ---------------------

    Alpha Occupied:

       1Ap   -19.186904     2Ap   -10.271526     3Ap   -10.211219
       4Ap    -1.081528     5Ap    -0.761494     6Ap    -0.543811
       7Ap    -0.466360     8Ap    -0.457366     1App   -0.455914
       2App   -0.387299     9Ap    -0.385708    10Ap    -0.192258

    Alpha Virtual:

       3App   -0.018896    11Ap     0.091173    12Ap     0.135967
       4App    0.140514    13Ap     0.218542    14Ap     0.268388
      15Ap     0.428147     5App    0.431712    16Ap     0.443663
       6App    0.493216    17Ap     0.505969    18Ap     0.529498
       7App    0.562020    19Ap     0.575726    20Ap     0.608513
       8App    0.615423    21Ap     0.643538    22Ap     0.717299
       9App    0.765816    23Ap     0.785320    10App    0.830894
      11App    0.917063    24Ap     0.926838    25Ap     0.935170
      12App    1.022724    26Ap     1.085098    27Ap     1.107317
      13App    1.152732    28Ap     1.220778    29Ap     1.306874
      14App    1.315584    30Ap     1.327576    31Ap     1.401948
      15App    1.405023    32Ap     1.466769    33Ap     1.559813
      34Ap     1.629363    16App    1.653697    35Ap     1.715785
      17App    1.811280    36Ap     1.833645    37Ap     1.900024
      18App    2.064156    38Ap     2.165804    39Ap     2.496018
      19App    2.679587    40Ap     2.744219    41Ap     2.781476
      20App    2.840176    21App    2.893244    42Ap     2.972580
      43Ap     3.031675    22App    3.059209    23App    3.104906
      44Ap     3.115187    45Ap     3.183005    24App    3.314503
      46Ap     3.370812    25App    3.395768    26App    3.440164
      27App    3.465973    47Ap     3.486652    48Ap     3.567280
      49Ap     3.739984    50Ap     3.762476    51Ap     3.940197
      28App    3.980620    52Ap     4.055413    53Ap     4.106831
      29App    4.115039    54Ap     4.185977    30App    4.382727
      55Ap     4.432059    31App    4.442623    56Ap     4.530026
      57Ap     4.913966    58Ap     5.036644    32App    5.042222
      33App    5.189770    59Ap     5.198257    60Ap     5.474223
      34App    5.482487    61Ap     5.826442    35App    5.930856
      62Ap     6.104764    63Ap     6.770718    36App    6.772872
      37App    7.070907    64Ap     7.135157    65Ap     7.530182

    Beta Occupied:

       1Ap   -19.178827     2Ap   -10.261469     3Ap   -10.207845
       4Ap    -1.065587     5Ap    -0.749652     6Ap    -0.524167
       1App   -0.451335     7Ap    -0.446308     8Ap    -0.438980
       2App   -0.382160     9Ap    -0.347713

    Beta Virtual:

      10Ap    -0.052806     3App   -0.002643    11Ap     0.093878
      12Ap     0.141757     4App    0.143678    13Ap     0.228906
      14Ap     0.274067     5App    0.433676    15Ap     0.435152
      16Ap     0.465966     6App    0.499893    17Ap     0.527226
      18Ap     0.538318     7App    0.568305    19Ap     0.579903
       8App    0.622697    20Ap     0.627094    21Ap     0.649319
      22Ap     0.739301     9App    0.776939    23Ap     0.795283
      10App    0.831678    11App    0.921919    24Ap     0.943018
      25Ap     0.950725    12App    1.026917    26Ap     1.091221
      27Ap     1.109389    13App    1.158951    28Ap     1.229984
      29Ap     1.312383    14App    1.318449    30Ap     1.334396
      15App    1.410480    31Ap     1.412388    32Ap     1.479155
      33Ap     1.570985    34Ap     1.642490    16App    1.668121
      35Ap     1.721968    17App    1.814428    36Ap     1.847963
      37Ap     1.906770    18App    2.070857    38Ap     2.187225
      39Ap     2.508681    19App    2.693832    40Ap     2.758637
      41Ap     2.802537    20App    2.855458    21App    2.894897
      42Ap     2.982198    43Ap     3.048386    22App    3.067832
      44Ap     3.123565    23App    3.123681    45Ap     3.217742
      24App    3.358136    46Ap     3.382265    25App    3.401973
      26App    3.448181    27App    3.481871    47Ap     3.509277
      48Ap     3.580850    49Ap     3.765615    50Ap     3.771771
      51Ap     3.949000    28App    3.989876    52Ap     4.071785
      29App    4.117886    53Ap     4.121176    54Ap     4.198020
      30App    4.384896    55Ap     4.438309    31App    4.446912
      56Ap     4.541018    57Ap     4.917795    58Ap     5.054135
      32App    5.060265    33App    5.191888    59Ap     5.204100
      60Ap     5.486873    34App    5.496439    61Ap     5.839697
      35App    5.936448    62Ap     6.127992    63Ap     6.800049
      36App    6.802546    37App    7.075213    64Ap     7.164570
      65Ap     7.541857

    Final Occupation by Irrep:
             Ap   App
    DOCC [     9,    2 ]
    SOCC [     1,    0 ]

  @DF-UKS Final Energy:  -153.18846190488028

   => Energetics <=

    Nuclear Repulsion Energy =             62.7815605957561829
    One-Electron Energy =                -331.5660738888348078
    Two-Electron Energy =                 132.1742488938858173
    DFT Exchange-Correlation Energy =     -16.5781975056874700
    Empirical Dispersion Energy =           0.0000000000000000
    VV10 Nonlocal Energy =                  0.0000000000000000
    Total Energy =                       -153.1884619048802847

  UHF NO Occupations:
  HONO-2 :    8 Ap 1.9997851
  HONO-1 :    9 Ap 1.9992003
  HONO-0 :   10 Ap 1.0000000
  LUNO+0 :   11 Ap 0.0007997
  LUNO+1 :   12 Ap 0.0002149
  LUNO+2 :    3App 0.0001794
  LUNO+3 :   13 Ap 0.0000616

Computation Completed

Properties will be evaluated at   0.000000,   0.000000,   0.000000 [a0]

Properties computed using the SCF density matrix

  Nuclear Dipole Moment: [e a0]
     X:     4.5436      Y:    -0.6831      Z:     0.0000

  Electronic Dipole Moment: [e a0]
     X:    -3.6132      Y:     0.6334      Z:     0.0000

  Dipole Moment: [e a0]
     X:     0.9304      Y:    -0.0497      Z:     0.0000     Total:     0.9317

  Dipole Moment: [D]
     X:     2.3647      Y:    -0.1263      Z:     0.0000     Total:     2.3681

*** tstop() called on n074 at Tue Mar 15 10:27:02 2022
Module time:
	user time   =      44.17 seconds =       0.74 minutes
	system time =       0.49 seconds =       0.01 minutes
	total time  =         45 seconds =       0.75 minutes
Total time:
	user time   =      44.17 seconds =       0.74 minutes
	system time =       0.49 seconds =       0.01 minutes
	total time  =         45 seconds =       0.75 minutes
Grab this energy -153.18846190488028
    Psi4 stopped on: Tuesday, 15 March 2022 10:27AM
    Psi4 wall time for execution: 0:00:44.69

*** Psi4 exiting successfully. Buy a developer a beer!
