                               Psi4 1.4a2.dev629

  ==> Input File <==

--------------------------------------------------------------------------
import os
memory 14 GB

molecule {
 C   -0.2584223484    0.8045456948    0.0000000000
 O   -2.1912425691   -0.3328791693   -0.0000000000
 C    2.4070704107   -0.2452497445    0.0000000000
 H    2.3837133995   -2.3090026763   -0.0000000000
 H    3.3917595447    0.4684757716   -1.6640033333
 H    3.3917595447    0.4684757716    1.6640033333
units bohr
0 2
}

basis {

assign 6-31g_2dfp_

[ 6-31g_2dfp_ ]

spherical

!----------------------------------------------------------------------
! Basis Set Exchange
! Version v0.8.13
! https://www.basissetexchange.org
!----------------------------------------------------------------------
!   Basis set: 6-31G(2df,p)
! Description: 6-31G(2df,p)
!        Role: orbital
!     Version: 0  (Data from the original Basis Set Exchange)
!----------------------------------------------------------------------

****
H     0
S    3   1.00
     18.7311370              0.03349460
      2.8253937              0.23472695
      0.6401217              0.81375733
S    1   1.00
      0.1612778              1.00000000
P    1   1.00
      1.5000000              1.0000000
P    1   1.00
      0.3750000              1.0000000
****
B     0
S    6   1.00
   2068.8823000              0.0018663
    310.6495700              0.0142515
     70.6830330              0.0695516
     19.8610800              0.2325729
      6.2993048              0.4670787
      2.1270270              0.3634314
SP   3   1.00
      4.7279710             -0.1303938              0.0745976
      1.1903377             -0.1307889              0.3078467
      0.3594117              1.1309444              0.7434568
SP   1   1.00
      0.1267512              1.0000000              1.0000000
D    1   1.00
      0.8020000              1.0000000
D    1   1.00
      0.2005000              1.0000000
F    1   1.00
      0.5000000              1.0000000
****
C     0
S    6   1.00
   3047.5249000              0.0018347
    457.3695100              0.0140373
    103.9486900              0.0688426
     29.2101550              0.2321844
      9.2866630              0.4679413
      3.1639270              0.3623120
SP   3   1.00
      7.8682724             -0.1193324              0.0689991
      1.8812885             -0.1608542              0.3164240
      0.5442493              1.1434564              0.7443083
SP   1   1.00
      0.1687144              1.0000000              1.0000000
D    1   1.00
      1.2520000              1.0000000
D    1   1.00
      0.3130000              1.0000000
F    1   1.00
      0.8000000              1.0000000
****
N     0
S    6   1.00
   4173.5110000              0.0018348
    627.4579000              0.0139950
    142.9021000              0.0685870
     40.2343300              0.2322410
     12.8202100              0.4690700
      4.3904370              0.3604550
SP   3   1.00
     11.6263580             -0.1149610              0.0675800
      2.7162800             -0.1691180              0.3239070
      0.7722180              1.1458520              0.7408950
SP   1   1.00
      0.2120313              1.0000000              1.0000000
D    1   1.00
      1.8260000              1.0000000
D    1   1.00
      0.4565000              1.0000000
F    1   1.00
      1.0000000              1.0000000
****
O     0
S    6   1.00
   5484.6717000              0.0018311
    825.2349500              0.0139501
    188.0469600              0.0684451
     52.9645000              0.2327143
     16.8975700              0.4701930
      5.7996353              0.3585209
SP   3   1.00
     15.5396160             -0.1107775              0.0708743
      3.5999336             -0.1480263              0.3397528
      1.0137618              1.1307670              0.7271586
SP   1   1.00
      0.2700058              1.0000000              1.0000000
D    1   1.00
      2.5840000              1.0000000
D    1   1.00
      0.6460000              1.0000000
F    1   1.00
      1.4000000              1.0000000
****
F     0
S    6   1.00
   7001.7130900              0.0018196169
   1051.3660900              0.0139160796
    239.2856900              0.0684053245
     67.3974453              0.233185760
     21.5199573              0.471267439
      7.40310130             0.356618546
SP   3   1.00
     20.8479528             -0.108506975            0.0716287243
      4.80830834            -0.146451658            0.3459121030
      1.34406986             1.128688580            0.7224699570
SP   1   1.00
      0.358151393            1.0000000              1.0000000
D    1   1.00
      3.5000000              1.0000000
D    1   1.00
      0.8750000              1.0000000
F    1   1.00
      1.8500000              1.0000000
****
Al     0
S    6   1.00
  13983.1000000              0.00194267
   2098.7500000              0.0148599
    477.7050000              0.0728494
    134.3600000              0.2468300
     42.8709000              0.4872580
     14.5189000              0.3234960
SP   6   1.00
    239.6680000             -0.00292619             0.00460285
     57.4419000             -0.0374080              0.0331990
     18.2859000             -0.1144870              0.1362820
      6.5991400              0.1156350              0.3304760
      2.4904900              0.6125950              0.4491460
      0.9445400              0.3937990              0.2657040
SP   3   1.00
      1.2779000             -0.2276060             -0.0175130
      0.3975900              0.00144583             0.2445330
      0.1600950              1.0927900              0.8049340
SP   1   1.00
      0.0556577              1.0000000              1.0000000
D    1   1.00
      0.6500000              1.0000000
D    1   1.00
      0.1625000              1.0000000
F    1   1.00
      0.2500000              1.0000000
****
Si     0
S    6   1.00
  16115.9000000              0.00195948
   2425.5800000              0.01492880
    553.8670000              0.07284780
    156.3400000              0.24613000
     50.0683000              0.48591400
     17.0178000              0.32500200
SP   6   1.00
    292.7180000             -0.00278094             0.00443826
     69.8731000             -0.03571460             0.03266790
     22.3363000             -0.11498500             0.13472100
      8.1503900              0.09356340             0.32867800
      3.1345800              0.60301700             0.44964000
      1.2254300              0.41895900             0.26137200
SP   3   1.00
      1.7273800             -0.24463000            -0.01779510
      0.5729220              0.00431572             0.25353900
      0.2221920              1.09818000             0.80066900
SP   1   1.00
      0.0778369              1.00000000             1.00000000
D    1   1.00
      0.9000000              1.0000000
D    1   1.00
      0.2250000              1.0000000
F    1   1.00
      0.3200000              1.0000000
****
P     0
S    6   1.00
  19413.3000000              0.0018516
   2909.4200000              0.0142062
    661.3640000              0.0699995
    185.7590000              0.2400790
     59.1943000              0.4847620
     20.0310000              0.3352000
SP   6   1.00
    339.4780000             -0.00278217             0.00456462
     81.0101000             -0.0360499              0.03369360
     25.8780000             -0.1166310              0.13975500
      9.4522100              0.0968328              0.33936200
      3.6656600              0.6144180              0.45092100
      1.4674600              0.4037980              0.23858600
SP   3   1.00
      2.1562300             -0.2529230             -0.01776530
      0.7489970              0.0328517              0.27405800
      0.2831450              1.0812500              0.78542100
SP   1   1.00
      0.0998317              1.0000000              1.00000000
D    1   1.00
      1.1000000              1.0000000
D    1   1.00
      0.2750000              1.0000000
F    1   1.00
      0.4500000              1.0000000
****
S     0
S    6   1.00
  21917.1000000              0.0018690
   3301.4900000              0.0142300
    754.1460000              0.0696960
    212.7110000              0.2384870
     67.9896000              0.4833070
     23.0515000              0.3380740
SP   6   1.00
    423.7350000             -0.0023767              0.0040610
    100.7100000             -0.0316930              0.0306810
     32.1599000             -0.1133170              0.1304520
     11.8079000              0.0560900              0.3272050
      4.6311000              0.5922550              0.4528510
      1.8702500              0.4550060              0.2560420
SP   3   1.00
      2.6158400             -0.2503740             -0.0145110
      0.9221670              0.0669570              0.3102630
      0.3412870              1.0545100              0.7544830
SP   1   1.00
      0.1171670              1.0000000              1.0000000
D    1   1.00
      1.3000000              1.0000000
D    1   1.00
      0.3250000              1.0000000
F    1   1.00
      0.5500000              1.0000000
****
Cl     0
S    6   1.00
  25180.1000000              0.0018330
   3780.3500000              0.0140340
    860.4740000              0.0690970
    242.1450000              0.2374520
     77.3349000              0.4830340
     26.2470000              0.3398560
SP   6   1.00
    491.7650000             -0.0022974              0.0039894
    116.9840000             -0.0307140              0.0303180
     37.4153000             -0.1125280              0.1298800
     13.7834000              0.0450160              0.3279510
      5.4521500              0.5893530              0.4535270
      2.2258800              0.4652060              0.2521540
SP   3   1.00
      3.1864900             -0.2518300             -0.0142990
      1.1442700              0.0615890              0.3235720
      0.4203770              1.0601800              0.7435070
SP   1   1.00
      0.1426570              1.0000000              1.0000000
D    1   1.00
      1.5000000              1.0000000
D    1   1.00
      0.3750000              1.0000000
F    1   1.00
      0.7000000              1.0000000
****
}

set {
reference uhf
freeze_core true
e_convergence 10
d_convergence 10
dft_spherical_points 1202
dft_radial_points 99
}

e = energy('b3lyp')

print_out('Grab this energy {0}'.format(e))
--------------------------------------------------------------------------

    Molecular point group: cs

    Geometry (in Bohr), charge = 0, multiplicity = 2:

       Center              X                  Y                   Z               Mass
    ------------   -----------------  -----------------  -----------------  -----------------
         C           -0.257818079446     0.804443644616     0.000000000000    12.000000000000
         O           -2.190638300146    -0.332981219484     0.000000000000    15.994914619570
         C            2.407674679654    -0.245351794684     0.000000000000    12.000000000000
         H            2.384317668454    -2.309104726484     0.000000000000     1.007825032230
         H            3.392363813654     0.468373721416    -1.664003333300     1.007825032230
         H            3.392363813654     0.468373721416     1.664003333300     1.007825032230

  Charge       = 0
  Multiplicity = 2
  Basis Set: ANONYMOUS90DFEB4A
    Blend: 6-31G_2DFP_
  Basis Set: (ANONYMOUS90DFEB4A AUX)
    Blend: DEF2-UNIVERSAL-JKFIT

    Orbital Energies [Eh]
    ---------------------

    Alpha Occupied:

       1Ap   -19.186854     2Ap   -10.271536     3Ap   -10.210449
       4Ap    -1.081217     5Ap    -0.762133     6Ap    -0.544075
       7Ap    -0.466584     8Ap    -0.457567     1App   -0.456188
       2App   -0.387320     9Ap    -0.385940    10Ap    -0.192156

    Alpha Virtual:

       3App   -0.018950    11Ap     0.091654    12Ap     0.136811
       4App    0.141124    13Ap     0.218456    14Ap     0.268278
      15Ap     0.428158     5App    0.431776    16Ap     0.443822
       6App    0.493549    17Ap     0.506144    18Ap     0.530110
       7App    0.562558    19Ap     0.577320    20Ap     0.608558
       8App    0.615899    21Ap     0.644194    22Ap     0.717629
       9App    0.766052    23Ap     0.785292    10App    0.832354
      11App    0.917304    24Ap     0.927068    25Ap     0.935703
      12App    1.023160    26Ap     1.085428    27Ap     1.108411
      13App    1.153309    28Ap     1.221717    29Ap     1.306944
      14App    1.317062    30Ap     1.328028    31Ap     1.403006
      15App    1.406439    32Ap     1.467902    33Ap     1.560140
      34Ap     1.630550    16App    1.653780    35Ap     1.719249
      17App    1.813189    36Ap     1.834769    37Ap     1.902314
      18App    2.065140    38Ap     2.166454    39Ap     2.495425
      19App    2.680195    40Ap     2.744540    41Ap     2.783682
      20App    2.841906    21App    2.894399    42Ap     2.973658
      43Ap     3.031081    22App    3.058345    23App    3.104968
      44Ap     3.115819    45Ap     3.182352    24App    3.314721
      46Ap     3.368912    25App    3.393329    26App    3.440217
      27App    3.465969    47Ap     3.486083    48Ap     3.569074
      49Ap     3.739617    50Ap     3.763766    51Ap     3.944096
      28App    3.982395    52Ap     4.056275    53Ap     4.110452
      29App    4.120422    54Ap     4.190138    30App    4.386843
      55Ap     4.433995    31App    4.447977    56Ap     4.534690
      57Ap     4.916648    58Ap     5.036991    32App    5.042305
      33App    5.197457    59Ap     5.207340    60Ap     5.473685
      34App    5.482729    61Ap     5.826845    35App    5.930386
      62Ap     6.104693    63Ap     6.770743    36App    6.772894
      37App    7.071282    64Ap     7.135147    65Ap     7.529970

    Beta Occupied:

       1Ap   -19.178780     2Ap   -10.261469     3Ap   -10.207083
       4Ap    -1.065273     5Ap    -0.750342     6Ap    -0.524383
       1App   -0.451634     7Ap    -0.446871     8Ap    -0.439052
       2App   -0.382157     9Ap    -0.347752

    Beta Virtual:

      10Ap    -0.052628     3App   -0.002681    11Ap     0.094348
      12Ap     0.142556     4App    0.144261    13Ap     0.228803
      14Ap     0.273960     5App    0.433749    15Ap     0.435196
      16Ap     0.466059     6App    0.500245    17Ap     0.527455
      18Ap     0.538997     7App    0.568888    19Ap     0.581519
       8App    0.623123    20Ap     0.627201    21Ap     0.649909
      22Ap     0.739603     9App    0.777188    23Ap     0.795279
      10App    0.833139    11App    0.922150    24Ap     0.943431
      25Ap     0.951036    12App    1.027348    26Ap     1.091506
      27Ap     1.110494    13App    1.159512    28Ap     1.230956
      29Ap     1.312550    14App    1.319907    30Ap     1.334815
      15App    1.411924    31Ap     1.413424    32Ap     1.480254
      33Ap     1.571284    34Ap     1.643798    16App    1.668172
      35Ap     1.725490    17App    1.816357    36Ap     1.848937
      37Ap     1.908997    18App    2.071855    38Ap     2.187889
      39Ap     2.508099    19App    2.694445    40Ap     2.759009
      41Ap     2.804778    20App    2.857279    21App    2.896050
      42Ap     2.983187    43Ap     3.047752    22App    3.066887
      23App    3.123719    44Ap     3.124228    45Ap     3.217068
      24App    3.358406    46Ap     3.380344    25App    3.399480
      26App    3.448251    27App    3.481888    47Ap     3.509007
      48Ap     3.582472    49Ap     3.765376    50Ap     3.773138
      51Ap     3.952778    28App    3.991665    52Ap     4.072650
      29App    4.123247    53Ap     4.125202    54Ap     4.201746
      30App    4.389028    55Ap     4.440209    31App    4.452254
      56Ap     4.545625    57Ap     4.920489    58Ap     5.054521
      32App    5.060333    33App    5.199630    59Ap     5.213094
      60Ap     5.486336    34App    5.496625    61Ap     5.840100
      35App    5.935978    62Ap     6.127916    63Ap     6.800057
      36App    6.802550    37App    7.075588    64Ap     7.164555
      65Ap     7.541645

    Final Occupation by Irrep:
             Ap   App
    DOCC [     9,    2 ]
    SOCC [     1,    0 ]

  @DF-UKS Final Energy:  -153.18845064461510

   => Energetics <=

    Nuclear Repulsion Energy =             62.8023313759736013
    One-Electron Energy =                -331.6046337555446826
    Two-Electron Energy =                 132.1942985308897391
    DFT Exchange-Correlation Energy =     -16.5804467959337778
    Empirical Dispersion Energy =           0.0000000000000000
    VV10 Nonlocal Energy =                  0.0000000000000000
    Total Energy =                       -153.1884506446151022

  UHF NO Occupations:
  HONO-2 :    8 Ap 1.9997863
  HONO-1 :    9 Ap 1.9992003
  HONO-0 :   10 Ap 1.0000000
  LUNO+0 :   11 Ap 0.0007997
  LUNO+1 :   12 Ap 0.0002137
  LUNO+2 :    3App 0.0001800
  LUNO+3 :   13 Ap 0.0000616

Computation Completed

Properties will be evaluated at   0.000000,   0.000000,   0.000000 [a0]

Properties computed using the SCF density matrix

  Nuclear Dipole Moment: [e a0]
     X:     4.5431      Y:    -0.6817      Z:     0.0000

  Electronic Dipole Moment: [e a0]
     X:    -3.6106      Y:     0.6314      Z:     0.0000

  Dipole Moment: [e a0]
     X:     0.9325      Y:    -0.0503      Z:     0.0000     Total:     0.9338

  Dipole Moment: [D]
     X:     2.3701      Y:    -0.1278      Z:     0.0000     Total:     2.3735

*** tstop() called on n039 at Tue Mar 15 10:26:21 2022
Module time:
	user time   =      62.57 seconds =       1.04 minutes
	system time =       0.40 seconds =       0.01 minutes
	total time  =         63 seconds =       1.05 minutes
Total time:
	user time   =      62.57 seconds =       1.04 minutes
	system time =       0.40 seconds =       0.01 minutes
	total time  =         63 seconds =       1.05 minutes
Grab this energy -153.1884506446151
    Psi4 stopped on: Tuesday, 15 March 2022 10:26AM
    Psi4 wall time for execution: 0:01:03.02

*** Psi4 exiting successfully. Buy a developer a beer!
