                               Psi4 1.4a2.dev629

  ==> Input File <==

--------------------------------------------------------------------------
import os
memory 14 GB

molecule {
 C   -0.2537450438    0.7967137794    0.0000000004
 O   -2.1859914167   -0.3309328671    0.0000000103
 C    2.4080155576   -0.2419353099    0.0000000101
 H    2.3876691340   -2.3069586756    0.0000000299
 H    3.3853246858    0.4766237615   -1.6634611651
 H    3.3853250330    0.4766239317    1.6634609343
units bohr
0 2
}

basis {

assign 6-31g_2dfp_

[ 6-31g_2dfp_ ]

spherical

!----------------------------------------------------------------------
! Basis Set Exchange
! Version v0.8.13
! https://www.basissetexchange.org
!----------------------------------------------------------------------
!   Basis set: 6-31G(2df,p)
! Description: 6-31G(2df,p)
!        Role: orbital
!     Version: 0  (Data from the original Basis Set Exchange)
!----------------------------------------------------------------------

****
H     0
S    3   1.00
     18.7311370              0.03349460
      2.8253937              0.23472695
      0.6401217              0.81375733
S    1   1.00
      0.1612778              1.00000000
P    1   1.00
      1.5000000              1.0000000
P    1   1.00
      0.3750000              1.0000000
****
B     0
S    6   1.00
   2068.8823000              0.0018663
    310.6495700              0.0142515
     70.6830330              0.0695516
     19.8610800              0.2325729
      6.2993048              0.4670787
      2.1270270              0.3634314
SP   3   1.00
      4.7279710             -0.1303938              0.0745976
      1.1903377             -0.1307889              0.3078467
      0.3594117              1.1309444              0.7434568
SP   1   1.00
      0.1267512              1.0000000              1.0000000
D    1   1.00
      0.8020000              1.0000000
D    1   1.00
      0.2005000              1.0000000
F    1   1.00
      0.5000000              1.0000000
****
C     0
S    6   1.00
   3047.5249000              0.0018347
    457.3695100              0.0140373
    103.9486900              0.0688426
     29.2101550              0.2321844
      9.2866630              0.4679413
      3.1639270              0.3623120
SP   3   1.00
      7.8682724             -0.1193324              0.0689991
      1.8812885             -0.1608542              0.3164240
      0.5442493              1.1434564              0.7443083
SP   1   1.00
      0.1687144              1.0000000              1.0000000
D    1   1.00
      1.2520000              1.0000000
D    1   1.00
      0.3130000              1.0000000
F    1   1.00
      0.8000000              1.0000000
****
N     0
S    6   1.00
   4173.5110000              0.0018348
    627.4579000              0.0139950
    142.9021000              0.0685870
     40.2343300              0.2322410
     12.8202100              0.4690700
      4.3904370              0.3604550
SP   3   1.00
     11.6263580             -0.1149610              0.0675800
      2.7162800             -0.1691180              0.3239070
      0.7722180              1.1458520              0.7408950
SP   1   1.00
      0.2120313              1.0000000              1.0000000
D    1   1.00
      1.8260000              1.0000000
D    1   1.00
      0.4565000              1.0000000
F    1   1.00
      1.0000000              1.0000000
****
O     0
S    6   1.00
   5484.6717000              0.0018311
    825.2349500              0.0139501
    188.0469600              0.0684451
     52.9645000              0.2327143
     16.8975700              0.4701930
      5.7996353              0.3585209
SP   3   1.00
     15.5396160             -0.1107775              0.0708743
      3.5999336             -0.1480263              0.3397528
      1.0137618              1.1307670              0.7271586
SP   1   1.00
      0.2700058              1.0000000              1.0000000
D    1   1.00
      2.5840000              1.0000000
D    1   1.00
      0.6460000              1.0000000
F    1   1.00
      1.4000000              1.0000000
****
F     0
S    6   1.00
   7001.7130900              0.0018196169
   1051.3660900              0.0139160796
    239.2856900              0.0684053245
     67.3974453              0.233185760
     21.5199573              0.471267439
      7.40310130             0.356618546
SP   3   1.00
     20.8479528             -0.108506975            0.0716287243
      4.80830834            -0.146451658            0.3459121030
      1.34406986             1.128688580            0.7224699570
SP   1   1.00
      0.358151393            1.0000000              1.0000000
D    1   1.00
      3.5000000              1.0000000
D    1   1.00
      0.8750000              1.0000000
F    1   1.00
      1.8500000              1.0000000
****
Al     0
S    6   1.00
  13983.1000000              0.00194267
   2098.7500000              0.0148599
    477.7050000              0.0728494
    134.3600000              0.2468300
     42.8709000              0.4872580
     14.5189000              0.3234960
SP   6   1.00
    239.6680000             -0.00292619             0.00460285
     57.4419000             -0.0374080              0.0331990
     18.2859000             -0.1144870              0.1362820
      6.5991400              0.1156350              0.3304760
      2.4904900              0.6125950              0.4491460
      0.9445400              0.3937990              0.2657040
SP   3   1.00
      1.2779000             -0.2276060             -0.0175130
      0.3975900              0.00144583             0.2445330
      0.1600950              1.0927900              0.8049340
SP   1   1.00
      0.0556577              1.0000000              1.0000000
D    1   1.00
      0.6500000              1.0000000
D    1   1.00
      0.1625000              1.0000000
F    1   1.00
      0.2500000              1.0000000
****
Si     0
S    6   1.00
  16115.9000000              0.00195948
   2425.5800000              0.01492880
    553.8670000              0.07284780
    156.3400000              0.24613000
     50.0683000              0.48591400
     17.0178000              0.32500200
SP   6   1.00
    292.7180000             -0.00278094             0.00443826
     69.8731000             -0.03571460             0.03266790
     22.3363000             -0.11498500             0.13472100
      8.1503900              0.09356340             0.32867800
      3.1345800              0.60301700             0.44964000
      1.2254300              0.41895900             0.26137200
SP   3   1.00
      1.7273800             -0.24463000            -0.01779510
      0.5729220              0.00431572             0.25353900
      0.2221920              1.09818000             0.80066900
SP   1   1.00
      0.0778369              1.00000000             1.00000000
D    1   1.00
      0.9000000              1.0000000
D    1   1.00
      0.2250000              1.0000000
F    1   1.00
      0.3200000              1.0000000
****
P     0
S    6   1.00
  19413.3000000              0.0018516
   2909.4200000              0.0142062
    661.3640000              0.0699995
    185.7590000              0.2400790
     59.1943000              0.4847620
     20.0310000              0.3352000
SP   6   1.00
    339.4780000             -0.00278217             0.00456462
     81.0101000             -0.0360499              0.03369360
     25.8780000             -0.1166310              0.13975500
      9.4522100              0.0968328              0.33936200
      3.6656600              0.6144180              0.45092100
      1.4674600              0.4037980              0.23858600
SP   3   1.00
      2.1562300             -0.2529230             -0.01776530
      0.7489970              0.0328517              0.27405800
      0.2831450              1.0812500              0.78542100
SP   1   1.00
      0.0998317              1.0000000              1.00000000
D    1   1.00
      1.1000000              1.0000000
D    1   1.00
      0.2750000              1.0000000
F    1   1.00
      0.4500000              1.0000000
****
S     0
S    6   1.00
  21917.1000000              0.0018690
   3301.4900000              0.0142300
    754.1460000              0.0696960
    212.7110000              0.2384870
     67.9896000              0.4833070
     23.0515000              0.3380740
SP   6   1.00
    423.7350000             -0.0023767              0.0040610
    100.7100000             -0.0316930              0.0306810
     32.1599000             -0.1133170              0.1304520
     11.8079000              0.0560900              0.3272050
      4.6311000              0.5922550              0.4528510
      1.8702500              0.4550060              0.2560420
SP   3   1.00
      2.6158400             -0.2503740             -0.0145110
      0.9221670              0.0669570              0.3102630
      0.3412870              1.0545100              0.7544830
SP   1   1.00
      0.1171670              1.0000000              1.0000000
D    1   1.00
      1.3000000              1.0000000
D    1   1.00
      0.3250000              1.0000000
F    1   1.00
      0.5500000              1.0000000
****
Cl     0
S    6   1.00
  25180.1000000              0.0018330
   3780.3500000              0.0140340
    860.4740000              0.0690970
    242.1450000              0.2374520
     77.3349000              0.4830340
     26.2470000              0.3398560
SP   6   1.00
    491.7650000             -0.0022974              0.0039894
    116.9840000             -0.0307140              0.0303180
     37.4153000             -0.1125280              0.1298800
     13.7834000              0.0450160              0.3279510
      5.4521500              0.5893530              0.4535270
      2.2258800              0.4652060              0.2521540
SP   3   1.00
      3.1864900             -0.2518300             -0.0142990
      1.1442700              0.0615890              0.3235720
      0.4203770              1.0601800              0.7435070
SP   1   1.00
      0.1426570              1.0000000              1.0000000
D    1   1.00
      1.5000000              1.0000000
D    1   1.00
      0.3750000              1.0000000
F    1   1.00
      0.7000000              1.0000000
****
}

set {
reference uhf
freeze_core true
e_convergence 10
d_convergence 10
dft_spherical_points 1202
dft_radial_points 99
}

e = energy('b3lyp')

print_out('Grab this energy {0}'.format(e))
--------------------------------------------------------------------------

    Molecular point group: c1

    Geometry (in Bohr), charge = 0, multiplicity = 2:

       Center              X                  Y                   Z               Mass
    ------------   -----------------  -----------------  -----------------  -----------------
         C           -0.256452794837     0.796718547931    -0.000000001652    12.000000000000
         O           -2.188699167737    -0.330928098569     0.000000008248    15.994914619570
         C            2.405307806563    -0.241930541369     0.000000008048    12.000000000000
         H            2.384961382963    -2.306953907069     0.000000027848     1.007825032230
         H            3.382616934763     0.476628530031    -1.663461167152     1.007825032230
         H            3.382617281963     0.476628700231     1.663460932248     1.007825032230

  Charge       = 0
  Multiplicity = 2
  Basis Set: ANONYMOUS4700ABE7
    Blend: 6-31G_2DFP_
  Basis Set: (ANONYMOUS4700ABE7 AUX)
    Blend: DEF2-UNIVERSAL-JKFIT

    Orbital Energies [Eh]
    ---------------------

    Alpha Occupied:

       1A    -19.186446     2A    -10.270496     3A    -10.209992
       4A     -1.082476     5A     -0.763014     6A     -0.543646
       7A     -0.467274     8A     -0.457900     9A     -0.457083
      10A     -0.387787    11A     -0.386261    12A     -0.190680

    Alpha Virtual:

      13A     -0.017812    14A      0.091719    15A      0.136754
      16A      0.141374    17A      0.219778    18A      0.268606
      19A      0.428181    20A      0.431218    21A      0.444707
      22A      0.494011    23A      0.506092    24A      0.530325
      25A      0.563058    26A      0.577659    27A      0.611330
      28A      0.616760    29A      0.644868    30A      0.717989
      31A      0.765762    32A      0.785904    33A      0.832072
      34A      0.917366    35A      0.926804    36A      0.935538
      37A      1.025925    38A      1.087218    39A      1.107425
      40A      1.153613    41A      1.224800    42A      1.308144
      43A      1.316868    44A      1.328281    45A      1.403248
      46A      1.409456    47A      1.470324    48A      1.560539
      49A      1.634153    50A      1.655336    51A      1.721261
      52A      1.814526    53A      1.836801    54A      1.902094
      55A      2.068499    56A      2.171571    57A      2.499369
      58A      2.681764    59A      2.746369    60A      2.784878
      61A      2.842346    62A      2.893980    63A      2.976604
      64A      3.029484    65A      3.058785    66A      3.102804
      67A      3.118608    68A      3.180274    69A      3.314291
      70A      3.369934    71A      3.392236    72A      3.443527
      73A      3.467075    74A      3.486002    75A      3.569814
      76A      3.745361    77A      3.769680    78A      3.945030
      79A      3.989409    80A      4.063454    81A      4.113953
      82A      4.119192    83A      4.189865    84A      4.390739
      85A      4.440765    86A      4.451537    87A      4.537390
      88A      4.920628    89A      5.037555    90A      5.042933
      91A      5.199921    92A      5.207526    93A      5.478941
      94A      5.488821    95A      5.827509    96A      5.936454
      97A      6.111460    98A      6.771576    99A      6.773808
     100A      7.072194   101A      7.135529   102A      7.532698

    Beta Occupied:

       1A    -19.178392     2A    -10.260424     3A    -10.206655
       4A     -1.066592     5A     -0.751223     6A     -0.524054
       7A     -0.452514     8A     -0.447269     9A     -0.439619
      10A     -0.382647    11A     -0.348236

    Beta Virtual:

      12A     -0.051104    13A     -0.001563    14A      0.094433
      15A      0.142554    16A      0.144504    17A      0.229941
      18A      0.274225    19A      0.433204    20A      0.434958
      21A      0.467193    22A      0.500742    23A      0.527363
      24A      0.539344    25A      0.569327    26A      0.581875
      27A      0.624031    28A      0.629506    29A      0.650989
      30A      0.740282    31A      0.776872    32A      0.795808
      33A      0.832884    34A      0.922228    35A      0.942972
      36A      0.950983    37A      1.030162    38A      1.093424
      39A      1.109422    40A      1.159773    41A      1.234044
      42A      1.313747    43A      1.319667    44A      1.335041
      45A      1.413588    46A      1.414946    47A      1.482650
      48A      1.571492    49A      1.647587    50A      1.669722
      51A      1.727615    52A      1.817722    53A      1.850985
      54A      1.908840    55A      2.075221    56A      2.193023
      57A      2.512043    58A      2.696061    59A      2.760866
      60A      2.805916    61A      2.857719    62A      2.895649
      63A      2.986105    64A      3.046451    65A      3.067466
      66A      3.121517    67A      3.126922    68A      3.214931
      69A      3.357801    70A      3.381191    71A      3.398471
      72A      3.451413    73A      3.482953    74A      3.509475
      75A      3.582907    76A      3.770904    77A      3.779241
      78A      3.953690    79A      3.998680    80A      4.079642
      81A      4.122049    82A      4.127979    83A      4.202027
      84A      4.392973    85A      4.447006    86A      4.455757
      87A      4.548380    88A      4.924533    89A      5.055015
      90A      5.060903    91A      5.202095    92A      5.213329
      93A      5.491531    94A      5.502708    95A      5.840774
      96A      5.942051    97A      6.134637    98A      6.800797
      99A      6.803377   100A      7.076494   101A      7.164863
     102A      7.544340

    Final Occupation by Irrep:
              A
    DOCC [    11 ]
    SOCC [     1 ]

  @DF-UKS Final Energy:  -153.18845415588774

   => Energetics <=

    Nuclear Repulsion Energy =             62.9184634190407337
    One-Electron Energy =                -331.8304265790484351
    Two-Electron Energy =                 132.3077934834651046
    DFT Exchange-Correlation Energy =     -16.5842844793451540
    Empirical Dispersion Energy =           0.0000000000000000
    VV10 Nonlocal Energy =                  0.0000000000000000
    Total Energy =                       -153.1884541558877402

  UHF NO Occupations:
  HONO-2 :   10  A 1.9997902
  HONO-1 :   11  A 1.9992054
  HONO-0 :   12  A 1.0000000
  LUNO+0 :   13  A 0.0007946
  LUNO+1 :   14  A 0.0002098
  LUNO+2 :   15  A 0.0001795
  LUNO+3 :   16  A 0.0000612

Computation Completed

Properties will be evaluated at   0.000000,   0.000000,   0.000000 [a0]

Properties computed using the SCF density matrix

  Nuclear Dipole Moment: [e a0]
     X:     4.5337      Y:    -0.6724      Z:    -0.0000

  Electronic Dipole Moment: [e a0]
     X:    -3.6026      Y:     0.6226      Z:     0.0000

  Dipole Moment: [e a0]
     X:     0.9311      Y:    -0.0498      Z:    -0.0000     Total:     0.9324

  Dipole Moment: [D]
     X:     2.3666      Y:    -0.1265      Z:    -0.0000     Total:     2.3700

*** tstop() called on n023 at Thu Nov  4 14:56:36 2021
Module time:
	user time   =      62.37 seconds =       1.04 minutes
	system time =       0.42 seconds =       0.01 minutes
	total time  =         63 seconds =       1.05 minutes
Total time:
	user time   =      62.37 seconds =       1.04 minutes
	system time =       0.42 seconds =       0.01 minutes
	total time  =         63 seconds =       1.05 minutes
Grab this energy -153.18845415588774
    Psi4 stopped on: Thursday, 04 November 2021 02:56PM
    Psi4 wall time for execution: 0:01:02.83

*** Psi4 exiting successfully. Buy a developer a beer!
