                               Psi4 1.4a2.dev629

  ==> Input File <==

--------------------------------------------------------------------------
import os
memory 14 GB

molecule {
 C   -0.2569482183    0.8025141018   -0.0004721685
 O   -2.1856155439   -0.3325849699    0.0001039041
 C    2.4086824969   -0.2420370830   -0.0015421273
 H    2.3913448200   -2.3067585136   -0.0043276723
 H    3.3824647252    0.4706270266   -1.6608351616
 H    3.3866696700    0.4783740581    1.6670730457
units bohr
0 2
}

basis {

assign 6-31g_2dfp_

[ 6-31g_2dfp_ ]

spherical

!----------------------------------------------------------------------
! Basis Set Exchange
! Version v0.8.13
! https://www.basissetexchange.org
!----------------------------------------------------------------------
!   Basis set: 6-31G(2df,p)
! Description: 6-31G(2df,p)
!        Role: orbital
!     Version: 0  (Data from the original Basis Set Exchange)
!----------------------------------------------------------------------

****
H     0
S    3   1.00
     18.7311370              0.03349460
      2.8253937              0.23472695
      0.6401217              0.81375733
S    1   1.00
      0.1612778              1.00000000
P    1   1.00
      1.5000000              1.0000000
P    1   1.00
      0.3750000              1.0000000
****
B     0
S    6   1.00
   2068.8823000              0.0018663
    310.6495700              0.0142515
     70.6830330              0.0695516
     19.8610800              0.2325729
      6.2993048              0.4670787
      2.1270270              0.3634314
SP   3   1.00
      4.7279710             -0.1303938              0.0745976
      1.1903377             -0.1307889              0.3078467
      0.3594117              1.1309444              0.7434568
SP   1   1.00
      0.1267512              1.0000000              1.0000000
D    1   1.00
      0.8020000              1.0000000
D    1   1.00
      0.2005000              1.0000000
F    1   1.00
      0.5000000              1.0000000
****
C     0
S    6   1.00
   3047.5249000              0.0018347
    457.3695100              0.0140373
    103.9486900              0.0688426
     29.2101550              0.2321844
      9.2866630              0.4679413
      3.1639270              0.3623120
SP   3   1.00
      7.8682724             -0.1193324              0.0689991
      1.8812885             -0.1608542              0.3164240
      0.5442493              1.1434564              0.7443083
SP   1   1.00
      0.1687144              1.0000000              1.0000000
D    1   1.00
      1.2520000              1.0000000
D    1   1.00
      0.3130000              1.0000000
F    1   1.00
      0.8000000              1.0000000
****
N     0
S    6   1.00
   4173.5110000              0.0018348
    627.4579000              0.0139950
    142.9021000              0.0685870
     40.2343300              0.2322410
     12.8202100              0.4690700
      4.3904370              0.3604550
SP   3   1.00
     11.6263580             -0.1149610              0.0675800
      2.7162800             -0.1691180              0.3239070
      0.7722180              1.1458520              0.7408950
SP   1   1.00
      0.2120313              1.0000000              1.0000000
D    1   1.00
      1.8260000              1.0000000
D    1   1.00
      0.4565000              1.0000000
F    1   1.00
      1.0000000              1.0000000
****
O     0
S    6   1.00
   5484.6717000              0.0018311
    825.2349500              0.0139501
    188.0469600              0.0684451
     52.9645000              0.2327143
     16.8975700              0.4701930
      5.7996353              0.3585209
SP   3   1.00
     15.5396160             -0.1107775              0.0708743
      3.5999336             -0.1480263              0.3397528
      1.0137618              1.1307670              0.7271586
SP   1   1.00
      0.2700058              1.0000000              1.0000000
D    1   1.00
      2.5840000              1.0000000
D    1   1.00
      0.6460000              1.0000000
F    1   1.00
      1.4000000              1.0000000
****
F     0
S    6   1.00
   7001.7130900              0.0018196169
   1051.3660900              0.0139160796
    239.2856900              0.0684053245
     67.3974453              0.233185760
     21.5199573              0.471267439
      7.40310130             0.356618546
SP   3   1.00
     20.8479528             -0.108506975            0.0716287243
      4.80830834            -0.146451658            0.3459121030
      1.34406986             1.128688580            0.7224699570
SP   1   1.00
      0.358151393            1.0000000              1.0000000
D    1   1.00
      3.5000000              1.0000000
D    1   1.00
      0.8750000              1.0000000
F    1   1.00
      1.8500000              1.0000000
****
Al     0
S    6   1.00
  13983.1000000              0.00194267
   2098.7500000              0.0148599
    477.7050000              0.0728494
    134.3600000              0.2468300
     42.8709000              0.4872580
     14.5189000              0.3234960
SP   6   1.00
    239.6680000             -0.00292619             0.00460285
     57.4419000             -0.0374080              0.0331990
     18.2859000             -0.1144870              0.1362820
      6.5991400              0.1156350              0.3304760
      2.4904900              0.6125950              0.4491460
      0.9445400              0.3937990              0.2657040
SP   3   1.00
      1.2779000             -0.2276060             -0.0175130
      0.3975900              0.00144583             0.2445330
      0.1600950              1.0927900              0.8049340
SP   1   1.00
      0.0556577              1.0000000              1.0000000
D    1   1.00
      0.6500000              1.0000000
D    1   1.00
      0.1625000              1.0000000
F    1   1.00
      0.2500000              1.0000000
****
Si     0
S    6   1.00
  16115.9000000              0.00195948
   2425.5800000              0.01492880
    553.8670000              0.07284780
    156.3400000              0.24613000
     50.0683000              0.48591400
     17.0178000              0.32500200
SP   6   1.00
    292.7180000             -0.00278094             0.00443826
     69.8731000             -0.03571460             0.03266790
     22.3363000             -0.11498500             0.13472100
      8.1503900              0.09356340             0.32867800
      3.1345800              0.60301700             0.44964000
      1.2254300              0.41895900             0.26137200
SP   3   1.00
      1.7273800             -0.24463000            -0.01779510
      0.5729220              0.00431572             0.25353900
      0.2221920              1.09818000             0.80066900
SP   1   1.00
      0.0778369              1.00000000             1.00000000
D    1   1.00
      0.9000000              1.0000000
D    1   1.00
      0.2250000              1.0000000
F    1   1.00
      0.3200000              1.0000000
****
P     0
S    6   1.00
  19413.3000000              0.0018516
   2909.4200000              0.0142062
    661.3640000              0.0699995
    185.7590000              0.2400790
     59.1943000              0.4847620
     20.0310000              0.3352000
SP   6   1.00
    339.4780000             -0.00278217             0.00456462
     81.0101000             -0.0360499              0.03369360
     25.8780000             -0.1166310              0.13975500
      9.4522100              0.0968328              0.33936200
      3.6656600              0.6144180              0.45092100
      1.4674600              0.4037980              0.23858600
SP   3   1.00
      2.1562300             -0.2529230             -0.01776530
      0.7489970              0.0328517              0.27405800
      0.2831450              1.0812500              0.78542100
SP   1   1.00
      0.0998317              1.0000000              1.00000000
D    1   1.00
      1.1000000              1.0000000
D    1   1.00
      0.2750000              1.0000000
F    1   1.00
      0.4500000              1.0000000
****
S     0
S    6   1.00
  21917.1000000              0.0018690
   3301.4900000              0.0142300
    754.1460000              0.0696960
    212.7110000              0.2384870
     67.9896000              0.4833070
     23.0515000              0.3380740
SP   6   1.00
    423.7350000             -0.0023767              0.0040610
    100.7100000             -0.0316930              0.0306810
     32.1599000             -0.1133170              0.1304520
     11.8079000              0.0560900              0.3272050
      4.6311000              0.5922550              0.4528510
      1.8702500              0.4550060              0.2560420
SP   3   1.00
      2.6158400             -0.2503740             -0.0145110
      0.9221670              0.0669570              0.3102630
      0.3412870              1.0545100              0.7544830
SP   1   1.00
      0.1171670              1.0000000              1.0000000
D    1   1.00
      1.3000000              1.0000000
D    1   1.00
      0.3250000              1.0000000
F    1   1.00
      0.5500000              1.0000000
****
Cl     0
S    6   1.00
  25180.1000000              0.0018330
   3780.3500000              0.0140340
    860.4740000              0.0690970
    242.1450000              0.2374520
     77.3349000              0.4830340
     26.2470000              0.3398560
SP   6   1.00
    491.7650000             -0.0022974              0.0039894
    116.9840000             -0.0307140              0.0303180
     37.4153000             -0.1125280              0.1298800
     13.7834000              0.0450160              0.3279510
      5.4521500              0.5893530              0.4535270
      2.2258800              0.4652060              0.2521540
SP   3   1.00
      3.1864900             -0.2518300             -0.0142990
      1.1442700              0.0615890              0.3235720
      0.4203770              1.0601800              0.7435070
SP   1   1.00
      0.1426570              1.0000000              1.0000000
D    1   1.00
      1.5000000              1.0000000
D    1   1.00
      0.3750000              1.0000000
F    1   1.00
      0.7000000              1.0000000
****
}

set {
reference uhf
freeze_core true
e_convergence 10
d_convergence 10
dft_spherical_points 1202
dft_radial_points 99
}

e = energy('b3lyp')

print_out('Grab this energy {0}'.format(e))
--------------------------------------------------------------------------

    Molecular point group: c1

    Geometry (in Bohr), charge = 0, multiplicity = 2:

       Center              X                  Y                   Z               Mass
    ------------   -----------------  -----------------  -----------------  -----------------
         C           -0.259138853241     0.801638334390     0.000006335072    12.000000000000
         O           -2.187806178841    -0.333460737310     0.000582407672    15.994914619570
         C            2.406491861959    -0.242912850410    -0.001063623728    12.000000000000
         H            2.389154185059    -2.307634281010    -0.003849168728     1.007825032230
         H            3.380274090259     0.469751259190    -1.660356658028     1.007825032230
         H            3.384479035059     0.477498290690     1.667551549272     1.007825032230

  Charge       = 0
  Multiplicity = 2
  Basis Set: ANONYMOUS2AEA2FCA
    Blend: 6-31G_2DFP_
  Basis Set: (ANONYMOUS2AEA2FCA AUX)
    Blend: DEF2-UNIVERSAL-JKFIT

    Orbital Energies [Eh]
    ---------------------

    Alpha Occupied:

       1A    -19.186705     2A    -10.270880     3A    -10.209936
       4A     -1.082512     5A     -0.762419     6A     -0.543777
       7A     -0.466875     8A     -0.457834     9A     -0.456940
      10A     -0.387994    11A     -0.386112    12A     -0.191434

    Alpha Virtual:

      13A     -0.017991    14A      0.091913    15A      0.136869
      16A      0.141573    17A      0.218883    18A      0.268576
      19A      0.428379    20A      0.431461    21A      0.444315
      22A      0.493850    23A      0.506169    24A      0.530317
      25A      0.563301    26A      0.577770    27A      0.610397
      28A      0.616258    29A      0.644711    30A      0.718050
      31A      0.766212    32A      0.785852    33A      0.832482
      34A      0.917180    35A      0.926634    36A      0.935578
      37A      1.025091    38A      1.087865    39A      1.107377
      40A      1.152939    41A      1.223627    42A      1.307219
      43A      1.317564    44A      1.327746    45A      1.403219
      46A      1.408803    47A      1.469229    48A      1.559961
      49A      1.632358    50A      1.654954    51A      1.721248
      52A      1.814801    53A      1.836099    54A      1.902519
      55A      2.067030    56A      2.168447    57A      2.499144
      58A      2.681243    59A      2.745249    60A      2.784485
      61A      2.843009    62A      2.894614    63A      2.975000
      64A      3.031272    65A      3.059138    66A      3.103450
      67A      3.116689    68A      3.181531    69A      3.314089
      70A      3.370289    71A      3.393695    72A      3.441671
      73A      3.465879    74A      3.486479    75A      3.570947
      76A      3.743648    77A      3.766074    78A      3.944062
      79A      3.986942    80A      4.060259    81A      4.111229
      82A      4.121062    83A      4.189209    84A      4.391707
      85A      4.437385    86A      4.450156    87A      4.536315
      88A      4.920499    89A      5.037470    90A      5.042622
      91A      5.198320    92A      5.210968    93A      5.477883
      94A      5.487102    95A      5.826429    96A      5.935043
      97A      6.108787    98A      6.771169    99A      6.773366
     100A      7.071263   101A      7.135404   102A      7.531956

    Beta Occupied:

       1A    -19.178635     2A    -10.260830     3A    -10.206565
       4A     -1.066609     5A     -0.750620     6A     -0.524126
       7A     -0.452422     8A     -0.446951     9A     -0.439284
      10A     -0.382824    11A     -0.348149

    Beta Virtual:

      12A     -0.051971    13A     -0.001718    14A      0.094629
      15A      0.142616    16A      0.144694    17A      0.229196
      18A      0.274206    19A      0.433376    20A      0.435587
      21A      0.466472    22A      0.500570    23A      0.527515
      24A      0.539234    25A      0.569666    26A      0.581982
      27A      0.623432    28A      0.628676    29A      0.650674
      30A      0.740197    31A      0.777298    32A      0.795764
      33A      0.833272    34A      0.922035    35A      0.943193
      36A      0.950711    37A      1.029326    38A      1.094034
      39A      1.109410    40A      1.159150    41A      1.232837
      42A      1.312840    43A      1.320408    44A      1.334518
      45A      1.413442    46A      1.414446    47A      1.481602
      48A      1.571043    49A      1.645706    50A      1.669365
      51A      1.727536    52A      1.817984    53A      1.850198
      54A      1.909267    55A      2.073756    56A      2.189879
      57A      2.511835    58A      2.695558    59A      2.759693
      60A      2.805534    61A      2.858234    62A      2.896291
      63A      2.984600    64A      3.048090    65A      3.067778
      66A      3.121989    67A      3.125153    68A      3.216105
      69A      3.357627    70A      3.381513    71A      3.399947
      72A      3.449901    73A      3.481552    74A      3.510030
      75A      3.583993    76A      3.769243    77A      3.775606
      78A      3.952744    79A      3.996251    80A      4.076606
      81A      4.123642    82A      4.126054    83A      4.200874
      84A      4.393955    85A      4.443579    86A      4.454390
      87A      4.547253    88A      4.924422    89A      5.054966
      90A      5.060644    91A      5.201025    92A      5.216191
      93A      5.490485    94A      5.501004    95A      5.839690
      96A      5.940639    97A      6.131990    98A      6.800470
      99A      6.803012   100A      7.075567   101A      7.164789
     102A      7.543615

    Final Occupation by Irrep:
              A
    DOCC [    11 ]
    SOCC [     1 ]

  @DF-UKS Final Energy:  -153.18843885614331

   => Energetics <=

    Nuclear Repulsion Energy =             62.8839080232868497
    One-Electron Energy =                -331.7620873269765980
    Two-Electron Energy =                 132.2731873276448482
    DFT Exchange-Correlation Energy =     -16.5834468800984034
    Empirical Dispersion Energy =           0.0000000000000000
    VV10 Nonlocal Energy =                  0.0000000000000000
    Total Energy =                       -153.1884388561433070

  UHF NO Occupations:
  HONO-2 :   10  A 1.9997861
  HONO-1 :   11  A 1.9992039
  HONO-0 :   12  A 1.0000000
  LUNO+0 :   13  A 0.0007961
  LUNO+1 :   14  A 0.0002139
  LUNO+2 :   15  A 0.0001782
  LUNO+3 :   16  A 0.0000614

Computation Completed

Properties will be evaluated at   0.000000,   0.000000,   0.000000 [a0]

Properties computed using the SCF density matrix

  Nuclear Dipole Moment: [e a0]
     X:     4.5356      Y:    -0.6757      Z:     0.0017

  Electronic Dipole Moment: [e a0]
     X:    -3.6075      Y:     0.6260      Z:    -0.0026

  Dipole Moment: [e a0]
     X:     0.9281      Y:    -0.0497      Z:    -0.0010     Total:     0.9294

  Dipole Moment: [D]
     X:     2.3589      Y:    -0.1262      Z:    -0.0025     Total:     2.3623

*** tstop() called on n031 at Thu Nov  4 14:58:51 2021
Module time:
	user time   =      62.49 seconds =       1.04 minutes
	system time =       0.40 seconds =       0.01 minutes
	total time  =         63 seconds =       1.05 minutes
Total time:
	user time   =      62.49 seconds =       1.04 minutes
	system time =       0.40 seconds =       0.01 minutes
	total time  =         63 seconds =       1.05 minutes
Grab this energy -153.1884388561433
    Psi4 stopped on: Thursday, 04 November 2021 02:58PM
    Psi4 wall time for execution: 0:01:02.94

*** Psi4 exiting successfully. Buy a developer a beer!
