                               Psi4 1.4a2.dev629

  ==> Input File <==

--------------------------------------------------------------------------
import os
memory 14 GB

molecule {
 C   -0.2508125723    0.8005650726    0.0000000000
 O   -2.1946749959   -0.3331313424    0.0000000000
 C    2.4092389518   -0.2448543684   -0.0000000000
 H    2.3792368378   -2.3096415363   -0.0000000000
 H    3.3908248804    0.4707139111   -1.6640346106
 H    3.3908248804    0.4707139111    1.6640346106
units bohr
0 2
}

basis {

assign 6-31g_2dfp_

[ 6-31g_2dfp_ ]

spherical

!----------------------------------------------------------------------
! Basis Set Exchange
! Version v0.8.13
! https://www.basissetexchange.org
!----------------------------------------------------------------------
!   Basis set: 6-31G(2df,p)
! Description: 6-31G(2df,p)
!        Role: orbital
!     Version: 0  (Data from the original Basis Set Exchange)
!----------------------------------------------------------------------

****
H     0
S    3   1.00
     18.7311370              0.03349460
      2.8253937              0.23472695
      0.6401217              0.81375733
S    1   1.00
      0.1612778              1.00000000
P    1   1.00
      1.5000000              1.0000000
P    1   1.00
      0.3750000              1.0000000
****
B     0
S    6   1.00
   2068.8823000              0.0018663
    310.6495700              0.0142515
     70.6830330              0.0695516
     19.8610800              0.2325729
      6.2993048              0.4670787
      2.1270270              0.3634314
SP   3   1.00
      4.7279710             -0.1303938              0.0745976
      1.1903377             -0.1307889              0.3078467
      0.3594117              1.1309444              0.7434568
SP   1   1.00
      0.1267512              1.0000000              1.0000000
D    1   1.00
      0.8020000              1.0000000
D    1   1.00
      0.2005000              1.0000000
F    1   1.00
      0.5000000              1.0000000
****
C     0
S    6   1.00
   3047.5249000              0.0018347
    457.3695100              0.0140373
    103.9486900              0.0688426
     29.2101550              0.2321844
      9.2866630              0.4679413
      3.1639270              0.3623120
SP   3   1.00
      7.8682724             -0.1193324              0.0689991
      1.8812885             -0.1608542              0.3164240
      0.5442493              1.1434564              0.7443083
SP   1   1.00
      0.1687144              1.0000000              1.0000000
D    1   1.00
      1.2520000              1.0000000
D    1   1.00
      0.3130000              1.0000000
F    1   1.00
      0.8000000              1.0000000
****
N     0
S    6   1.00
   4173.5110000              0.0018348
    627.4579000              0.0139950
    142.9021000              0.0685870
     40.2343300              0.2322410
     12.8202100              0.4690700
      4.3904370              0.3604550
SP   3   1.00
     11.6263580             -0.1149610              0.0675800
      2.7162800             -0.1691180              0.3239070
      0.7722180              1.1458520              0.7408950
SP   1   1.00
      0.2120313              1.0000000              1.0000000
D    1   1.00
      1.8260000              1.0000000
D    1   1.00
      0.4565000              1.0000000
F    1   1.00
      1.0000000              1.0000000
****
O     0
S    6   1.00
   5484.6717000              0.0018311
    825.2349500              0.0139501
    188.0469600              0.0684451
     52.9645000              0.2327143
     16.8975700              0.4701930
      5.7996353              0.3585209
SP   3   1.00
     15.5396160             -0.1107775              0.0708743
      3.5999336             -0.1480263              0.3397528
      1.0137618              1.1307670              0.7271586
SP   1   1.00
      0.2700058              1.0000000              1.0000000
D    1   1.00
      2.5840000              1.0000000
D    1   1.00
      0.6460000              1.0000000
F    1   1.00
      1.4000000              1.0000000
****
F     0
S    6   1.00
   7001.7130900              0.0018196169
   1051.3660900              0.0139160796
    239.2856900              0.0684053245
     67.3974453              0.233185760
     21.5199573              0.471267439
      7.40310130             0.356618546
SP   3   1.00
     20.8479528             -0.108506975            0.0716287243
      4.80830834            -0.146451658            0.3459121030
      1.34406986             1.128688580            0.7224699570
SP   1   1.00
      0.358151393            1.0000000              1.0000000
D    1   1.00
      3.5000000              1.0000000
D    1   1.00
      0.8750000              1.0000000
F    1   1.00
      1.8500000              1.0000000
****
Al     0
S    6   1.00
  13983.1000000              0.00194267
   2098.7500000              0.0148599
    477.7050000              0.0728494
    134.3600000              0.2468300
     42.8709000              0.4872580
     14.5189000              0.3234960
SP   6   1.00
    239.6680000             -0.00292619             0.00460285
     57.4419000             -0.0374080              0.0331990
     18.2859000             -0.1144870              0.1362820
      6.5991400              0.1156350              0.3304760
      2.4904900              0.6125950              0.4491460
      0.9445400              0.3937990              0.2657040
SP   3   1.00
      1.2779000             -0.2276060             -0.0175130
      0.3975900              0.00144583             0.2445330
      0.1600950              1.0927900              0.8049340
SP   1   1.00
      0.0556577              1.0000000              1.0000000
D    1   1.00
      0.6500000              1.0000000
D    1   1.00
      0.1625000              1.0000000
F    1   1.00
      0.2500000              1.0000000
****
Si     0
S    6   1.00
  16115.9000000              0.00195948
   2425.5800000              0.01492880
    553.8670000              0.07284780
    156.3400000              0.24613000
     50.0683000              0.48591400
     17.0178000              0.32500200
SP   6   1.00
    292.7180000             -0.00278094             0.00443826
     69.8731000             -0.03571460             0.03266790
     22.3363000             -0.11498500             0.13472100
      8.1503900              0.09356340             0.32867800
      3.1345800              0.60301700             0.44964000
      1.2254300              0.41895900             0.26137200
SP   3   1.00
      1.7273800             -0.24463000            -0.01779510
      0.5729220              0.00431572             0.25353900
      0.2221920              1.09818000             0.80066900
SP   1   1.00
      0.0778369              1.00000000             1.00000000
D    1   1.00
      0.9000000              1.0000000
D    1   1.00
      0.2250000              1.0000000
F    1   1.00
      0.3200000              1.0000000
****
P     0
S    6   1.00
  19413.3000000              0.0018516
   2909.4200000              0.0142062
    661.3640000              0.0699995
    185.7590000              0.2400790
     59.1943000              0.4847620
     20.0310000              0.3352000
SP   6   1.00
    339.4780000             -0.00278217             0.00456462
     81.0101000             -0.0360499              0.03369360
     25.8780000             -0.1166310              0.13975500
      9.4522100              0.0968328              0.33936200
      3.6656600              0.6144180              0.45092100
      1.4674600              0.4037980              0.23858600
SP   3   1.00
      2.1562300             -0.2529230             -0.01776530
      0.7489970              0.0328517              0.27405800
      0.2831450              1.0812500              0.78542100
SP   1   1.00
      0.0998317              1.0000000              1.00000000
D    1   1.00
      1.1000000              1.0000000
D    1   1.00
      0.2750000              1.0000000
F    1   1.00
      0.4500000              1.0000000
****
S     0
S    6   1.00
  21917.1000000              0.0018690
   3301.4900000              0.0142300
    754.1460000              0.0696960
    212.7110000              0.2384870
     67.9896000              0.4833070
     23.0515000              0.3380740
SP   6   1.00
    423.7350000             -0.0023767              0.0040610
    100.7100000             -0.0316930              0.0306810
     32.1599000             -0.1133170              0.1304520
     11.8079000              0.0560900              0.3272050
      4.6311000              0.5922550              0.4528510
      1.8702500              0.4550060              0.2560420
SP   3   1.00
      2.6158400             -0.2503740             -0.0145110
      0.9221670              0.0669570              0.3102630
      0.3412870              1.0545100              0.7544830
SP   1   1.00
      0.1171670              1.0000000              1.0000000
D    1   1.00
      1.3000000              1.0000000
D    1   1.00
      0.3250000              1.0000000
F    1   1.00
      0.5500000              1.0000000
****
Cl     0
S    6   1.00
  25180.1000000              0.0018330
   3780.3500000              0.0140340
    860.4740000              0.0690970
    242.1450000              0.2374520
     77.3349000              0.4830340
     26.2470000              0.3398560
SP   6   1.00
    491.7650000             -0.0022974              0.0039894
    116.9840000             -0.0307140              0.0303180
     37.4153000             -0.1125280              0.1298800
     13.7834000              0.0450160              0.3279510
      5.4521500              0.5893530              0.4535270
      2.2258800              0.4652060              0.2521540
SP   3   1.00
      3.1864900             -0.2518300             -0.0142990
      1.1442700              0.0615890              0.3235720
      0.4203770              1.0601800              0.7435070
SP   1   1.00
      0.1426570              1.0000000              1.0000000
D    1   1.00
      1.5000000              1.0000000
D    1   1.00
      0.3750000              1.0000000
F    1   1.00
      0.7000000              1.0000000
****
}

set {
reference uhf
freeze_core true
e_convergence 10
d_convergence 10
dft_spherical_points 1202
dft_radial_points 99
}

e = energy('b3lyp')

print_out('Grab this energy {0}'.format(e))
--------------------------------------------------------------------------

    Molecular point group: cs

    Geometry (in Bohr), charge = 0, multiplicity = 2:

       Center              X                  Y                   Z               Mass
    ------------   -----------------  -----------------  -----------------  -----------------
         C           -0.251511069119     0.801466988249     0.000000000000    12.000000000000
         O           -2.195373492719    -0.332229426751     0.000000000000    15.994914619570
         C            2.408540454981    -0.243952452751     0.000000000000    12.000000000000
         H            2.378538340981    -2.308739620651     0.000000000000     1.007825032230
         H            3.390126383581     0.471615826749    -1.664034610600     1.007825032230
         H            3.390126383581     0.471615826749     1.664034610600     1.007825032230

  Charge       = 0
  Multiplicity = 2
  Basis Set: ANONYMOUSBEC319A7
    Blend: 6-31G_2DFP_
  Basis Set: (ANONYMOUSBEC319A7 AUX)
    Blend: DEF2-UNIVERSAL-JKFIT

    Orbital Energies [Eh]
    ---------------------

    Alpha Occupied:

       1Ap   -19.186585     2Ap   -10.271879     3Ap   -10.210730
       4Ap    -1.078699     5Ap    -0.763290     6Ap    -0.544087
       7Ap    -0.466440     8Ap    -0.457270     1App   -0.456450
       2App   -0.386239     9Ap    -0.385388    10Ap    -0.192353

    Alpha Virtual:

       3App   -0.019932    11Ap     0.091347    12Ap     0.136322
       4App    0.140910    13Ap     0.218833    14Ap     0.268035
      15Ap     0.427717     5App    0.431136    16Ap     0.444190
       6App    0.493843    17Ap     0.506083    18Ap     0.529866
       7App    0.562683    19Ap     0.577177    20Ap     0.606875
       8App    0.616527    21Ap     0.643859    22Ap     0.716724
       9App    0.765318    23Ap     0.785064    10App    0.831586
      11App    0.918479    24Ap     0.928276    25Ap     0.936073
      12App    1.023763    26Ap     1.084308    27Ap     1.106741
      13App    1.154215    28Ap     1.223281    29Ap     1.307500
      14App    1.316056    30Ap     1.328267    31Ap     1.403088
      15App    1.407800    32Ap     1.468654    33Ap     1.560895
      34Ap     1.630343    16App    1.652813    35Ap     1.719063
      17App    1.812436    36Ap     1.834739    37Ap     1.900669
      18App    2.065613    38Ap     2.168345    39Ap     2.489305
      19App    2.680912    40Ap     2.745318    41Ap     2.784314
      20App    2.840397    21App    2.893579    42Ap     2.974425
      43Ap     3.028649    22App    3.057048    23App    3.105063
      44Ap     3.117126    45Ap     3.181198    24App    3.314959
      46Ap     3.366380    25App    3.391673    26App    3.440589
      27App    3.467392    47Ap     3.484384    48Ap     3.569824
      49Ap     3.736177    50Ap     3.765886    51Ap     3.943859
      28App    3.987492    52Ap     4.057492    53Ap     4.113767
      29App    4.117536    54Ap     4.188594    30App    4.389142
      55Ap     4.439010    31App    4.449922    56Ap     4.534313
      57Ap     4.919467    58Ap     5.037063    32App    5.042299
      33App    5.197325    59Ap     5.205448    60Ap     5.468571
      34App    5.478179    61Ap     5.829065    35App    5.924926
      62Ap     6.101780    63Ap     6.770692    36App    6.772747
      37App    7.072919    64Ap     7.135027    65Ap     7.527506

    Beta Occupied:

       1Ap   -19.178512     2Ap   -10.261765     3Ap   -10.207430
       4Ap    -1.062689     5Ap    -0.751537     6Ap    -0.524378
       1App   -0.451987     7Ap    -0.447390     8Ap    -0.438543
       2App   -0.381021     9Ap    -0.346796

    Beta Virtual:

      10Ap    -0.052638     3App   -0.003655    11Ap     0.094028
      12Ap     0.142093     4App    0.144016    13Ap     0.228990
      14Ap     0.273788     5App    0.433109    15Ap     0.434419
      16Ap     0.466665     6App    0.500543    17Ap     0.527140
      18Ap     0.539041     7App    0.568916    19Ap     0.581437
       8App    0.623804    20Ap     0.625802    21Ap     0.649389
      22Ap     0.738589     9App    0.776565    23Ap     0.795150
      10App    0.832388    11App    0.923321    24Ap     0.943903
      25Ap     0.952142    12App    1.027941    26Ap     1.090488
      27Ap     1.108799    13App    1.160366    28Ap     1.232503
      29Ap     1.313060    14App    1.318834    30Ap     1.335053
      15App    1.413238    31Ap     1.413451    32Ap     1.480926
      33Ap     1.572081    34Ap     1.643569    16App    1.667174
      35Ap     1.725381    17App    1.815642    36Ap     1.848840
      37Ap     1.907318    18App    2.072340    38Ap     2.189849
      39Ap     2.501931    19App    2.695157    40Ap     2.759786
      41Ap     2.805422    20App    2.855927    21App    2.895208
      42Ap     2.983771    43Ap     3.045438    22App    3.065666
      23App    3.123661    44Ap     3.125511    45Ap     3.215978
      24App    3.358837    46Ap     3.377898    25App    3.397826
      26App    3.447708    27App    3.484066    47Ap     3.507451
      48Ap     3.583028    49Ap     3.762133    50Ap     3.775047
      51Ap     3.952527    28App    3.996692    52Ap     4.073699
      29App    4.120388    53Ap     4.127680    54Ap     4.201010
      30App    4.391366    55Ap     4.445292    31App    4.454124
      56Ap     4.545227    57Ap     4.923330    58Ap     5.054565
      32App    5.060300    33App    5.199522    59Ap     5.211227
      60Ap     5.481264    34App    5.492032    61Ap     5.842332
      35App    5.930522    62Ap     6.125012    63Ap     6.799966
      36App    6.802372    37App    7.077235    64Ap     7.164453
      65Ap     7.539203

    Final Occupation by Irrep:
             Ap   App
    DOCC [     9,    2 ]
    SOCC [     1,    0 ]

  @DF-UKS Final Energy:  -153.18836604936223

   => Energetics <=

    Nuclear Repulsion Energy =             62.7552131377276226
    One-Electron Energy =                -331.5167232806501261
    Two-Electron Energy =                 132.1519377639764627
    DFT Exchange-Correlation Energy =     -16.5787936704162142
    Empirical Dispersion Energy =           0.0000000000000000
    VV10 Nonlocal Energy =                  0.0000000000000000
    Total Energy =                       -153.1883660493622301

  UHF NO Occupations:
  HONO-2 :    8 Ap 1.9997923
  HONO-1 :    9 Ap 1.9991955
  HONO-0 :   10 Ap 1.0000000
  LUNO+0 :   11 Ap 0.0008045
  LUNO+1 :   12 Ap 0.0002077
  LUNO+2 :    3App 0.0001836
  LUNO+3 :   13 Ap 0.0000617

Computation Completed

Properties will be evaluated at   0.000000,   0.000000,   0.000000 [a0]

Properties computed using the SCF density matrix

  Nuclear Dipole Moment: [e a0]
     X:     4.5380      Y:    -0.6783      Z:     0.0000

  Electronic Dipole Moment: [e a0]
     X:    -3.5950      Y:     0.6288      Z:     0.0000

  Dipole Moment: [e a0]
     X:     0.9430      Y:    -0.0494      Z:     0.0000     Total:     0.9443

  Dipole Moment: [D]
     X:     2.3969      Y:    -0.1257      Z:     0.0000     Total:     2.4002

*** tstop() called on n022 at Tue Mar 15 10:32:06 2022
Module time:
	user time   =      62.51 seconds =       1.04 minutes
	system time =       0.40 seconds =       0.01 minutes
	total time  =         63 seconds =       1.05 minutes
Total time:
	user time   =      62.51 seconds =       1.04 minutes
	system time =       0.40 seconds =       0.01 minutes
	total time  =         63 seconds =       1.05 minutes
Grab this energy -153.18836604936223
    Psi4 stopped on: Tuesday, 15 March 2022 10:32AM
    Psi4 wall time for execution: 0:01:02.95

*** Psi4 exiting successfully. Buy a developer a beer!
