                               Psi4 1.4a2.dev629

  ==> Input File <==

--------------------------------------------------------------------------
import os
memory 14 GB

molecule {
 C   -0.2634832472    0.8048290580   -0.0000000006
 O   -2.1956343577   -0.3405955590    0.0000000097
 C    2.4119735050   -0.2381147599    0.0000000113
 H    2.3822611433   -2.3032226971    0.0000000301
 H    3.3957402770    0.4736192044   -1.6647433067
 H    3.3957406297    0.4736193736    1.6647430763
units bohr
0 2
}

basis {

assign 6-31g_2dfp_

[ 6-31g_2dfp_ ]

spherical

!----------------------------------------------------------------------
! Basis Set Exchange
! Version v0.8.13
! https://www.basissetexchange.org
!----------------------------------------------------------------------
!   Basis set: 6-31G(2df,p)
! Description: 6-31G(2df,p)
!        Role: orbital
!     Version: 0  (Data from the original Basis Set Exchange)
!----------------------------------------------------------------------

****
H     0
S    3   1.00
     18.7311370              0.03349460
      2.8253937              0.23472695
      0.6401217              0.81375733
S    1   1.00
      0.1612778              1.00000000
P    1   1.00
      1.5000000              1.0000000
P    1   1.00
      0.3750000              1.0000000
****
B     0
S    6   1.00
   2068.8823000              0.0018663
    310.6495700              0.0142515
     70.6830330              0.0695516
     19.8610800              0.2325729
      6.2993048              0.4670787
      2.1270270              0.3634314
SP   3   1.00
      4.7279710             -0.1303938              0.0745976
      1.1903377             -0.1307889              0.3078467
      0.3594117              1.1309444              0.7434568
SP   1   1.00
      0.1267512              1.0000000              1.0000000
D    1   1.00
      0.8020000              1.0000000
D    1   1.00
      0.2005000              1.0000000
F    1   1.00
      0.5000000              1.0000000
****
C     0
S    6   1.00
   3047.5249000              0.0018347
    457.3695100              0.0140373
    103.9486900              0.0688426
     29.2101550              0.2321844
      9.2866630              0.4679413
      3.1639270              0.3623120
SP   3   1.00
      7.8682724             -0.1193324              0.0689991
      1.8812885             -0.1608542              0.3164240
      0.5442493              1.1434564              0.7443083
SP   1   1.00
      0.1687144              1.0000000              1.0000000
D    1   1.00
      1.2520000              1.0000000
D    1   1.00
      0.3130000              1.0000000
F    1   1.00
      0.8000000              1.0000000
****
N     0
S    6   1.00
   4173.5110000              0.0018348
    627.4579000              0.0139950
    142.9021000              0.0685870
     40.2343300              0.2322410
     12.8202100              0.4690700
      4.3904370              0.3604550
SP   3   1.00
     11.6263580             -0.1149610              0.0675800
      2.7162800             -0.1691180              0.3239070
      0.7722180              1.1458520              0.7408950
SP   1   1.00
      0.2120313              1.0000000              1.0000000
D    1   1.00
      1.8260000              1.0000000
D    1   1.00
      0.4565000              1.0000000
F    1   1.00
      1.0000000              1.0000000
****
O     0
S    6   1.00
   5484.6717000              0.0018311
    825.2349500              0.0139501
    188.0469600              0.0684451
     52.9645000              0.2327143
     16.8975700              0.4701930
      5.7996353              0.3585209
SP   3   1.00
     15.5396160             -0.1107775              0.0708743
      3.5999336             -0.1480263              0.3397528
      1.0137618              1.1307670              0.7271586
SP   1   1.00
      0.2700058              1.0000000              1.0000000
D    1   1.00
      2.5840000              1.0000000
D    1   1.00
      0.6460000              1.0000000
F    1   1.00
      1.4000000              1.0000000
****
F     0
S    6   1.00
   7001.7130900              0.0018196169
   1051.3660900              0.0139160796
    239.2856900              0.0684053245
     67.3974453              0.233185760
     21.5199573              0.471267439
      7.40310130             0.356618546
SP   3   1.00
     20.8479528             -0.108506975            0.0716287243
      4.80830834            -0.146451658            0.3459121030
      1.34406986             1.128688580            0.7224699570
SP   1   1.00
      0.358151393            1.0000000              1.0000000
D    1   1.00
      3.5000000              1.0000000
D    1   1.00
      0.8750000              1.0000000
F    1   1.00
      1.8500000              1.0000000
****
Al     0
S    6   1.00
  13983.1000000              0.00194267
   2098.7500000              0.0148599
    477.7050000              0.0728494
    134.3600000              0.2468300
     42.8709000              0.4872580
     14.5189000              0.3234960
SP   6   1.00
    239.6680000             -0.00292619             0.00460285
     57.4419000             -0.0374080              0.0331990
     18.2859000             -0.1144870              0.1362820
      6.5991400              0.1156350              0.3304760
      2.4904900              0.6125950              0.4491460
      0.9445400              0.3937990              0.2657040
SP   3   1.00
      1.2779000             -0.2276060             -0.0175130
      0.3975900              0.00144583             0.2445330
      0.1600950              1.0927900              0.8049340
SP   1   1.00
      0.0556577              1.0000000              1.0000000
D    1   1.00
      0.6500000              1.0000000
D    1   1.00
      0.1625000              1.0000000
F    1   1.00
      0.2500000              1.0000000
****
Si     0
S    6   1.00
  16115.9000000              0.00195948
   2425.5800000              0.01492880
    553.8670000              0.07284780
    156.3400000              0.24613000
     50.0683000              0.48591400
     17.0178000              0.32500200
SP   6   1.00
    292.7180000             -0.00278094             0.00443826
     69.8731000             -0.03571460             0.03266790
     22.3363000             -0.11498500             0.13472100
      8.1503900              0.09356340             0.32867800
      3.1345800              0.60301700             0.44964000
      1.2254300              0.41895900             0.26137200
SP   3   1.00
      1.7273800             -0.24463000            -0.01779510
      0.5729220              0.00431572             0.25353900
      0.2221920              1.09818000             0.80066900
SP   1   1.00
      0.0778369              1.00000000             1.00000000
D    1   1.00
      0.9000000              1.0000000
D    1   1.00
      0.2250000              1.0000000
F    1   1.00
      0.3200000              1.0000000
****
P     0
S    6   1.00
  19413.3000000              0.0018516
   2909.4200000              0.0142062
    661.3640000              0.0699995
    185.7590000              0.2400790
     59.1943000              0.4847620
     20.0310000              0.3352000
SP   6   1.00
    339.4780000             -0.00278217             0.00456462
     81.0101000             -0.0360499              0.03369360
     25.8780000             -0.1166310              0.13975500
      9.4522100              0.0968328              0.33936200
      3.6656600              0.6144180              0.45092100
      1.4674600              0.4037980              0.23858600
SP   3   1.00
      2.1562300             -0.2529230             -0.01776530
      0.7489970              0.0328517              0.27405800
      0.2831450              1.0812500              0.78542100
SP   1   1.00
      0.0998317              1.0000000              1.00000000
D    1   1.00
      1.1000000              1.0000000
D    1   1.00
      0.2750000              1.0000000
F    1   1.00
      0.4500000              1.0000000
****
S     0
S    6   1.00
  21917.1000000              0.0018690
   3301.4900000              0.0142300
    754.1460000              0.0696960
    212.7110000              0.2384870
     67.9896000              0.4833070
     23.0515000              0.3380740
SP   6   1.00
    423.7350000             -0.0023767              0.0040610
    100.7100000             -0.0316930              0.0306810
     32.1599000             -0.1133170              0.1304520
     11.8079000              0.0560900              0.3272050
      4.6311000              0.5922550              0.4528510
      1.8702500              0.4550060              0.2560420
SP   3   1.00
      2.6158400             -0.2503740             -0.0145110
      0.9221670              0.0669570              0.3102630
      0.3412870              1.0545100              0.7544830
SP   1   1.00
      0.1171670              1.0000000              1.0000000
D    1   1.00
      1.3000000              1.0000000
D    1   1.00
      0.3250000              1.0000000
F    1   1.00
      0.5500000              1.0000000
****
Cl     0
S    6   1.00
  25180.1000000              0.0018330
   3780.3500000              0.0140340
    860.4740000              0.0690970
    242.1450000              0.2374520
     77.3349000              0.4830340
     26.2470000              0.3398560
SP   6   1.00
    491.7650000             -0.0022974              0.0039894
    116.9840000             -0.0307140              0.0303180
     37.4153000             -0.1125280              0.1298800
     13.7834000              0.0450160              0.3279510
      5.4521500              0.5893530              0.4535270
      2.2258800              0.4652060              0.2521540
SP   3   1.00
      3.1864900             -0.2518300             -0.0142990
      1.1442700              0.0615890              0.3235720
      0.4203770              1.0601800              0.7435070
SP   1   1.00
      0.1426570              1.0000000              1.0000000
D    1   1.00
      1.5000000              1.0000000
D    1   1.00
      0.3750000              1.0000000
F    1   1.00
      0.7000000              1.0000000
****
}

set {
reference uhf
freeze_core true
e_convergence 10
d_convergence 10
dft_spherical_points 1202
dft_radial_points 99
}

e = energy('b3lyp')

print_out('Grab this energy {0}'.format(e))
--------------------------------------------------------------------------

    Molecular point group: c1

    Geometry (in Bohr), charge = 0, multiplicity = 2:

       Center              X                  Y                   Z               Mass
    ------------   -----------------  -----------------  -----------------  -----------------
         C           -0.261354526971     0.805150317058    -0.000000002499    12.000000000000
         O           -2.193505637471    -0.340274299942     0.000000007801    15.994914619570
         C            2.414102225229    -0.237793500842     0.000000009401    12.000000000000
         H            2.384389863529    -2.302901438042     0.000000028201     1.007825032230
         H            3.397868997229     0.473940463458    -1.664743308599     1.007825032230
         H            3.397869349929     0.473940632658     1.664743074401     1.007825032230

  Charge       = 0
  Multiplicity = 2
  Basis Set: ANONYMOUSD57EBFCA
    Blend: 6-31G_2DFP_
  Basis Set: (ANONYMOUSD57EBFCA AUX)
    Blend: DEF2-UNIVERSAL-JKFIT

    Orbital Energies [Eh]
    ---------------------

    Alpha Occupied:

       1A    -19.187047     2A    -10.272160     3A    -10.210839
       4A     -1.080261     5A     -0.761622     6A     -0.544089
       7A     -0.466246     8A     -0.456924     9A     -0.455895
      10A     -0.387229    11A     -0.385973    12A     -0.192453

    Alpha Virtual:

      13A     -0.019649    14A      0.091602    15A      0.136517
      16A      0.141236    17A      0.217102    18A      0.267909
      19A      0.427950    20A      0.431807    21A      0.443292
      22A      0.493295    23A      0.506296    24A      0.529998
      25A      0.562677    26A      0.577105    27A      0.606875
      28A      0.615808    29A      0.643431    30A      0.717385
      31A      0.765943    32A      0.784832    33A      0.832066
      34A      0.917283    35A      0.927655    36A      0.935755
      37A      1.021373    38A      1.082588    39A      1.107649
      40A      1.154388    41A      1.221199    42A      1.305476
      43A      1.316626    44A      1.327031    45A      1.403060
      46A      1.405815    47A      1.467193    48A      1.559388
      49A      1.629117    50A      1.652891    51A      1.719201
      52A      1.812547    53A      1.833078    54A      1.899631
      55A      2.064100    56A      2.165358    57A      2.492475
      58A      2.679737    59A      2.743237    60A      2.783476
      61A      2.840936    62A      2.894879    63A      2.972285
      64A      3.030094    65A      3.057034    66A      3.105968
      67A      3.114232    68A      3.182746    69A      3.314734
      70A      3.368310    71A      3.392468    72A      3.439006
      73A      3.465978    74A      3.485574    75A      3.569765
      76A      3.736185    77A      3.758333    78A      3.942807
      79A      3.977187    80A      4.051958    81A      4.108453
      82A      4.118747    83A      4.189688    84A      4.389412
      85A      4.430645    86A      4.445591    87A      4.528570
      88A      4.917398    89A      5.036667    90A      5.041988
      91A      5.196441    92A      5.205280    93A      5.470190
      94A      5.478747    95A      5.826891    96A      5.926576
      97A      6.100603    98A      6.770276    99A      6.772462
     100A      7.070969   101A      7.134673   102A      7.528283

    Beta Occupied:

       1A    -19.178994     2A    -10.262084     3A    -10.207460
       4A     -1.064329     5A     -0.749842     6A     -0.524348
       7A     -0.451384     8A     -0.446392     9A     -0.438708
      10A     -0.382046    11A     -0.347671

    Beta Virtual:

      12A     -0.052980    13A     -0.003377    14A      0.094316
      15A      0.142185    16A      0.144361    17A      0.227634
      18A      0.273630    19A      0.433803    20A      0.435143
      21A      0.465239    22A      0.499971    23A      0.527626
      24A      0.538992    25A      0.569066    26A      0.581292
      27A      0.623005    28A      0.625728    29A      0.648965
      30A      0.739262    31A      0.777148    32A      0.794864
      33A      0.832849    34A      0.922112    35A      0.943737
      36A      0.951331    37A      1.025517    38A      1.088697
      39A      1.109800    40A      1.160572    41A      1.230495
      42A      1.310933    43A      1.319455    44A      1.333855
      45A      1.411289    46A      1.413416    47A      1.479406
      48A      1.570769    49A      1.642305    50A      1.667219
      51A      1.725366    52A      1.815764    53A      1.847221
      54A      1.906211    55A      2.070784    56A      2.186749
      57A      2.505137    58A      2.693936    59A      2.757739
      60A      2.804578    61A      2.856489    62A      2.896521
      63A      2.981626    64A      3.046876    65A      3.065554
      66A      3.122816    67A      3.124687    68A      3.217586
      69A      3.358475    70A      3.379992    71A      3.398671
      72A      3.447282    73A      3.481698    74A      3.508237
      75A      3.583100    76A      3.761676    77A      3.768006
      78A      3.951531    79A      3.986460    80A      4.068325
      81A      4.121574    82A      4.123199    83A      4.201412
      84A      4.391629    85A      4.436862    86A      4.449809
      87A      4.539400    88A      4.921257    89A      5.054142
      90A      5.059951    91A      5.198602    92A      5.210967
      93A      5.482857    94A      5.492609    95A      5.840109
      96A      5.932155    97A      6.123784    98A      6.799498
      99A      6.802022   100A      7.075261   101A      7.164007
     102A      7.539943

    Final Occupation by Irrep:
              A
    DOCC [    11 ]
    SOCC [     1 ]

  @DF-UKS Final Energy:  -153.18839953470876

   => Energetics <=

    Nuclear Repulsion Energy =             62.7076920788554304
    One-Electron Energy =                -331.4197763213472285
    Two-Electron Energy =                 132.1016253843422135
    DFT Exchange-Correlation Energy =     -16.5779406765591695
    Empirical Dispersion Energy =           0.0000000000000000
    VV10 Nonlocal Energy =                  0.0000000000000000
    Total Energy =                       -153.1883995347087648

  UHF NO Occupations:
  HONO-2 :   10  A 1.9997837
  HONO-1 :   11  A 1.9992009
  HONO-0 :   12  A 1.0000000
  LUNO+0 :   13  A 0.0007991
  LUNO+1 :   14  A 0.0002163
  LUNO+2 :   15  A 0.0001822
  LUNO+3 :   16  A 0.0000615

Computation Completed

Properties will be evaluated at   0.000000,   0.000000,   0.000000 [a0]

Properties computed using the SCF density matrix

  Nuclear Dipole Moment: [e a0]
     X:     4.5486      Y:    -0.6731      Z:    -0.0000

  Electronic Dipole Moment: [e a0]
     X:    -3.6137      Y:     0.6256      Z:     0.0000

  Dipole Moment: [e a0]
     X:     0.9349      Y:    -0.0475      Z:    -0.0000     Total:     0.9361

  Dipole Moment: [D]
     X:     2.3763      Y:    -0.1207      Z:    -0.0000     Total:     2.3793

*** tstop() called on n073 at Thu Nov  4 14:51:55 2021
Module time:
	user time   =      51.92 seconds =       0.87 minutes
	system time =       0.57 seconds =       0.01 minutes
	total time  =         52 seconds =       0.87 minutes
Total time:
	user time   =      51.92 seconds =       0.87 minutes
	system time =       0.57 seconds =       0.01 minutes
	total time  =         52 seconds =       0.87 minutes
Grab this energy -153.18839953470876
    Psi4 stopped on: Thursday, 04 November 2021 02:51PM
    Psi4 wall time for execution: 0:00:52.54

*** Psi4 exiting successfully. Buy a developer a beer!
