                               Psi4 1.4a2.dev629

  ==> Input File <==

--------------------------------------------------------------------------
import os
memory 14 GB

molecule {
 C   -0.2662792658    0.7982062621    0.0000000000
 O   -2.2000695248   -0.3236537326    0.0000000000
 C    2.4124966508   -0.2479925180    0.0000000000
 H    2.3924694193   -2.3108963603   -0.0000000000
 H    3.3930103513    0.4693509983   -1.6644984300
 H    3.3930103513    0.4693509983    1.6644984300
units bohr
0 2
}

basis {

assign 6-31g_2dfp_

[ 6-31g_2dfp_ ]

spherical

!----------------------------------------------------------------------
! Basis Set Exchange
! Version v0.8.13
! https://www.basissetexchange.org
!----------------------------------------------------------------------
!   Basis set: 6-31G(2df,p)
! Description: 6-31G(2df,p)
!        Role: orbital
!     Version: 0  (Data from the original Basis Set Exchange)
!----------------------------------------------------------------------

****
H     0
S    3   1.00
     18.7311370              0.03349460
      2.8253937              0.23472695
      0.6401217              0.81375733
S    1   1.00
      0.1612778              1.00000000
P    1   1.00
      1.5000000              1.0000000
P    1   1.00
      0.3750000              1.0000000
****
B     0
S    6   1.00
   2068.8823000              0.0018663
    310.6495700              0.0142515
     70.6830330              0.0695516
     19.8610800              0.2325729
      6.2993048              0.4670787
      2.1270270              0.3634314
SP   3   1.00
      4.7279710             -0.1303938              0.0745976
      1.1903377             -0.1307889              0.3078467
      0.3594117              1.1309444              0.7434568
SP   1   1.00
      0.1267512              1.0000000              1.0000000
D    1   1.00
      0.8020000              1.0000000
D    1   1.00
      0.2005000              1.0000000
F    1   1.00
      0.5000000              1.0000000
****
C     0
S    6   1.00
   3047.5249000              0.0018347
    457.3695100              0.0140373
    103.9486900              0.0688426
     29.2101550              0.2321844
      9.2866630              0.4679413
      3.1639270              0.3623120
SP   3   1.00
      7.8682724             -0.1193324              0.0689991
      1.8812885             -0.1608542              0.3164240
      0.5442493              1.1434564              0.7443083
SP   1   1.00
      0.1687144              1.0000000              1.0000000
D    1   1.00
      1.2520000              1.0000000
D    1   1.00
      0.3130000              1.0000000
F    1   1.00
      0.8000000              1.0000000
****
N     0
S    6   1.00
   4173.5110000              0.0018348
    627.4579000              0.0139950
    142.9021000              0.0685870
     40.2343300              0.2322410
     12.8202100              0.4690700
      4.3904370              0.3604550
SP   3   1.00
     11.6263580             -0.1149610              0.0675800
      2.7162800             -0.1691180              0.3239070
      0.7722180              1.1458520              0.7408950
SP   1   1.00
      0.2120313              1.0000000              1.0000000
D    1   1.00
      1.8260000              1.0000000
D    1   1.00
      0.4565000              1.0000000
F    1   1.00
      1.0000000              1.0000000
****
O     0
S    6   1.00
   5484.6717000              0.0018311
    825.2349500              0.0139501
    188.0469600              0.0684451
     52.9645000              0.2327143
     16.8975700              0.4701930
      5.7996353              0.3585209
SP   3   1.00
     15.5396160             -0.1107775              0.0708743
      3.5999336             -0.1480263              0.3397528
      1.0137618              1.1307670              0.7271586
SP   1   1.00
      0.2700058              1.0000000              1.0000000
D    1   1.00
      2.5840000              1.0000000
D    1   1.00
      0.6460000              1.0000000
F    1   1.00
      1.4000000              1.0000000
****
F     0
S    6   1.00
   7001.7130900              0.0018196169
   1051.3660900              0.0139160796
    239.2856900              0.0684053245
     67.3974453              0.233185760
     21.5199573              0.471267439
      7.40310130             0.356618546
SP   3   1.00
     20.8479528             -0.108506975            0.0716287243
      4.80830834            -0.146451658            0.3459121030
      1.34406986             1.128688580            0.7224699570
SP   1   1.00
      0.358151393            1.0000000              1.0000000
D    1   1.00
      3.5000000              1.0000000
D    1   1.00
      0.8750000              1.0000000
F    1   1.00
      1.8500000              1.0000000
****
Al     0
S    6   1.00
  13983.1000000              0.00194267
   2098.7500000              0.0148599
    477.7050000              0.0728494
    134.3600000              0.2468300
     42.8709000              0.4872580
     14.5189000              0.3234960
SP   6   1.00
    239.6680000             -0.00292619             0.00460285
     57.4419000             -0.0374080              0.0331990
     18.2859000             -0.1144870              0.1362820
      6.5991400              0.1156350              0.3304760
      2.4904900              0.6125950              0.4491460
      0.9445400              0.3937990              0.2657040
SP   3   1.00
      1.2779000             -0.2276060             -0.0175130
      0.3975900              0.00144583             0.2445330
      0.1600950              1.0927900              0.8049340
SP   1   1.00
      0.0556577              1.0000000              1.0000000
D    1   1.00
      0.6500000              1.0000000
D    1   1.00
      0.1625000              1.0000000
F    1   1.00
      0.2500000              1.0000000
****
Si     0
S    6   1.00
  16115.9000000              0.00195948
   2425.5800000              0.01492880
    553.8670000              0.07284780
    156.3400000              0.24613000
     50.0683000              0.48591400
     17.0178000              0.32500200
SP   6   1.00
    292.7180000             -0.00278094             0.00443826
     69.8731000             -0.03571460             0.03266790
     22.3363000             -0.11498500             0.13472100
      8.1503900              0.09356340             0.32867800
      3.1345800              0.60301700             0.44964000
      1.2254300              0.41895900             0.26137200
SP   3   1.00
      1.7273800             -0.24463000            -0.01779510
      0.5729220              0.00431572             0.25353900
      0.2221920              1.09818000             0.80066900
SP   1   1.00
      0.0778369              1.00000000             1.00000000
D    1   1.00
      0.9000000              1.0000000
D    1   1.00
      0.2250000              1.0000000
F    1   1.00
      0.3200000              1.0000000
****
P     0
S    6   1.00
  19413.3000000              0.0018516
   2909.4200000              0.0142062
    661.3640000              0.0699995
    185.7590000              0.2400790
     59.1943000              0.4847620
     20.0310000              0.3352000
SP   6   1.00
    339.4780000             -0.00278217             0.00456462
     81.0101000             -0.0360499              0.03369360
     25.8780000             -0.1166310              0.13975500
      9.4522100              0.0968328              0.33936200
      3.6656600              0.6144180              0.45092100
      1.4674600              0.4037980              0.23858600
SP   3   1.00
      2.1562300             -0.2529230             -0.01776530
      0.7489970              0.0328517              0.27405800
      0.2831450              1.0812500              0.78542100
SP   1   1.00
      0.0998317              1.0000000              1.00000000
D    1   1.00
      1.1000000              1.0000000
D    1   1.00
      0.2750000              1.0000000
F    1   1.00
      0.4500000              1.0000000
****
S     0
S    6   1.00
  21917.1000000              0.0018690
   3301.4900000              0.0142300
    754.1460000              0.0696960
    212.7110000              0.2384870
     67.9896000              0.4833070
     23.0515000              0.3380740
SP   6   1.00
    423.7350000             -0.0023767              0.0040610
    100.7100000             -0.0316930              0.0306810
     32.1599000             -0.1133170              0.1304520
     11.8079000              0.0560900              0.3272050
      4.6311000              0.5922550              0.4528510
      1.8702500              0.4550060              0.2560420
SP   3   1.00
      2.6158400             -0.2503740             -0.0145110
      0.9221670              0.0669570              0.3102630
      0.3412870              1.0545100              0.7544830
SP   1   1.00
      0.1171670              1.0000000              1.0000000
D    1   1.00
      1.3000000              1.0000000
D    1   1.00
      0.3250000              1.0000000
F    1   1.00
      0.5500000              1.0000000
****
Cl     0
S    6   1.00
  25180.1000000              0.0018330
   3780.3500000              0.0140340
    860.4740000              0.0690970
    242.1450000              0.2374520
     77.3349000              0.4830340
     26.2470000              0.3398560
SP   6   1.00
    491.7650000             -0.0022974              0.0039894
    116.9840000             -0.0307140              0.0303180
     37.4153000             -0.1125280              0.1298800
     13.7834000              0.0450160              0.3279510
      5.4521500              0.5893530              0.4535270
      2.2258800              0.4652060              0.2521540
SP   3   1.00
      3.1864900             -0.2518300             -0.0142990
      1.1442700              0.0615890              0.3235720
      0.4203770              1.0601800              0.7435070
SP   1   1.00
      0.1426570              1.0000000              1.0000000
D    1   1.00
      1.5000000              1.0000000
D    1   1.00
      0.3750000              1.0000000
F    1   1.00
      0.7000000              1.0000000
****
}

set {
reference uhf
freeze_core true
e_convergence 10
d_convergence 10
dft_spherical_points 1202
dft_radial_points 99
}

e = energy('b3lyp')

print_out('Grab this energy {0}'.format(e))
--------------------------------------------------------------------------

    Molecular point group: cs

    Geometry (in Bohr), charge = 0, multiplicity = 2:

       Center              X                  Y                   Z               Mass
    ------------   -----------------  -----------------  -----------------  -----------------
         C           -0.261978698424     0.797210890553     0.000000000000    12.000000000000
         O           -2.195768957424    -0.324649104147     0.000000000000    15.994914619570
         C            2.416797218176    -0.248987889547     0.000000000000    12.000000000000
         H            2.396769986676    -2.311891731847     0.000000000000     1.007825032230
         H            3.397310918676     0.468355626753    -1.664498430000     1.007825032230
         H            3.397310918676     0.468355626753     1.664498430000     1.007825032230

  Charge       = 0
  Multiplicity = 2
  Basis Set: ANONYMOUSCDB78DDF
    Blend: 6-31G_2DFP_
  Basis Set: (ANONYMOUSCDB78DDF AUX)
    Blend: DEF2-UNIVERSAL-JKFIT

    Orbital Energies [Eh]
    ---------------------

    Alpha Occupied:

       1Ap   -19.187010     2Ap   -10.271219     3Ap   -10.210541
       4Ap    -1.083202     5Ap    -0.761058     6Ap    -0.543674
       7Ap    -0.466626     8Ap    -0.457553     1App   -0.456012
       2App   -0.388515     9Ap    -0.387133    10Ap    -0.190576

    Alpha Virtual:

       3App   -0.017916    11Ap     0.091683    12Ap     0.137143
       4App    0.141333    13Ap     0.216757    14Ap     0.268053
      15Ap     0.427737     5App    0.431948    16Ap     0.443546
       6App    0.493346    17Ap     0.506495    18Ap     0.530468
       7App    0.563264    19Ap     0.577254    20Ap     0.610761
       8App    0.615541    21Ap     0.644192    22Ap     0.718867
       9App    0.764963    23Ap     0.785098    10App    0.832498
      11App    0.916524    24Ap     0.925150    25Ap     0.933548
      12App    1.023262    26Ap     1.085977    27Ap     1.107794
      13App    1.151974    28Ap     1.220969    29Ap     1.305894
      14App    1.316600    30Ap     1.326232    31Ap     1.402543
      15App    1.408042    32Ap     1.468502    33Ap     1.559845
      34Ap     1.634162    16App    1.655043    35Ap     1.721890
      17App    1.813586    36Ap     1.832101    37Ap     1.900442
      18App    2.067505    38Ap     2.170571    39Ap     2.499739
      19App    2.680247    40Ap     2.743408    41Ap     2.784063
      20App    2.842226    21App    2.894905    42Ap     2.975947
      43Ap     3.028328    22App    3.056951    23App    3.103997
      44Ap     3.113579    45Ap     3.180522    24App    3.313082
      46Ap     3.368688    25App    3.393625    26App    3.440119
      27App    3.464869    47Ap     3.484929    48Ap     3.569122
      49Ap     3.743181    50Ap     3.762110    51Ap     3.941651
      28App    3.977321    52Ap     4.054441    53Ap     4.105493
      29App    4.119666    54Ap     4.187972    30App    4.387147
      55Ap     4.429247    31App    4.447075    56Ap     4.532109
      57Ap     4.918236    58Ap     5.036944    32App    5.042363
      33App    5.197623    59Ap     5.206678    60Ap     5.477621
      34App    5.486866    61Ap     5.826010    35App    5.935889
      62Ap     6.108432    63Ap     6.770795    36App    6.773233
      37App    7.070627    64Ap     7.134819    65Ap     7.532252

    Beta Occupied:

       1Ap   -19.178994     2Ap   -10.261167     3Ap   -10.207130
       4Ap    -1.067404     5Ap    -0.749263     6Ap    -0.523980
       1App   -0.451406     7Ap    -0.446462     8Ap    -0.439383
       2App   -0.383412     9Ap    -0.349263

    Beta Virtual:

      10Ap    -0.051211     3App   -0.001674    11Ap     0.094403
      12Ap     0.142835     4App    0.144478    13Ap     0.227387
      14Ap     0.273667     5App    0.433970    15Ap     0.435336
      16Ap     0.464885     6App    0.500034    17Ap     0.527995
      18Ap     0.539626     7App    0.569608    19Ap     0.581464
       8App    0.622884    20Ap     0.628851    21Ap     0.650350
      22Ap     0.741203     9App    0.776013    23Ap     0.794987
      10App    0.833282    11App    0.921368    24Ap     0.939453
      25Ap     0.950732    12App    1.027457    26Ap     1.092013
      27Ap     1.109889    13App    1.158158    28Ap     1.230391
      29Ap     1.311406    14App    1.319424    30Ap     1.332998
      31Ap     1.412759    15App    1.413555    32Ap     1.480654
      33Ap     1.570817    34Ap     1.647756    16App    1.669303
      35Ap     1.728083    17App    1.816822    36Ap     1.846376
      37Ap     1.907080    18App    2.074177    38Ap     2.191838
      39Ap     2.512453    19App    2.694459    40Ap     2.757888
      41Ap     2.805304    20App    2.857934    21App    2.896569
      42Ap     2.985392    43Ap     3.045383    22App    3.065626
      44Ap     3.122062    23App    3.122648    45Ap     3.215347
      24App    3.356610    46Ap     3.380405    25App    3.399940
      26App    3.449851    27App    3.478967    47Ap     3.507648
      48Ap     3.582439    49Ap     3.768348    50Ap     3.772090
      51Ap     3.950239    28App    3.986655    52Ap     4.070771
      53Ap     4.120808    29App    4.122501    54Ap     4.199068
      30App    4.389421    55Ap     4.435341    31App    4.451252
      56Ap     4.543040    57Ap     4.922099    58Ap     5.054362
      32App    5.060228    33App    5.199747    59Ap     5.212378
      60Ap     5.490221    34App    5.500732    61Ap     5.839200
      35App    5.941471    62Ap     6.131487    63Ap     6.799873
      36App    6.802638    37App    7.074907    64Ap     7.164005
      65Ap     7.543851

    Final Occupation by Irrep:
             Ap   App
    DOCC [     9,    2 ]
    SOCC [     1,    0 ]

  @DF-UKS Final Energy:  -153.18844245429023

   => Energetics <=

    Nuclear Repulsion Energy =             62.7724562184565045
    One-Electron Energy =                -331.5400464772048394
    Two-Electron Energy =                 132.1605255895381958
    DFT Exchange-Correlation Energy =     -16.5813777850800825
    Empirical Dispersion Energy =           0.0000000000000000
    VV10 Nonlocal Energy =                  0.0000000000000000
    Total Energy =                       -153.1884424542902252

  UHF NO Occupations:
  HONO-2 :    8 Ap 1.9997806
  HONO-1 :    9 Ap 1.9992109
  HONO-0 :   10 Ap 1.0000000
  LUNO+0 :   11 Ap 0.0007891
  LUNO+1 :   12 Ap 0.0002194
  LUNO+2 :    3App 0.0001802
  LUNO+3 :   13 Ap 0.0000609

Computation Completed

Properties will be evaluated at   0.000000,   0.000000,   0.000000 [a0]

Properties computed using the SCF density matrix

  Nuclear Dipole Moment: [e a0]
     X:     4.5542      Y:    -0.6830      Z:     0.0000

  Electronic Dipole Moment: [e a0]
     X:    -3.6274      Y:     0.6297      Z:     0.0000

  Dipole Moment: [e a0]
     X:     0.9268      Y:    -0.0533      Z:     0.0000     Total:     0.9283

  Dipole Moment: [D]
     X:     2.3556      Y:    -0.1356      Z:     0.0000     Total:     2.3595

*** tstop() called on n051 at Tue Mar 15 10:33:09 2022
Module time:
	user time   =      50.82 seconds =       0.85 minutes
	system time =       0.50 seconds =       0.01 minutes
	total time  =         51 seconds =       0.85 minutes
Total time:
	user time   =      50.82 seconds =       0.85 minutes
	system time =       0.50 seconds =       0.01 minutes
	total time  =         51 seconds =       0.85 minutes
Grab this energy -153.18844245429023
    Psi4 stopped on: Tuesday, 15 March 2022 10:33AM
    Psi4 wall time for execution: 0:00:51.38

*** Psi4 exiting successfully. Buy a developer a beer!
