                               Psi4 1.4a2.dev629

  ==> Input File <==

--------------------------------------------------------------------------
import os
memory 14 GB

molecule {
 C   -0.2511968077    0.8107917315   -0.0000000000
 O   -2.1822675392   -0.3420694649   -0.0000000000
 C    2.4069219412   -0.2432789696   -0.0000000000
 H    2.3731976951   -2.3069947727    0.0000000000
 H    3.3889913464    0.4679585617   -1.6639574810
 H    3.3889913464    0.4679585617    1.6639574810
units bohr
0 2
}

basis {

assign 6-31g_2dfp_

[ 6-31g_2dfp_ ]

spherical

!----------------------------------------------------------------------
! Basis Set Exchange
! Version v0.8.13
! https://www.basissetexchange.org
!----------------------------------------------------------------------
!   Basis set: 6-31G(2df,p)
! Description: 6-31G(2df,p)
!        Role: orbital
!     Version: 0  (Data from the original Basis Set Exchange)
!----------------------------------------------------------------------

****
H     0
S    3   1.00
     18.7311370              0.03349460
      2.8253937              0.23472695
      0.6401217              0.81375733
S    1   1.00
      0.1612778              1.00000000
P    1   1.00
      1.5000000              1.0000000
P    1   1.00
      0.3750000              1.0000000
****
B     0
S    6   1.00
   2068.8823000              0.0018663
    310.6495700              0.0142515
     70.6830330              0.0695516
     19.8610800              0.2325729
      6.2993048              0.4670787
      2.1270270              0.3634314
SP   3   1.00
      4.7279710             -0.1303938              0.0745976
      1.1903377             -0.1307889              0.3078467
      0.3594117              1.1309444              0.7434568
SP   1   1.00
      0.1267512              1.0000000              1.0000000
D    1   1.00
      0.8020000              1.0000000
D    1   1.00
      0.2005000              1.0000000
F    1   1.00
      0.5000000              1.0000000
****
C     0
S    6   1.00
   3047.5249000              0.0018347
    457.3695100              0.0140373
    103.9486900              0.0688426
     29.2101550              0.2321844
      9.2866630              0.4679413
      3.1639270              0.3623120
SP   3   1.00
      7.8682724             -0.1193324              0.0689991
      1.8812885             -0.1608542              0.3164240
      0.5442493              1.1434564              0.7443083
SP   1   1.00
      0.1687144              1.0000000              1.0000000
D    1   1.00
      1.2520000              1.0000000
D    1   1.00
      0.3130000              1.0000000
F    1   1.00
      0.8000000              1.0000000
****
N     0
S    6   1.00
   4173.5110000              0.0018348
    627.4579000              0.0139950
    142.9021000              0.0685870
     40.2343300              0.2322410
     12.8202100              0.4690700
      4.3904370              0.3604550
SP   3   1.00
     11.6263580             -0.1149610              0.0675800
      2.7162800             -0.1691180              0.3239070
      0.7722180              1.1458520              0.7408950
SP   1   1.00
      0.2120313              1.0000000              1.0000000
D    1   1.00
      1.8260000              1.0000000
D    1   1.00
      0.4565000              1.0000000
F    1   1.00
      1.0000000              1.0000000
****
O     0
S    6   1.00
   5484.6717000              0.0018311
    825.2349500              0.0139501
    188.0469600              0.0684451
     52.9645000              0.2327143
     16.8975700              0.4701930
      5.7996353              0.3585209
SP   3   1.00
     15.5396160             -0.1107775              0.0708743
      3.5999336             -0.1480263              0.3397528
      1.0137618              1.1307670              0.7271586
SP   1   1.00
      0.2700058              1.0000000              1.0000000
D    1   1.00
      2.5840000              1.0000000
D    1   1.00
      0.6460000              1.0000000
F    1   1.00
      1.4000000              1.0000000
****
F     0
S    6   1.00
   7001.7130900              0.0018196169
   1051.3660900              0.0139160796
    239.2856900              0.0684053245
     67.3974453              0.233185760
     21.5199573              0.471267439
      7.40310130             0.356618546
SP   3   1.00
     20.8479528             -0.108506975            0.0716287243
      4.80830834            -0.146451658            0.3459121030
      1.34406986             1.128688580            0.7224699570
SP   1   1.00
      0.358151393            1.0000000              1.0000000
D    1   1.00
      3.5000000              1.0000000
D    1   1.00
      0.8750000              1.0000000
F    1   1.00
      1.8500000              1.0000000
****
Al     0
S    6   1.00
  13983.1000000              0.00194267
   2098.7500000              0.0148599
    477.7050000              0.0728494
    134.3600000              0.2468300
     42.8709000              0.4872580
     14.5189000              0.3234960
SP   6   1.00
    239.6680000             -0.00292619             0.00460285
     57.4419000             -0.0374080              0.0331990
     18.2859000             -0.1144870              0.1362820
      6.5991400              0.1156350              0.3304760
      2.4904900              0.6125950              0.4491460
      0.9445400              0.3937990              0.2657040
SP   3   1.00
      1.2779000             -0.2276060             -0.0175130
      0.3975900              0.00144583             0.2445330
      0.1600950              1.0927900              0.8049340
SP   1   1.00
      0.0556577              1.0000000              1.0000000
D    1   1.00
      0.6500000              1.0000000
D    1   1.00
      0.1625000              1.0000000
F    1   1.00
      0.2500000              1.0000000
****
Si     0
S    6   1.00
  16115.9000000              0.00195948
   2425.5800000              0.01492880
    553.8670000              0.07284780
    156.3400000              0.24613000
     50.0683000              0.48591400
     17.0178000              0.32500200
SP   6   1.00
    292.7180000             -0.00278094             0.00443826
     69.8731000             -0.03571460             0.03266790
     22.3363000             -0.11498500             0.13472100
      8.1503900              0.09356340             0.32867800
      3.1345800              0.60301700             0.44964000
      1.2254300              0.41895900             0.26137200
SP   3   1.00
      1.7273800             -0.24463000            -0.01779510
      0.5729220              0.00431572             0.25353900
      0.2221920              1.09818000             0.80066900
SP   1   1.00
      0.0778369              1.00000000             1.00000000
D    1   1.00
      0.9000000              1.0000000
D    1   1.00
      0.2250000              1.0000000
F    1   1.00
      0.3200000              1.0000000
****
P     0
S    6   1.00
  19413.3000000              0.0018516
   2909.4200000              0.0142062
    661.3640000              0.0699995
    185.7590000              0.2400790
     59.1943000              0.4847620
     20.0310000              0.3352000
SP   6   1.00
    339.4780000             -0.00278217             0.00456462
     81.0101000             -0.0360499              0.03369360
     25.8780000             -0.1166310              0.13975500
      9.4522100              0.0968328              0.33936200
      3.6656600              0.6144180              0.45092100
      1.4674600              0.4037980              0.23858600
SP   3   1.00
      2.1562300             -0.2529230             -0.01776530
      0.7489970              0.0328517              0.27405800
      0.2831450              1.0812500              0.78542100
SP   1   1.00
      0.0998317              1.0000000              1.00000000
D    1   1.00
      1.1000000              1.0000000
D    1   1.00
      0.2750000              1.0000000
F    1   1.00
      0.4500000              1.0000000
****
S     0
S    6   1.00
  21917.1000000              0.0018690
   3301.4900000              0.0142300
    754.1460000              0.0696960
    212.7110000              0.2384870
     67.9896000              0.4833070
     23.0515000              0.3380740
SP   6   1.00
    423.7350000             -0.0023767              0.0040610
    100.7100000             -0.0316930              0.0306810
     32.1599000             -0.1133170              0.1304520
     11.8079000              0.0560900              0.3272050
      4.6311000              0.5922550              0.4528510
      1.8702500              0.4550060              0.2560420
SP   3   1.00
      2.6158400             -0.2503740             -0.0145110
      0.9221670              0.0669570              0.3102630
      0.3412870              1.0545100              0.7544830
SP   1   1.00
      0.1171670              1.0000000              1.0000000
D    1   1.00
      1.3000000              1.0000000
D    1   1.00
      0.3250000              1.0000000
F    1   1.00
      0.5500000              1.0000000
****
Cl     0
S    6   1.00
  25180.1000000              0.0018330
   3780.3500000              0.0140340
    860.4740000              0.0690970
    242.1450000              0.2374520
     77.3349000              0.4830340
     26.2470000              0.3398560
SP   6   1.00
    491.7650000             -0.0022974              0.0039894
    116.9840000             -0.0307140              0.0303180
     37.4153000             -0.1125280              0.1298800
     13.7834000              0.0450160              0.3279510
      5.4521500              0.5893530              0.4535270
      2.2258800              0.4652060              0.2521540
SP   3   1.00
      3.1864900             -0.2518300             -0.0142990
      1.1442700              0.0615890              0.3235720
      0.4203770              1.0601800              0.7435070
SP   1   1.00
      0.1426570              1.0000000              1.0000000
D    1   1.00
      1.5000000              1.0000000
D    1   1.00
      0.3750000              1.0000000
F    1   1.00
      0.7000000              1.0000000
****
}

set {
reference uhf
freeze_core true
e_convergence 10
d_convergence 10
dft_spherical_points 1202
dft_radial_points 99
}

e = energy('b3lyp')

print_out('Grab this energy {0}'.format(e))
--------------------------------------------------------------------------

    Molecular point group: cs

    Geometry (in Bohr), charge = 0, multiplicity = 2:

       Center              X                  Y                   Z               Mass
    ------------   -----------------  -----------------  -----------------  -----------------
         C           -0.255527683543     0.811791887913     0.000000000000    12.000000000000
         O           -2.186598415043    -0.341069308487     0.000000000000    15.994914619570
         C            2.402591065357    -0.242278813187     0.000000000000    12.000000000000
         H            2.368866819257    -2.305994616287     0.000000000000     1.007825032230
         H            3.384660470557     0.468958718113    -1.663957481000     1.007825032230
         H            3.384660470557     0.468958718113     1.663957481000     1.007825032230

  Charge       = 0
  Multiplicity = 2
  Basis Set: ANONYMOUS6A5648E0
    Blend: 6-31G_2DFP_
  Basis Set: (ANONYMOUS6A5648E0 AUX)
    Blend: DEF2-UNIVERSAL-JKFIT

    Orbital Energies [Eh]
    ---------------------

    Alpha Occupied:

       1Ap   -19.186759     2Ap   -10.271885     3Ap   -10.210230
       4Ap    -1.079434     5Ap    -0.762921     6Ap    -0.544185
       7Ap    -0.466551     8Ap    -0.457245     1App   -0.456608
       2App   -0.386509     9Ap    -0.385015    10Ap    -0.193549

    Alpha Virtual:

       3App   -0.019770    11Ap     0.091800    12Ap     0.136660
       4App    0.141170    13Ap     0.218970    14Ap     0.268382
      15Ap     0.428415     5App    0.431515    16Ap     0.443960
       6App    0.493856    17Ap     0.505967    18Ap     0.530082
       7App    0.562627    19Ap     0.577711    20Ap     0.606299
       8App    0.616231    21Ap     0.644059    22Ap     0.716552
       9App    0.767259    23Ap     0.785573    10App    0.832034
      11App    0.918032    24Ap     0.928267    25Ap     0.938614
      12App    1.023208    26Ap     1.084767    27Ap     1.107487
      13App    1.154778    28Ap     1.222597    29Ap     1.307018
      14App    1.316797    30Ap     1.328852    31Ap     1.404497
      15App    1.406866    32Ap     1.467596    33Ap     1.559846
      34Ap     1.627342    16App    1.652639    35Ap     1.718774
      17App    1.813123    36Ap     1.836925    37Ap     1.902383
      18App    2.063267    38Ap     2.162372    39Ap     2.491506
      19App    2.680272    40Ap     2.744824    41Ap     2.783940
      20App    2.841989    21App    2.894144    42Ap     2.970963
      43Ap     3.034037    22App    3.059533    23App    3.106104
      44Ap     3.116687    45Ap     3.184115    24App    3.315581
      46Ap     3.369840    25App    3.392757    26App    3.439374
      27App    3.467729    47Ap     3.486821    48Ap     3.571829
      49Ap     3.736026    50Ap     3.762200    51Ap     3.944336
      28App    3.987613    52Ap     4.057329    53Ap     4.114587
      29App    4.119708    54Ap     4.190495    30App    4.391090
      55Ap     4.439296    31App    4.450338    56Ap     4.533207
      57Ap     4.920007    58Ap     5.037162    32App    5.042142
      33App    5.198792    59Ap     5.207932    60Ap     5.470018
      34App    5.478328    61Ap     5.827193    35App    5.925210
      62Ap     6.100079    63Ap     6.770597    36App    6.772447
      37App    7.071480    64Ap     7.135330    65Ap     7.527647

    Beta Occupied:

       1Ap   -19.178642     2Ap   -10.261816     3Ap   -10.206886
       4Ap    -1.063378     5Ap    -0.751130     6Ap    -0.524464
       1App   -0.452124     7Ap    -0.447276     8Ap    -0.438444
       2App   -0.381270     9Ap    -0.346505

    Beta Virtual:

      10Ap    -0.053976     3App   -0.003463    11Ap     0.094493
      12Ap     0.142376     4App    0.144263    13Ap     0.229197
      14Ap     0.274140     5App    0.433455    15Ap     0.435188
      16Ap     0.466701     6App    0.500553    17Ap     0.527163
      18Ap     0.538815     7App    0.569019    19Ap     0.581899
       8App    0.623288    20Ap     0.625287    21Ap     0.649420
      22Ap     0.738175     9App    0.778495    23Ap     0.795637
      10App    0.832809    11App    0.922873    24Ap     0.947495
      25Ap     0.951270    12App    1.027395    26Ap     1.091001
      27Ap     1.109549    13App    1.161006    28Ap     1.231680
      29Ap     1.312666    14App    1.319612    30Ap     1.335668
      15App    1.412369    31Ap     1.415033    32Ap     1.480090
      33Ap     1.571235    34Ap     1.640263    16App    1.667140
      35Ap     1.725057    17App    1.816204    36Ap     1.850907
      37Ap     1.909094    18App    2.070023    38Ap     2.183925
      39Ap     2.504148    19App    2.694596    40Ap     2.759265
      41Ap     2.804895    20App    2.857029    21App    2.895766
      42Ap     2.980486    43Ap     3.050505    22App    3.068028
      23App    3.124787    44Ap     3.125071    45Ap     3.218707
      24App    3.359346    46Ap     3.381085    25App    3.398971
      26App    3.446466    27App    3.484686    47Ap     3.510184
      48Ap     3.585026    49Ap     3.761698    50Ap     3.771651
      51Ap     3.953149    28App    3.996862    52Ap     4.073738
      29App    4.122515    53Ap     4.128506    54Ap     4.202863
      30App    4.393316    55Ap     4.445621    31App    4.454535
      56Ap     4.544056    57Ap     4.923902    58Ap     5.054749
      32App    5.060295    33App    5.201005    59Ap     5.213682
      60Ap     5.482696    34App    5.492239    61Ap     5.840492
      35App    5.930806    62Ap     6.123423    63Ap     6.800088
      36App    6.802294    37App    7.075801    64Ap     7.164896
      65Ap     7.539379

    Final Occupation by Irrep:
             Ap   App
    DOCC [     9,    2 ]
    SOCC [     1,    0 ]

  @DF-UKS Final Energy:  -153.18836162993134

   => Energetics <=

    Nuclear Repulsion Energy =             62.8122229870618511
    One-Electron Energy =                -331.6286912521953809
    Two-Electron Energy =                 132.2078804635897029
    DFT Exchange-Correlation Energy =     -16.5797738283874949
    Empirical Dispersion Energy =           0.0000000000000000
    VV10 Nonlocal Energy =                  0.0000000000000000
    Total Energy =                       -153.1883616299313360

  UHF NO Occupations:
  HONO-2 :    8 Ap 1.9997886
  HONO-1 :    9 Ap 1.9991927
  HONO-0 :   10 Ap 1.0000000
  LUNO+0 :   11 Ap 0.0008073
  LUNO+1 :   12 Ap 0.0002114
  LUNO+2 :    3App 0.0001796
  LUNO+3 :   13 Ap 0.0000622

Computation Completed

Properties will be evaluated at   0.000000,   0.000000,   0.000000 [a0]

Properties computed using the SCF density matrix

  Nuclear Dipole Moment: [e a0]
     X:     4.5278      Y:    -0.6796      Z:     0.0000

  Electronic Dipole Moment: [e a0]
     X:    -3.5919      Y:     0.6321      Z:     0.0000

  Dipole Moment: [e a0]
     X:     0.9359      Y:    -0.0474      Z:     0.0000     Total:     0.9371

  Dipole Moment: [D]
     X:     2.3788      Y:    -0.1206      Z:     0.0000     Total:     2.3819

*** tstop() called on n067 at Tue Mar 15 10:32:57 2022
Module time:
	user time   =      53.44 seconds =       0.89 minutes
	system time =       0.55 seconds =       0.01 minutes
	total time  =         54 seconds =       0.90 minutes
Total time:
	user time   =      53.44 seconds =       0.89 minutes
	system time =       0.55 seconds =       0.01 minutes
	total time  =         54 seconds =       0.90 minutes
Grab this energy -153.18836162993134
    Psi4 stopped on: Tuesday, 15 March 2022 10:32AM
    Psi4 wall time for execution: 0:00:54.04

*** Psi4 exiting successfully. Buy a developer a beer!
