                               Psi4 1.4a2.dev629

  ==> Input File <==

--------------------------------------------------------------------------
import os
memory 14 GB

molecule {
 C   -0.2601144049    0.8038401897   -0.0000000004
 O   -2.1896249363   -0.3363454134    0.0000000101
 C    2.4085001512   -0.2424790691    0.0000000087
 H    2.3864894637   -2.3060162117    0.0000000257
 H    3.3906736602    0.4755674729   -1.6732968118
 H    3.3906740161    0.4755676516    1.6732965877
units bohr
0 2
}

basis {

assign 6-31g_2dfp_

[ 6-31g_2dfp_ ]

spherical

!----------------------------------------------------------------------
! Basis Set Exchange
! Version v0.8.13
! https://www.basissetexchange.org
!----------------------------------------------------------------------
!   Basis set: 6-31G(2df,p)
! Description: 6-31G(2df,p)
!        Role: orbital
!     Version: 0  (Data from the original Basis Set Exchange)
!----------------------------------------------------------------------

****
H     0
S    3   1.00
     18.7311370              0.03349460
      2.8253937              0.23472695
      0.6401217              0.81375733
S    1   1.00
      0.1612778              1.00000000
P    1   1.00
      1.5000000              1.0000000
P    1   1.00
      0.3750000              1.0000000
****
B     0
S    6   1.00
   2068.8823000              0.0018663
    310.6495700              0.0142515
     70.6830330              0.0695516
     19.8610800              0.2325729
      6.2993048              0.4670787
      2.1270270              0.3634314
SP   3   1.00
      4.7279710             -0.1303938              0.0745976
      1.1903377             -0.1307889              0.3078467
      0.3594117              1.1309444              0.7434568
SP   1   1.00
      0.1267512              1.0000000              1.0000000
D    1   1.00
      0.8020000              1.0000000
D    1   1.00
      0.2005000              1.0000000
F    1   1.00
      0.5000000              1.0000000
****
C     0
S    6   1.00
   3047.5249000              0.0018347
    457.3695100              0.0140373
    103.9486900              0.0688426
     29.2101550              0.2321844
      9.2866630              0.4679413
      3.1639270              0.3623120
SP   3   1.00
      7.8682724             -0.1193324              0.0689991
      1.8812885             -0.1608542              0.3164240
      0.5442493              1.1434564              0.7443083
SP   1   1.00
      0.1687144              1.0000000              1.0000000
D    1   1.00
      1.2520000              1.0000000
D    1   1.00
      0.3130000              1.0000000
F    1   1.00
      0.8000000              1.0000000
****
N     0
S    6   1.00
   4173.5110000              0.0018348
    627.4579000              0.0139950
    142.9021000              0.0685870
     40.2343300              0.2322410
     12.8202100              0.4690700
      4.3904370              0.3604550
SP   3   1.00
     11.6263580             -0.1149610              0.0675800
      2.7162800             -0.1691180              0.3239070
      0.7722180              1.1458520              0.7408950
SP   1   1.00
      0.2120313              1.0000000              1.0000000
D    1   1.00
      1.8260000              1.0000000
D    1   1.00
      0.4565000              1.0000000
F    1   1.00
      1.0000000              1.0000000
****
O     0
S    6   1.00
   5484.6717000              0.0018311
    825.2349500              0.0139501
    188.0469600              0.0684451
     52.9645000              0.2327143
     16.8975700              0.4701930
      5.7996353              0.3585209
SP   3   1.00
     15.5396160             -0.1107775              0.0708743
      3.5999336             -0.1480263              0.3397528
      1.0137618              1.1307670              0.7271586
SP   1   1.00
      0.2700058              1.0000000              1.0000000
D    1   1.00
      2.5840000              1.0000000
D    1   1.00
      0.6460000              1.0000000
F    1   1.00
      1.4000000              1.0000000
****
F     0
S    6   1.00
   7001.7130900              0.0018196169
   1051.3660900              0.0139160796
    239.2856900              0.0684053245
     67.3974453              0.233185760
     21.5199573              0.471267439
      7.40310130             0.356618546
SP   3   1.00
     20.8479528             -0.108506975            0.0716287243
      4.80830834            -0.146451658            0.3459121030
      1.34406986             1.128688580            0.7224699570
SP   1   1.00
      0.358151393            1.0000000              1.0000000
D    1   1.00
      3.5000000              1.0000000
D    1   1.00
      0.8750000              1.0000000
F    1   1.00
      1.8500000              1.0000000
****
Al     0
S    6   1.00
  13983.1000000              0.00194267
   2098.7500000              0.0148599
    477.7050000              0.0728494
    134.3600000              0.2468300
     42.8709000              0.4872580
     14.5189000              0.3234960
SP   6   1.00
    239.6680000             -0.00292619             0.00460285
     57.4419000             -0.0374080              0.0331990
     18.2859000             -0.1144870              0.1362820
      6.5991400              0.1156350              0.3304760
      2.4904900              0.6125950              0.4491460
      0.9445400              0.3937990              0.2657040
SP   3   1.00
      1.2779000             -0.2276060             -0.0175130
      0.3975900              0.00144583             0.2445330
      0.1600950              1.0927900              0.8049340
SP   1   1.00
      0.0556577              1.0000000              1.0000000
D    1   1.00
      0.6500000              1.0000000
D    1   1.00
      0.1625000              1.0000000
F    1   1.00
      0.2500000              1.0000000
****
Si     0
S    6   1.00
  16115.9000000              0.00195948
   2425.5800000              0.01492880
    553.8670000              0.07284780
    156.3400000              0.24613000
     50.0683000              0.48591400
     17.0178000              0.32500200
SP   6   1.00
    292.7180000             -0.00278094             0.00443826
     69.8731000             -0.03571460             0.03266790
     22.3363000             -0.11498500             0.13472100
      8.1503900              0.09356340             0.32867800
      3.1345800              0.60301700             0.44964000
      1.2254300              0.41895900             0.26137200
SP   3   1.00
      1.7273800             -0.24463000            -0.01779510
      0.5729220              0.00431572             0.25353900
      0.2221920              1.09818000             0.80066900
SP   1   1.00
      0.0778369              1.00000000             1.00000000
D    1   1.00
      0.9000000              1.0000000
D    1   1.00
      0.2250000              1.0000000
F    1   1.00
      0.3200000              1.0000000
****
P     0
S    6   1.00
  19413.3000000              0.0018516
   2909.4200000              0.0142062
    661.3640000              0.0699995
    185.7590000              0.2400790
     59.1943000              0.4847620
     20.0310000              0.3352000
SP   6   1.00
    339.4780000             -0.00278217             0.00456462
     81.0101000             -0.0360499              0.03369360
     25.8780000             -0.1166310              0.13975500
      9.4522100              0.0968328              0.33936200
      3.6656600              0.6144180              0.45092100
      1.4674600              0.4037980              0.23858600
SP   3   1.00
      2.1562300             -0.2529230             -0.01776530
      0.7489970              0.0328517              0.27405800
      0.2831450              1.0812500              0.78542100
SP   1   1.00
      0.0998317              1.0000000              1.00000000
D    1   1.00
      1.1000000              1.0000000
D    1   1.00
      0.2750000              1.0000000
F    1   1.00
      0.4500000              1.0000000
****
S     0
S    6   1.00
  21917.1000000              0.0018690
   3301.4900000              0.0142300
    754.1460000              0.0696960
    212.7110000              0.2384870
     67.9896000              0.4833070
     23.0515000              0.3380740
SP   6   1.00
    423.7350000             -0.0023767              0.0040610
    100.7100000             -0.0316930              0.0306810
     32.1599000             -0.1133170              0.1304520
     11.8079000              0.0560900              0.3272050
      4.6311000              0.5922550              0.4528510
      1.8702500              0.4550060              0.2560420
SP   3   1.00
      2.6158400             -0.2503740             -0.0145110
      0.9221670              0.0669570              0.3102630
      0.3412870              1.0545100              0.7544830
SP   1   1.00
      0.1171670              1.0000000              1.0000000
D    1   1.00
      1.3000000              1.0000000
D    1   1.00
      0.3250000              1.0000000
F    1   1.00
      0.5500000              1.0000000
****
Cl     0
S    6   1.00
  25180.1000000              0.0018330
   3780.3500000              0.0140340
    860.4740000              0.0690970
    242.1450000              0.2374520
     77.3349000              0.4830340
     26.2470000              0.3398560
SP   6   1.00
    491.7650000             -0.0022974              0.0039894
    116.9840000             -0.0307140              0.0303180
     37.4153000             -0.1125280              0.1298800
     13.7834000              0.0450160              0.3279510
      5.4521500              0.5893530              0.4535270
      2.2258800              0.4652060              0.2521540
SP   3   1.00
      3.1864900             -0.2518300             -0.0142990
      1.1442700              0.0615890              0.3235720
      0.4203770              1.0601800              0.7435070
SP   1   1.00
      0.1426570              1.0000000              1.0000000
D    1   1.00
      1.5000000              1.0000000
D    1   1.00
      0.3750000              1.0000000
F    1   1.00
      0.7000000              1.0000000
****
}

set {
reference uhf
freeze_core true
e_convergence 10
d_convergence 10
dft_spherical_points 1202
dft_radial_points 99
}

e = energy('b3lyp')

print_out('Grab this energy {0}'.format(e))
--------------------------------------------------------------------------

    Molecular point group: c1

    Geometry (in Bohr), charge = 0, multiplicity = 2:

       Center              X                  Y                   Z               Mass
    ------------   -----------------  -----------------  -----------------  -----------------
         C           -0.260052589748     0.804048607501    -0.000000001823    12.000000000000
         O           -2.189563121148    -0.336136995599     0.000000008677    15.994914619570
         C            2.408561966352    -0.242270651299     0.000000007277    12.000000000000
         H            2.386551278852    -2.305807793899     0.000000024277     1.007825032230
         H            3.390735475352     0.475775890701    -1.673296813223     1.007825032230
         H            3.390735831252     0.475776069401     1.673296586277     1.007825032230

  Charge       = 0
  Multiplicity = 2
  Basis Set: ANONYMOUSA1876BDB
    Blend: 6-31G_2DFP_
  Basis Set: (ANONYMOUSA1876BDB AUX)
    Blend: DEF2-UNIVERSAL-JKFIT

    Orbital Energies [Eh]
    ---------------------

    Alpha Occupied:

       1A    -19.186852     2A    -10.271415     3A    -10.211204
       4A     -1.081646     5A     -0.761431     6A     -0.543639
       7A     -0.466277     8A     -0.457552     9A     -0.455944
      10A     -0.387384    11A     -0.385800    12A     -0.192020

    Alpha Virtual:

      13A     -0.018749    14A      0.090953    15A      0.136686
      16A      0.140136    17A      0.218198    18A      0.268418
      19A      0.427891    20A      0.431973    21A      0.443503
      22A      0.492969    23A      0.506205    24A      0.529729
      25A      0.562039    26A      0.576080    27A      0.608745
      28A      0.614961    29A      0.643787    30A      0.717423
      31A      0.765911    32A      0.785416    33A      0.830517
      34A      0.916998    35A      0.926678    36A      0.935603
      37A      1.022726    38A      1.086020    39A      1.105515
      40A      1.152764    41A      1.221762    42A      1.306427
      43A      1.315444    44A      1.327458    45A      1.401909
      46A      1.405629    47A      1.467377    48A      1.559805
      49A      1.629768    50A      1.653785    51A      1.716425
      52A      1.809903    53A      1.834354    54A      1.899556
      55A      2.064223    56A      2.166537    57A      2.496387
      58A      2.679560    59A      2.744138    60A      2.782588
      61A      2.838296    62A      2.893571    63A      2.973467
      64A      3.032072    65A      3.059427    66A      3.104770
      67A      3.114740    68A      3.181836    69A      3.314578
      70A      3.370335    71A      3.396222    72A      3.441264
      73A      3.465631    74A      3.485775    75A      3.569241
      76A      3.740379    77A      3.762833    78A      3.939286
      79A      3.980721    80A      4.055061    81A      4.106044
      82A      4.114734    83A      4.185500    84A      4.383332
      85A      4.433326    86A      4.442573    87A      4.529816
      88A      4.915636    89A      5.036781    90A      5.042222
      91A      5.185048    92A      5.203242    93A      5.474716
      94A      5.482259    95A      5.826439    96A      5.931359
      97A      6.105216    98A      6.770770    99A      6.772942
     100A      7.070958   101A      7.135230   102A      7.530435

    Beta Occupied:

       1A    -19.178783     2A    -10.261356     3A    -10.207825
       4A     -1.065722     5A     -0.749573     6A     -0.523941
       7A     -0.451365     8A     -0.446735     9A     -0.438746
      10A     -0.382248    11A     -0.347808

    Beta Virtual:

      12A     -0.052535    13A     -0.002499    14A      0.093604
      15A      0.142464    16A      0.143299    17A      0.228588
      18A      0.274099    19A      0.433935    20A      0.434901
      21A      0.465745    22A      0.499633    23A      0.527485
      24A      0.538536    25A      0.568290    26A      0.580293
      27A      0.622287    28A      0.627332    29A      0.649620
      30A      0.739441    31A      0.777033    32A      0.795380
      33A      0.831292    34A      0.921856    35A      0.943209
      36A      0.950769    37A      1.026925    38A      1.092112
      39A      1.107645    40A      1.158984    41A      1.230997
      42A      1.311850    43A      1.318252    44A      1.334289
      45A      1.411136    46A      1.412275    47A      1.479765
      48A      1.570928    49A      1.643013    50A      1.668197
      51A      1.722590    52A      1.813044    53A      1.848634
      54A      1.906315    55A      2.070923    56A      2.187952
      57A      2.509056    58A      2.693820    59A      2.758647
      60A      2.803636    61A      2.853487    62A      2.895214
      63A      2.983019    64A      3.048776    65A      3.068222
      66A      3.123142    67A      3.123552    68A      3.216583
      69A      3.358209    70A      3.381780    71A      3.402416
      72A      3.449159    73A      3.481676    74A      3.508564
      75A      3.582783    76A      3.765968    77A      3.772114
      78A      3.948112    79A      3.989972    80A      4.071352
      81A      4.117511    82A      4.119624    83A      4.198298
      84A      4.385601    85A      4.439577    86A      4.446775
      87A      4.540804    88A      4.919452    89A      5.054293
      90A      5.060243    91A      5.187121    92A      5.209055
      93A      5.487357    94A      5.496239    95A      5.839689
      96A      5.936951    97A      6.128423    98A      6.800070
      99A      6.802582   100A      7.075260   101A      7.164614
     102A      7.542100

    Final Occupation by Irrep:
              A
    DOCC [    11 ]
    SOCC [     1 ]

  @DF-UKS Final Energy:  -153.18844575344980

   => Energetics <=

    Nuclear Repulsion Energy =             62.7816168490855233
    One-Electron Energy =                -331.5661379601492627
    Two-Electron Energy =                 132.1745296013582163
    DFT Exchange-Correlation Energy =     -16.5784542437442752
    Empirical Dispersion Energy =           0.0000000000000000
    VV10 Nonlocal Energy =                  0.0000000000000000
    Total Energy =                       -153.1884457534497983

  UHF NO Occupations:
  HONO-2 :   10  A 1.9997850
  HONO-1 :   11  A 1.9992019
  HONO-0 :   12  A 1.0000000
  LUNO+0 :   13  A 0.0007981
  LUNO+1 :   14  A 0.0002150
  LUNO+2 :   15  A 0.0001796
  LUNO+3 :   16  A 0.0000615

Computation Completed

Properties will be evaluated at   0.000000,   0.000000,   0.000000 [a0]

Properties computed using the SCF density matrix

  Nuclear Dipole Moment: [e a0]
     X:     4.5426      Y:    -0.6727      Z:    -0.0000

  Electronic Dipole Moment: [e a0]
     X:    -3.6129      Y:     0.6232      Z:     0.0000

  Dipole Moment: [e a0]
     X:     0.9296      Y:    -0.0495      Z:    -0.0000     Total:     0.9310

  Dipole Moment: [D]
     X:     2.3629      Y:    -0.1258      Z:    -0.0000     Total:     2.3663

*** tstop() called on n061 at Thu Nov  4 14:57:09 2021
Module time:
	user time   =      50.70 seconds =       0.85 minutes
	system time =       0.53 seconds =       0.01 minutes
	total time  =         52 seconds =       0.87 minutes
Total time:
	user time   =      50.70 seconds =       0.85 minutes
	system time =       0.53 seconds =       0.01 minutes
	total time  =         52 seconds =       0.87 minutes
Grab this energy -153.1884457534498
    Psi4 stopped on: Thursday, 04 November 2021 02:57PM
    Psi4 wall time for execution: 0:00:51.27

*** Psi4 exiting successfully. Buy a developer a beer!
