                               Psi4 1.4a2.dev629

  ==> Input File <==

--------------------------------------------------------------------------
import os
memory 14 GB

molecule {
 C   -0.2648495003    0.8021439215   -0.0041326974
 O   -2.1875938737   -0.3346795553    0.0028051432
 C    2.4099551161   -0.2421629567   -0.0012583853
 H    2.3867942775   -2.3043398147    0.0004414356
 H    3.3910793683    0.4757770964   -1.6628442160
 H    3.3912125621    0.4733959289    1.6649885399
units bohr
0 2
}

basis {

assign 6-31g_2dfp_

[ 6-31g_2dfp_ ]

spherical

!----------------------------------------------------------------------
! Basis Set Exchange
! Version v0.8.13
! https://www.basissetexchange.org
!----------------------------------------------------------------------
!   Basis set: 6-31G(2df,p)
! Description: 6-31G(2df,p)
!        Role: orbital
!     Version: 0  (Data from the original Basis Set Exchange)
!----------------------------------------------------------------------

****
H     0
S    3   1.00
     18.7311370              0.03349460
      2.8253937              0.23472695
      0.6401217              0.81375733
S    1   1.00
      0.1612778              1.00000000
P    1   1.00
      1.5000000              1.0000000
P    1   1.00
      0.3750000              1.0000000
****
B     0
S    6   1.00
   2068.8823000              0.0018663
    310.6495700              0.0142515
     70.6830330              0.0695516
     19.8610800              0.2325729
      6.2993048              0.4670787
      2.1270270              0.3634314
SP   3   1.00
      4.7279710             -0.1303938              0.0745976
      1.1903377             -0.1307889              0.3078467
      0.3594117              1.1309444              0.7434568
SP   1   1.00
      0.1267512              1.0000000              1.0000000
D    1   1.00
      0.8020000              1.0000000
D    1   1.00
      0.2005000              1.0000000
F    1   1.00
      0.5000000              1.0000000
****
C     0
S    6   1.00
   3047.5249000              0.0018347
    457.3695100              0.0140373
    103.9486900              0.0688426
     29.2101550              0.2321844
      9.2866630              0.4679413
      3.1639270              0.3623120
SP   3   1.00
      7.8682724             -0.1193324              0.0689991
      1.8812885             -0.1608542              0.3164240
      0.5442493              1.1434564              0.7443083
SP   1   1.00
      0.1687144              1.0000000              1.0000000
D    1   1.00
      1.2520000              1.0000000
D    1   1.00
      0.3130000              1.0000000
F    1   1.00
      0.8000000              1.0000000
****
N     0
S    6   1.00
   4173.5110000              0.0018348
    627.4579000              0.0139950
    142.9021000              0.0685870
     40.2343300              0.2322410
     12.8202100              0.4690700
      4.3904370              0.3604550
SP   3   1.00
     11.6263580             -0.1149610              0.0675800
      2.7162800             -0.1691180              0.3239070
      0.7722180              1.1458520              0.7408950
SP   1   1.00
      0.2120313              1.0000000              1.0000000
D    1   1.00
      1.8260000              1.0000000
D    1   1.00
      0.4565000              1.0000000
F    1   1.00
      1.0000000              1.0000000
****
O     0
S    6   1.00
   5484.6717000              0.0018311
    825.2349500              0.0139501
    188.0469600              0.0684451
     52.9645000              0.2327143
     16.8975700              0.4701930
      5.7996353              0.3585209
SP   3   1.00
     15.5396160             -0.1107775              0.0708743
      3.5999336             -0.1480263              0.3397528
      1.0137618              1.1307670              0.7271586
SP   1   1.00
      0.2700058              1.0000000              1.0000000
D    1   1.00
      2.5840000              1.0000000
D    1   1.00
      0.6460000              1.0000000
F    1   1.00
      1.4000000              1.0000000
****
F     0
S    6   1.00
   7001.7130900              0.0018196169
   1051.3660900              0.0139160796
    239.2856900              0.0684053245
     67.3974453              0.233185760
     21.5199573              0.471267439
      7.40310130             0.356618546
SP   3   1.00
     20.8479528             -0.108506975            0.0716287243
      4.80830834            -0.146451658            0.3459121030
      1.34406986             1.128688580            0.7224699570
SP   1   1.00
      0.358151393            1.0000000              1.0000000
D    1   1.00
      3.5000000              1.0000000
D    1   1.00
      0.8750000              1.0000000
F    1   1.00
      1.8500000              1.0000000
****
Al     0
S    6   1.00
  13983.1000000              0.00194267
   2098.7500000              0.0148599
    477.7050000              0.0728494
    134.3600000              0.2468300
     42.8709000              0.4872580
     14.5189000              0.3234960
SP   6   1.00
    239.6680000             -0.00292619             0.00460285
     57.4419000             -0.0374080              0.0331990
     18.2859000             -0.1144870              0.1362820
      6.5991400              0.1156350              0.3304760
      2.4904900              0.6125950              0.4491460
      0.9445400              0.3937990              0.2657040
SP   3   1.00
      1.2779000             -0.2276060             -0.0175130
      0.3975900              0.00144583             0.2445330
      0.1600950              1.0927900              0.8049340
SP   1   1.00
      0.0556577              1.0000000              1.0000000
D    1   1.00
      0.6500000              1.0000000
D    1   1.00
      0.1625000              1.0000000
F    1   1.00
      0.2500000              1.0000000
****
Si     0
S    6   1.00
  16115.9000000              0.00195948
   2425.5800000              0.01492880
    553.8670000              0.07284780
    156.3400000              0.24613000
     50.0683000              0.48591400
     17.0178000              0.32500200
SP   6   1.00
    292.7180000             -0.00278094             0.00443826
     69.8731000             -0.03571460             0.03266790
     22.3363000             -0.11498500             0.13472100
      8.1503900              0.09356340             0.32867800
      3.1345800              0.60301700             0.44964000
      1.2254300              0.41895900             0.26137200
SP   3   1.00
      1.7273800             -0.24463000            -0.01779510
      0.5729220              0.00431572             0.25353900
      0.2221920              1.09818000             0.80066900
SP   1   1.00
      0.0778369              1.00000000             1.00000000
D    1   1.00
      0.9000000              1.0000000
D    1   1.00
      0.2250000              1.0000000
F    1   1.00
      0.3200000              1.0000000
****
P     0
S    6   1.00
  19413.3000000              0.0018516
   2909.4200000              0.0142062
    661.3640000              0.0699995
    185.7590000              0.2400790
     59.1943000              0.4847620
     20.0310000              0.3352000
SP   6   1.00
    339.4780000             -0.00278217             0.00456462
     81.0101000             -0.0360499              0.03369360
     25.8780000             -0.1166310              0.13975500
      9.4522100              0.0968328              0.33936200
      3.6656600              0.6144180              0.45092100
      1.4674600              0.4037980              0.23858600
SP   3   1.00
      2.1562300             -0.2529230             -0.01776530
      0.7489970              0.0328517              0.27405800
      0.2831450              1.0812500              0.78542100
SP   1   1.00
      0.0998317              1.0000000              1.00000000
D    1   1.00
      1.1000000              1.0000000
D    1   1.00
      0.2750000              1.0000000
F    1   1.00
      0.4500000              1.0000000
****
S     0
S    6   1.00
  21917.1000000              0.0018690
   3301.4900000              0.0142300
    754.1460000              0.0696960
    212.7110000              0.2384870
     67.9896000              0.4833070
     23.0515000              0.3380740
SP   6   1.00
    423.7350000             -0.0023767              0.0040610
    100.7100000             -0.0316930              0.0306810
     32.1599000             -0.1133170              0.1304520
     11.8079000              0.0560900              0.3272050
      4.6311000              0.5922550              0.4528510
      1.8702500              0.4550060              0.2560420
SP   3   1.00
      2.6158400             -0.2503740             -0.0145110
      0.9221670              0.0669570              0.3102630
      0.3412870              1.0545100              0.7544830
SP   1   1.00
      0.1171670              1.0000000              1.0000000
D    1   1.00
      1.3000000              1.0000000
D    1   1.00
      0.3250000              1.0000000
F    1   1.00
      0.5500000              1.0000000
****
Cl     0
S    6   1.00
  25180.1000000              0.0018330
   3780.3500000              0.0140340
    860.4740000              0.0690970
    242.1450000              0.2374520
     77.3349000              0.4830340
     26.2470000              0.3398560
SP   6   1.00
    491.7650000             -0.0022974              0.0039894
    116.9840000             -0.0307140              0.0303180
     37.4153000             -0.1125280              0.1298800
     13.7834000              0.0450160              0.3279510
      5.4521500              0.5893530              0.4535270
      2.2258800              0.4652060              0.2521540
SP   3   1.00
      3.1864900             -0.2518300             -0.0142990
      1.1442700              0.0615890              0.3235720
      0.4203770              1.0601800              0.7435070
SP   1   1.00
      0.1426570              1.0000000              1.0000000
D    1   1.00
      1.5000000              1.0000000
D    1   1.00
      0.3750000              1.0000000
F    1   1.00
      0.7000000              1.0000000
****
}

set {
reference uhf
freeze_core true
e_convergence 10
d_convergence 10
dft_spherical_points 1202
dft_radial_points 99
}

e = energy('b3lyp')

print_out('Grab this energy {0}'.format(e))
--------------------------------------------------------------------------

    Molecular point group: c1

    Geometry (in Bohr), charge = 0, multiplicity = 2:

       Center              X                  Y                   Z               Mass
    ------------   -----------------  -----------------  -----------------  -----------------
         C           -0.264657135137     0.802124635505    -0.003732427344    12.000000000000
         O           -2.187401508537    -0.334698841295     0.003205413256    15.994914619570
         C            2.410147481263    -0.242182242695    -0.000858115244    12.000000000000
         H            2.386986642663    -2.304359100695     0.000841705656     1.007825032230
         H            3.391271733463     0.475757810405    -1.662443945944     1.007825032230
         H            3.391404927263     0.473376642905     1.665388809956     1.007825032230

  Charge       = 0
  Multiplicity = 2
  Basis Set: ANONYMOUSFAD1E047
    Blend: 6-31G_2DFP_
  Basis Set: (ANONYMOUSFAD1E047 AUX)
    Blend: DEF2-UNIVERSAL-JKFIT

    Orbital Energies [Eh]
    ---------------------

    Alpha Occupied:

       1A    -19.186919     2A    -10.270843     3A    -10.210097
       4A     -1.083894     5A     -0.761291     6A     -0.543646
       7A     -0.467173     8A     -0.457630     9A     -0.456264
      10A     -0.388575    11A     -0.386888    12A     -0.191021

    Alpha Virtual:

      13A     -0.017571    14A      0.091930    15A      0.137345
      16A      0.141414    17A      0.217852    18A      0.268413
      19A      0.428214    20A      0.432110    21A      0.443660
      22A      0.493518    23A      0.506313    24A      0.530675
      25A      0.562931    26A      0.577662    27A      0.611168
      28A      0.615757    29A      0.644548    30A      0.718604
      31A      0.766467    32A      0.785660    33A      0.832536
      34A      0.916270    35A      0.926040    36A      0.935293
      37A      1.023523    38A      1.085893    39A      1.108528
      40A      1.153209    41A      1.221435    42A      1.306212
      43A      1.316642    44A      1.327395    45A      1.403963
      46A      1.407769    47A      1.468719    48A      1.559643
      49A      1.632664    50A      1.655316    51A      1.721483
      52A      1.813924    53A      1.835119    54A      1.901661
      55A      2.066695    56A      2.167816    57A      2.502208
      58A      2.680095    59A      2.744023    60A      2.784067
      61A      2.843199    62A      2.894860    63A      2.974085
      64A      3.031956    65A      3.059262    66A      3.104175
      67A      3.114880    68A      3.182177    69A      3.313935
      70A      3.371958    71A      3.393391    72A      3.441035
      73A      3.465945    74A      3.486976    75A      3.570126
      76A      3.745108    77A      3.761761    78A      3.942902
      79A      3.979830    80A      4.057280    81A      4.109227
      82A      4.120105    83A      4.190452    84A      4.388141
      85A      4.432764    86A      4.448908    87A      4.532111
      88A      4.918855    89A      5.037123    90A      5.042553
      91A      5.198494    92A      5.208027    93A      5.480103
      94A      5.488755    95A      5.825050    96A      5.937548
      97A      6.109595    98A      6.771083    99A      6.773401
     100A      7.070076   101A      7.135290   102A      7.533108

    Beta Occupied:

       1A    -19.178877     2A    -10.260811     3A    -10.206676
       4A     -1.068071     5A     -0.749467     6A     -0.523998
       7A     -0.451654     8A     -0.446669     9A     -0.439622
      10A     -0.383473    11A     -0.349048

    Beta Virtual:

      12A     -0.051681    13A     -0.001324    14A      0.094659
      15A      0.143021    16A      0.144568    17A      0.228402
      18A      0.274016    19A      0.434081    20A      0.435539
      21A      0.465588    22A      0.500217    23A      0.527862
      24A      0.539515    25A      0.569334    26A      0.581834
      27A      0.622967    28A      0.629260    29A      0.650644
      30A      0.740847    31A      0.777530    32A      0.795520
      33A      0.833316    34A      0.921123    35A      0.942747
      36A      0.950175    37A      1.027731    38A      1.092036
      39A      1.110575    40A      1.159416    41A      1.230756
      42A      1.311781    43A      1.319467    44A      1.334174
      45A      1.413318    46A      1.414347    47A      1.481037
      48A      1.570650    49A      1.646113    50A      1.669689
      51A      1.727690    52A      1.817101    53A      1.849318
      54A      1.908345    55A      2.073391    56A      2.189158
      57A      2.514920    58A      2.694367    59A      2.758528
      60A      2.805138    61A      2.858568    62A      2.896513
      63A      2.983619    64A      3.048828    65A      3.067859
      66A      3.122811    67A      3.123505    68A      3.216882
      69A      3.357322    70A      3.383430    71A      3.399759
      72A      3.450206    73A      3.480729    74A      3.509914
      75A      3.583477    76A      3.770794    77A      3.771229
      78A      3.951602    79A      3.989174    80A      4.073682
      81A      4.122903    82A      4.123992    83A      4.202006
      84A      4.390412    85A      4.438908    86A      4.453101
      87A      4.543018    88A      4.922727    89A      5.054588
      90A      5.060511    91A      5.200631    92A      5.213751
      93A      5.492674    94A      5.502661    95A      5.838275
      96A      5.943131    97A      6.132734    98A      6.800289
      99A      6.802943   100A      7.074356   101A      7.164563
     102A      7.544724

    Final Occupation by Irrep:
              A
    DOCC [    11 ]
    SOCC [     1 ]

  @DF-UKS Final Energy:  -153.18844973566385

   => Energetics <=

    Nuclear Repulsion Energy =             62.8635651202136643
    One-Electron Energy =                -331.7194120988693840
    Two-Electron Energy =                 132.2506000731391396
    DFT Exchange-Correlation Energy =     -16.5832028301472647
    Empirical Dispersion Energy =           0.0000000000000000
    VV10 Nonlocal Energy =                  0.0000000000000000
    Total Energy =                       -153.1884497356638519

  UHF NO Occupations:
  HONO-2 :   10  A 1.9997809
  HONO-1 :   11  A 1.9992098
  HONO-0 :   12  A 1.0000000
  LUNO+0 :   13  A 0.0007902
  LUNO+1 :   14  A 0.0002191
  LUNO+2 :   15  A 0.0001777
  LUNO+3 :   16  A 0.0000611

Computation Completed

Properties will be evaluated at   0.000000,   0.000000,   0.000000 [a0]

Properties computed using the SCF density matrix

  Nuclear Dipole Moment: [e a0]
     X:     4.5434      Y:    -0.6732      Z:     0.0019

  Electronic Dipole Moment: [e a0]
     X:    -3.6205      Y:     0.6233      Z:    -0.0019

  Dipole Moment: [e a0]
     X:     0.9229      Y:    -0.0499      Z:     0.0000     Total:     0.9243

  Dipole Moment: [D]
     X:     2.3459      Y:    -0.1268      Z:     0.0000     Total:     2.3493

*** tstop() called on n044 at Thu Nov  4 14:52:22 2021
Module time:
	user time   =      62.87 seconds =       1.05 minutes
	system time =       0.43 seconds =       0.01 minutes
	total time  =         64 seconds =       1.07 minutes
Total time:
	user time   =      62.87 seconds =       1.05 minutes
	system time =       0.43 seconds =       0.01 minutes
	total time  =         64 seconds =       1.07 minutes
Grab this energy -153.18844973566385
    Psi4 stopped on: Thursday, 04 November 2021 02:52PM
    Psi4 wall time for execution: 0:01:03.34

*** Psi4 exiting successfully. Buy a developer a beer!
