                               Psi4 1.4a2.dev629

  ==> Input File <==

--------------------------------------------------------------------------
import os
memory 14 GB

molecule {
 C   -0.2555835127    0.8051882409   -0.0000000005
 O   -2.1936660474   -0.3384869063    0.0000000102
 C    2.4107041198   -0.2379894050    0.0000000112
 H    2.3868199147   -2.3056616154    0.0000000294
 H    3.3891615627    0.4735420678   -1.6647859688
 H    3.3891619129    0.4735422380    1.6647857386
units bohr
0 2
}

basis {

assign 6-31g_2dfp_

[ 6-31g_2dfp_ ]

spherical

!----------------------------------------------------------------------
! Basis Set Exchange
! Version v0.8.13
! https://www.basissetexchange.org
!----------------------------------------------------------------------
!   Basis set: 6-31G(2df,p)
! Description: 6-31G(2df,p)
!        Role: orbital
!     Version: 0  (Data from the original Basis Set Exchange)
!----------------------------------------------------------------------

****
H     0
S    3   1.00
     18.7311370              0.03349460
      2.8253937              0.23472695
      0.6401217              0.81375733
S    1   1.00
      0.1612778              1.00000000
P    1   1.00
      1.5000000              1.0000000
P    1   1.00
      0.3750000              1.0000000
****
B     0
S    6   1.00
   2068.8823000              0.0018663
    310.6495700              0.0142515
     70.6830330              0.0695516
     19.8610800              0.2325729
      6.2993048              0.4670787
      2.1270270              0.3634314
SP   3   1.00
      4.7279710             -0.1303938              0.0745976
      1.1903377             -0.1307889              0.3078467
      0.3594117              1.1309444              0.7434568
SP   1   1.00
      0.1267512              1.0000000              1.0000000
D    1   1.00
      0.8020000              1.0000000
D    1   1.00
      0.2005000              1.0000000
F    1   1.00
      0.5000000              1.0000000
****
C     0
S    6   1.00
   3047.5249000              0.0018347
    457.3695100              0.0140373
    103.9486900              0.0688426
     29.2101550              0.2321844
      9.2866630              0.4679413
      3.1639270              0.3623120
SP   3   1.00
      7.8682724             -0.1193324              0.0689991
      1.8812885             -0.1608542              0.3164240
      0.5442493              1.1434564              0.7443083
SP   1   1.00
      0.1687144              1.0000000              1.0000000
D    1   1.00
      1.2520000              1.0000000
D    1   1.00
      0.3130000              1.0000000
F    1   1.00
      0.8000000              1.0000000
****
N     0
S    6   1.00
   4173.5110000              0.0018348
    627.4579000              0.0139950
    142.9021000              0.0685870
     40.2343300              0.2322410
     12.8202100              0.4690700
      4.3904370              0.3604550
SP   3   1.00
     11.6263580             -0.1149610              0.0675800
      2.7162800             -0.1691180              0.3239070
      0.7722180              1.1458520              0.7408950
SP   1   1.00
      0.2120313              1.0000000              1.0000000
D    1   1.00
      1.8260000              1.0000000
D    1   1.00
      0.4565000              1.0000000
F    1   1.00
      1.0000000              1.0000000
****
O     0
S    6   1.00
   5484.6717000              0.0018311
    825.2349500              0.0139501
    188.0469600              0.0684451
     52.9645000              0.2327143
     16.8975700              0.4701930
      5.7996353              0.3585209
SP   3   1.00
     15.5396160             -0.1107775              0.0708743
      3.5999336             -0.1480263              0.3397528
      1.0137618              1.1307670              0.7271586
SP   1   1.00
      0.2700058              1.0000000              1.0000000
D    1   1.00
      2.5840000              1.0000000
D    1   1.00
      0.6460000              1.0000000
F    1   1.00
      1.4000000              1.0000000
****
F     0
S    6   1.00
   7001.7130900              0.0018196169
   1051.3660900              0.0139160796
    239.2856900              0.0684053245
     67.3974453              0.233185760
     21.5199573              0.471267439
      7.40310130             0.356618546
SP   3   1.00
     20.8479528             -0.108506975            0.0716287243
      4.80830834            -0.146451658            0.3459121030
      1.34406986             1.128688580            0.7224699570
SP   1   1.00
      0.358151393            1.0000000              1.0000000
D    1   1.00
      3.5000000              1.0000000
D    1   1.00
      0.8750000              1.0000000
F    1   1.00
      1.8500000              1.0000000
****
Al     0
S    6   1.00
  13983.1000000              0.00194267
   2098.7500000              0.0148599
    477.7050000              0.0728494
    134.3600000              0.2468300
     42.8709000              0.4872580
     14.5189000              0.3234960
SP   6   1.00
    239.6680000             -0.00292619             0.00460285
     57.4419000             -0.0374080              0.0331990
     18.2859000             -0.1144870              0.1362820
      6.5991400              0.1156350              0.3304760
      2.4904900              0.6125950              0.4491460
      0.9445400              0.3937990              0.2657040
SP   3   1.00
      1.2779000             -0.2276060             -0.0175130
      0.3975900              0.00144583             0.2445330
      0.1600950              1.0927900              0.8049340
SP   1   1.00
      0.0556577              1.0000000              1.0000000
D    1   1.00
      0.6500000              1.0000000
D    1   1.00
      0.1625000              1.0000000
F    1   1.00
      0.2500000              1.0000000
****
Si     0
S    6   1.00
  16115.9000000              0.00195948
   2425.5800000              0.01492880
    553.8670000              0.07284780
    156.3400000              0.24613000
     50.0683000              0.48591400
     17.0178000              0.32500200
SP   6   1.00
    292.7180000             -0.00278094             0.00443826
     69.8731000             -0.03571460             0.03266790
     22.3363000             -0.11498500             0.13472100
      8.1503900              0.09356340             0.32867800
      3.1345800              0.60301700             0.44964000
      1.2254300              0.41895900             0.26137200
SP   3   1.00
      1.7273800             -0.24463000            -0.01779510
      0.5729220              0.00431572             0.25353900
      0.2221920              1.09818000             0.80066900
SP   1   1.00
      0.0778369              1.00000000             1.00000000
D    1   1.00
      0.9000000              1.0000000
D    1   1.00
      0.2250000              1.0000000
F    1   1.00
      0.3200000              1.0000000
****
P     0
S    6   1.00
  19413.3000000              0.0018516
   2909.4200000              0.0142062
    661.3640000              0.0699995
    185.7590000              0.2400790
     59.1943000              0.4847620
     20.0310000              0.3352000
SP   6   1.00
    339.4780000             -0.00278217             0.00456462
     81.0101000             -0.0360499              0.03369360
     25.8780000             -0.1166310              0.13975500
      9.4522100              0.0968328              0.33936200
      3.6656600              0.6144180              0.45092100
      1.4674600              0.4037980              0.23858600
SP   3   1.00
      2.1562300             -0.2529230             -0.01776530
      0.7489970              0.0328517              0.27405800
      0.2831450              1.0812500              0.78542100
SP   1   1.00
      0.0998317              1.0000000              1.00000000
D    1   1.00
      1.1000000              1.0000000
D    1   1.00
      0.2750000              1.0000000
F    1   1.00
      0.4500000              1.0000000
****
S     0
S    6   1.00
  21917.1000000              0.0018690
   3301.4900000              0.0142300
    754.1460000              0.0696960
    212.7110000              0.2384870
     67.9896000              0.4833070
     23.0515000              0.3380740
SP   6   1.00
    423.7350000             -0.0023767              0.0040610
    100.7100000             -0.0316930              0.0306810
     32.1599000             -0.1133170              0.1304520
     11.8079000              0.0560900              0.3272050
      4.6311000              0.5922550              0.4528510
      1.8702500              0.4550060              0.2560420
SP   3   1.00
      2.6158400             -0.2503740             -0.0145110
      0.9221670              0.0669570              0.3102630
      0.3412870              1.0545100              0.7544830
SP   1   1.00
      0.1171670              1.0000000              1.0000000
D    1   1.00
      1.3000000              1.0000000
D    1   1.00
      0.3250000              1.0000000
F    1   1.00
      0.5500000              1.0000000
****
Cl     0
S    6   1.00
  25180.1000000              0.0018330
   3780.3500000              0.0140340
    860.4740000              0.0690970
    242.1450000              0.2374520
     77.3349000              0.4830340
     26.2470000              0.3398560
SP   6   1.00
    491.7650000             -0.0022974              0.0039894
    116.9840000             -0.0307140              0.0303180
     37.4153000             -0.1125280              0.1298800
     13.7834000              0.0450160              0.3279510
      5.4521500              0.5893530              0.4535270
      2.2258800              0.4652060              0.2521540
SP   3   1.00
      3.1864900             -0.2518300             -0.0142990
      1.1442700              0.0615890              0.3235720
      0.4203770              1.0601800              0.7435070
SP   1   1.00
      0.1426570              1.0000000              1.0000000
D    1   1.00
      1.5000000              1.0000000
D    1   1.00
      0.3750000              1.0000000
F    1   1.00
      0.7000000              1.0000000
****
}

set {
reference uhf
freeze_core true
e_convergence 10
d_convergence 10
dft_spherical_points 1202
dft_radial_points 99
}

e = energy('b3lyp')

print_out('Grab this energy {0}'.format(e))
--------------------------------------------------------------------------

    Molecular point group: c1

    Geometry (in Bohr), charge = 0, multiplicity = 2:

       Center              X                  Y                   Z               Mass
    ------------   -----------------  -----------------  -----------------  -----------------
         C           -0.255834732841     0.804651060313    -0.000000002573    12.000000000000
         O           -2.193917267541    -0.339024086887     0.000000008127    15.994914619570
         C            2.410452899659    -0.238526585587     0.000000009127    12.000000000000
         H            2.386568694559    -2.306198795987     0.000000027327     1.007825032230
         H            3.388910342559     0.473004887213    -1.664785970873     1.007825032230
         H            3.388910692759     0.473005057413     1.664785736527     1.007825032230

  Charge       = 0
  Multiplicity = 2
  Basis Set: ANONYMOUS2DF03A53
    Blend: 6-31G_2DFP_
  Basis Set: (ANONYMOUS2DF03A53 AUX)
    Blend: DEF2-UNIVERSAL-JKFIT

    Orbital Energies [Eh]
    ---------------------

    Alpha Occupied:

       1A    -19.186833     2A    -10.272194     3A    -10.210674
       4A     -1.078891     5A     -0.762747     6A     -0.544220
       7A     -0.465968     8A     -0.457086     9A     -0.456631
      10A     -0.386623    11A     -0.385201    12A     -0.192863

    Alpha Virtual:

      13A     -0.020062    14A      0.091595    15A      0.136059
      16A      0.141379    17A      0.218137    18A      0.268061
      19A      0.428119    20A      0.431141    21A      0.443959
      22A      0.493625    23A      0.506133    24A      0.529620
      25A      0.563058    26A      0.577160    27A      0.606108
      28A      0.616299    29A      0.643625    30A      0.716863
      31A      0.765684    32A      0.785035    33A      0.832009
      34A      0.918202    35A      0.928241    36A      0.936039
      37A      1.022920    38A      1.084565    39A      1.106529
      40A      1.154082    41A      1.223442    42A      1.306452
      43A      1.317525    44A      1.327437    45A      1.402313
      46A      1.406848    47A      1.467700    48A      1.559693
      49A      1.628861    50A      1.652539    51A      1.718973
      52A      1.813469    53A      1.834016    54A      1.900425
      55A      2.064445    56A      2.165965    57A      2.489453
      58A      2.680887    59A      2.744469    60A      2.783906
      61A      2.840718    62A      2.894654    63A      2.973213
      64A      3.029409    65A      3.056874    66A      3.105275
      67A      3.116050    68A      3.182015    69A      3.314886
      70A      3.366566    71A      3.392902    72A      3.439072
      73A      3.466467    74A      3.485043    75A      3.570541
      76A      3.734986    77A      3.762420    78A      3.944037
      79A      3.984307    80A      4.055080    81A      4.110527
      82A      4.119576    83A      4.188503    84A      4.392916
      85A      4.435189    86A      4.446790    87A      4.532826
      88A      4.919024    89A      5.037030    90A      5.042068
      91A      5.198444    92A      5.205967    93A      5.468004
      94A      5.477137    95A      5.828037    96A      5.924050
      97A      6.099741    98A      6.770355    99A      6.772424
     100A      7.072160   101A      7.134836   102A      7.527058

    Beta Occupied:

       1A    -19.178754     2A    -10.262099     3A    -10.207346
       4A     -1.062878     5A     -0.750991     6A     -0.524478
       7A     -0.452181     8A     -0.446662     9A     -0.438385
      10A     -0.381379    11A     -0.346775

    Beta Virtual:

      12A     -0.053267    13A     -0.003764    14A      0.094297
      15A      0.141806    16A      0.144463    17A      0.228434
      18A      0.273812    19A      0.433117    20A      0.435163
      21A      0.466130    22A      0.500324    23A      0.527241
      24A      0.538712    25A      0.569421    26A      0.581392
      27A      0.623462    28A      0.625069    29A      0.649081
      30A      0.738648    31A      0.776913    32A      0.795116
      33A      0.832802    34A      0.923033    35A      0.944158
      36A      0.951887    37A      1.027089    38A      1.090690
      39A      1.108673    40A      1.160274    41A      1.232633
      42A      1.311957    43A      1.320375    44A      1.334251
      45A      1.412285    46A      1.412637    47A      1.479972
      48A      1.571148    49A      1.641947    50A      1.666905
      51A      1.725225    52A      1.816643    53A      1.848101
      54A      1.907067    55A      2.071159    56A      2.187447
      57A      2.502096    58A      2.695128    59A      2.758910
      60A      2.804992    61A      2.856121    62A      2.896319
      63A      2.982615    64A      3.046140    65A      3.065436
      66A      3.123894    67A      3.124469    68A      3.216734
      69A      3.358797    70A      3.378001    71A      3.398985
      72A      3.446578    73A      3.482891    74A      3.508321
      75A      3.583577    76A      3.760833    77A      3.771704
      78A      3.952750    79A      3.993548    80A      4.071390
      81A      4.122438    82A      4.125073    83A      4.200345
      84A      4.395103    85A      4.441482    86A      4.451025
      87A      4.543687    88A      4.922935    89A      5.054538
      90A      5.060096    91A      5.200648    92A      5.211677
      93A      5.480697    94A      5.490994    95A      5.841293
      96A      5.929642    97A      6.122985    98A      6.799671
      99A      6.802087   100A      7.076476   101A      7.164281
     102A      7.538761

    Final Occupation by Irrep:
              A
    DOCC [    11 ]
    SOCC [     1 ]

  @DF-UKS Final Energy:  -153.18835799025311

   => Energetics <=

    Nuclear Repulsion Energy =             62.7283266306375324
    One-Electron Energy =                -331.4629216336207946
    Two-Electron Energy =                 132.1244435058405884
    DFT Exchange-Correlation Energy =     -16.5782064931104216
    Empirical Dispersion Energy =           0.0000000000000000
    VV10 Nonlocal Energy =                  0.0000000000000000
    Total Energy =                       -153.1883579902531096

  UHF NO Occupations:
  HONO-2 :   10  A 1.9997887
  HONO-1 :   11  A 1.9991950
  HONO-0 :   12  A 1.0000000
  LUNO+0 :   13  A 0.0008050
  LUNO+1 :   14  A 0.0002113
  LUNO+2 :   15  A 0.0001827
  LUNO+3 :   16  A 0.0000619

Computation Completed

Properties will be evaluated at   0.000000,   0.000000,   0.000000 [a0]

Properties computed using the SCF density matrix

  Nuclear Dipole Moment: [e a0]
     X:     4.5408      Y:    -0.6756      Z:    -0.0000

  Electronic Dipole Moment: [e a0]
     X:    -3.6008      Y:     0.6284      Z:     0.0000

  Dipole Moment: [e a0]
     X:     0.9400      Y:    -0.0473      Z:    -0.0000     Total:     0.9412

  Dipole Moment: [D]
     X:     2.3892      Y:    -0.1202      Z:    -0.0000     Total:     2.3922

*** tstop() called on n036 at Thu Nov  4 14:50:35 2021
Module time:
	user time   =      62.35 seconds =       1.04 minutes
	system time =       0.44 seconds =       0.01 minutes
	total time  =         63 seconds =       1.05 minutes
Total time:
	user time   =      62.35 seconds =       1.04 minutes
	system time =       0.44 seconds =       0.01 minutes
	total time  =         63 seconds =       1.05 minutes
Grab this energy -153.1883579902531
    Psi4 stopped on: Thursday, 04 November 2021 02:50PM
    Psi4 wall time for execution: 0:01:02.83

*** Psi4 exiting successfully. Buy a developer a beer!
