                               Psi4 1.4a2.dev629

  ==> Input File <==

--------------------------------------------------------------------------
import os
memory 14 GB

molecule {
 C   -0.2595671773    0.8060370136    0.0004743020
 O   -2.1912772154   -0.3331927872   -0.0000961695
 C    2.4105525533   -0.2442775877    0.0015355945
 H    2.3825237157   -2.3140680867    0.0043262940
 H    3.3933249590    0.4738023942   -1.6626808588
 H    3.3890811470    0.4660647017    1.6564408378
units bohr
0 2
}

basis {

assign 6-31g_2dfp_

[ 6-31g_2dfp_ ]

spherical

!----------------------------------------------------------------------
! Basis Set Exchange
! Version v0.8.13
! https://www.basissetexchange.org
!----------------------------------------------------------------------
!   Basis set: 6-31G(2df,p)
! Description: 6-31G(2df,p)
!        Role: orbital
!     Version: 0  (Data from the original Basis Set Exchange)
!----------------------------------------------------------------------

****
H     0
S    3   1.00
     18.7311370              0.03349460
      2.8253937              0.23472695
      0.6401217              0.81375733
S    1   1.00
      0.1612778              1.00000000
P    1   1.00
      1.5000000              1.0000000
P    1   1.00
      0.3750000              1.0000000
****
B     0
S    6   1.00
   2068.8823000              0.0018663
    310.6495700              0.0142515
     70.6830330              0.0695516
     19.8610800              0.2325729
      6.2993048              0.4670787
      2.1270270              0.3634314
SP   3   1.00
      4.7279710             -0.1303938              0.0745976
      1.1903377             -0.1307889              0.3078467
      0.3594117              1.1309444              0.7434568
SP   1   1.00
      0.1267512              1.0000000              1.0000000
D    1   1.00
      0.8020000              1.0000000
D    1   1.00
      0.2005000              1.0000000
F    1   1.00
      0.5000000              1.0000000
****
C     0
S    6   1.00
   3047.5249000              0.0018347
    457.3695100              0.0140373
    103.9486900              0.0688426
     29.2101550              0.2321844
      9.2866630              0.4679413
      3.1639270              0.3623120
SP   3   1.00
      7.8682724             -0.1193324              0.0689991
      1.8812885             -0.1608542              0.3164240
      0.5442493              1.1434564              0.7443083
SP   1   1.00
      0.1687144              1.0000000              1.0000000
D    1   1.00
      1.2520000              1.0000000
D    1   1.00
      0.3130000              1.0000000
F    1   1.00
      0.8000000              1.0000000
****
N     0
S    6   1.00
   4173.5110000              0.0018348
    627.4579000              0.0139950
    142.9021000              0.0685870
     40.2343300              0.2322410
     12.8202100              0.4690700
      4.3904370              0.3604550
SP   3   1.00
     11.6263580             -0.1149610              0.0675800
      2.7162800             -0.1691180              0.3239070
      0.7722180              1.1458520              0.7408950
SP   1   1.00
      0.2120313              1.0000000              1.0000000
D    1   1.00
      1.8260000              1.0000000
D    1   1.00
      0.4565000              1.0000000
F    1   1.00
      1.0000000              1.0000000
****
O     0
S    6   1.00
   5484.6717000              0.0018311
    825.2349500              0.0139501
    188.0469600              0.0684451
     52.9645000              0.2327143
     16.8975700              0.4701930
      5.7996353              0.3585209
SP   3   1.00
     15.5396160             -0.1107775              0.0708743
      3.5999336             -0.1480263              0.3397528
      1.0137618              1.1307670              0.7271586
SP   1   1.00
      0.2700058              1.0000000              1.0000000
D    1   1.00
      2.5840000              1.0000000
D    1   1.00
      0.6460000              1.0000000
F    1   1.00
      1.4000000              1.0000000
****
F     0
S    6   1.00
   7001.7130900              0.0018196169
   1051.3660900              0.0139160796
    239.2856900              0.0684053245
     67.3974453              0.233185760
     21.5199573              0.471267439
      7.40310130             0.356618546
SP   3   1.00
     20.8479528             -0.108506975            0.0716287243
      4.80830834            -0.146451658            0.3459121030
      1.34406986             1.128688580            0.7224699570
SP   1   1.00
      0.358151393            1.0000000              1.0000000
D    1   1.00
      3.5000000              1.0000000
D    1   1.00
      0.8750000              1.0000000
F    1   1.00
      1.8500000              1.0000000
****
Al     0
S    6   1.00
  13983.1000000              0.00194267
   2098.7500000              0.0148599
    477.7050000              0.0728494
    134.3600000              0.2468300
     42.8709000              0.4872580
     14.5189000              0.3234960
SP   6   1.00
    239.6680000             -0.00292619             0.00460285
     57.4419000             -0.0374080              0.0331990
     18.2859000             -0.1144870              0.1362820
      6.5991400              0.1156350              0.3304760
      2.4904900              0.6125950              0.4491460
      0.9445400              0.3937990              0.2657040
SP   3   1.00
      1.2779000             -0.2276060             -0.0175130
      0.3975900              0.00144583             0.2445330
      0.1600950              1.0927900              0.8049340
SP   1   1.00
      0.0556577              1.0000000              1.0000000
D    1   1.00
      0.6500000              1.0000000
D    1   1.00
      0.1625000              1.0000000
F    1   1.00
      0.2500000              1.0000000
****
Si     0
S    6   1.00
  16115.9000000              0.00195948
   2425.5800000              0.01492880
    553.8670000              0.07284780
    156.3400000              0.24613000
     50.0683000              0.48591400
     17.0178000              0.32500200
SP   6   1.00
    292.7180000             -0.00278094             0.00443826
     69.8731000             -0.03571460             0.03266790
     22.3363000             -0.11498500             0.13472100
      8.1503900              0.09356340             0.32867800
      3.1345800              0.60301700             0.44964000
      1.2254300              0.41895900             0.26137200
SP   3   1.00
      1.7273800             -0.24463000            -0.01779510
      0.5729220              0.00431572             0.25353900
      0.2221920              1.09818000             0.80066900
SP   1   1.00
      0.0778369              1.00000000             1.00000000
D    1   1.00
      0.9000000              1.0000000
D    1   1.00
      0.2250000              1.0000000
F    1   1.00
      0.3200000              1.0000000
****
P     0
S    6   1.00
  19413.3000000              0.0018516
   2909.4200000              0.0142062
    661.3640000              0.0699995
    185.7590000              0.2400790
     59.1943000              0.4847620
     20.0310000              0.3352000
SP   6   1.00
    339.4780000             -0.00278217             0.00456462
     81.0101000             -0.0360499              0.03369360
     25.8780000             -0.1166310              0.13975500
      9.4522100              0.0968328              0.33936200
      3.6656600              0.6144180              0.45092100
      1.4674600              0.4037980              0.23858600
SP   3   1.00
      2.1562300             -0.2529230             -0.01776530
      0.7489970              0.0328517              0.27405800
      0.2831450              1.0812500              0.78542100
SP   1   1.00
      0.0998317              1.0000000              1.00000000
D    1   1.00
      1.1000000              1.0000000
D    1   1.00
      0.2750000              1.0000000
F    1   1.00
      0.4500000              1.0000000
****
S     0
S    6   1.00
  21917.1000000              0.0018690
   3301.4900000              0.0142300
    754.1460000              0.0696960
    212.7110000              0.2384870
     67.9896000              0.4833070
     23.0515000              0.3380740
SP   6   1.00
    423.7350000             -0.0023767              0.0040610
    100.7100000             -0.0316930              0.0306810
     32.1599000             -0.1133170              0.1304520
     11.8079000              0.0560900              0.3272050
      4.6311000              0.5922550              0.4528510
      1.8702500              0.4550060              0.2560420
SP   3   1.00
      2.6158400             -0.2503740             -0.0145110
      0.9221670              0.0669570              0.3102630
      0.3412870              1.0545100              0.7544830
SP   1   1.00
      0.1171670              1.0000000              1.0000000
D    1   1.00
      1.3000000              1.0000000
D    1   1.00
      0.3250000              1.0000000
F    1   1.00
      0.5500000              1.0000000
****
Cl     0
S    6   1.00
  25180.1000000              0.0018330
   3780.3500000              0.0140340
    860.4740000              0.0690970
    242.1450000              0.2374520
     77.3349000              0.4830340
     26.2470000              0.3398560
SP   6   1.00
    491.7650000             -0.0022974              0.0039894
    116.9840000             -0.0307140              0.0303180
     37.4153000             -0.1125280              0.1298800
     13.7834000              0.0450160              0.3279510
      5.4521500              0.5893530              0.4535270
      2.2258800              0.4652060              0.2521540
SP   3   1.00
      3.1864900             -0.2518300             -0.0142990
      1.1442700              0.0615890              0.3235720
      0.4203770              1.0601800              0.7435070
SP   1   1.00
      0.1426570              1.0000000              1.0000000
D    1   1.00
      1.5000000              1.0000000
D    1   1.00
      0.3750000              1.0000000
F    1   1.00
      0.7000000              1.0000000
****
}

set {
reference uhf
freeze_core true
e_convergence 10
d_convergence 10
dft_spherical_points 1202
dft_radial_points 99
}

e = energy('b3lyp')

print_out('Grab this energy {0}'.format(e))
--------------------------------------------------------------------------

    Molecular point group: c1

    Geometry (in Bohr), charge = 0, multiplicity = 2:

       Center              X                  Y                   Z               Mass
    ------------   -----------------  -----------------  -----------------  -----------------
         C           -0.259548074698     0.805414750191    -0.000005767878    12.000000000000
         O           -2.191258112798    -0.333815050609    -0.000576239378    15.994914619570
         C            2.410571655902    -0.244899851109     0.001055524622    12.000000000000
         H            2.382542818302    -2.314690350109     0.003846224122     1.007825032230
         H            3.393344061602     0.473180130791    -1.663160928678     1.007825032230
         H            3.389100249602     0.465442438291     1.655960767922     1.007825032230

  Charge       = 0
  Multiplicity = 2
  Basis Set: ANONYMOUS66D30EB7
    Blend: 6-31G_2DFP_
  Basis Set: (ANONYMOUS66D30EB7 AUX)
    Blend: DEF2-UNIVERSAL-JKFIT

    Orbital Energies [Eh]
    ---------------------

    Alpha Occupied:

       1A    -19.186961     2A    -10.271684     3A    -10.210342
       4A     -1.081279     5A     -0.761919     6A     -0.543966
       7A     -0.466641     8A     -0.457119     9A     -0.456333
      10A     -0.387630    11A     -0.386114    12A     -0.192211

    Alpha Virtual:

      13A     -0.018889    14A      0.092019    15A      0.136269
      16A      0.141774    17A      0.217670    18A      0.268117
      19A      0.428250    20A      0.431443    21A      0.443788
      22A      0.493895    23A      0.506114    24A      0.530184
      25A      0.563291    26A      0.577315    27A      0.608308
      28A      0.616350    29A      0.643782    30A      0.717618
      31A      0.766086    32A      0.785277    33A      0.832558
      34A      0.917318    35A      0.927248    36A      0.935280
      37A      1.023316    38A      1.084370    39A      1.108681
      40A      1.153420    41A      1.220807    42A      1.306306
      43A      1.316463    44A      1.327164    45A      1.404100
      46A      1.407873    47A      1.467755    48A      1.559759
      49A      1.630280    50A      1.653871    51A      1.720669
      52A      1.814782    53A      1.833618    54A      1.901015
      55A      2.065618    56A      2.165866    57A      2.495428
      58A      2.680321    59A      2.743739    60A      2.783220
      61A      2.844230    62A      2.894348    63A      2.972393
      64A      3.030918    65A      3.058081    66A      3.105088
      67A      3.114786    68A      3.183378    69A      3.313886
      70A      3.370327    71A      3.392641    72A      3.439316
      73A      3.465796    74A      3.486640    75A      3.569993
      76A      3.739318    77A      3.760149    78A      3.942526
      79A      3.982386    80A      4.055743    81A      4.110192
      82A      4.119259    83A      4.189069    84A      4.390695
      85A      4.433143    86A      4.449612    87A      4.530966
      88A      4.919858    89A      5.036976    90A      5.042214
      91A      5.198151    92A      5.207954    93A      5.473392
      94A      5.482703    95A      5.826501    96A      5.930195
      97A      6.103595    98A      6.770577    99A      6.772745
     100A      7.070744   101A      7.134933   102A      7.529738

    Beta Occupied:

       1A    -19.178896     2A    -10.261631     3A    -10.206959
       4A     -1.065354     5A     -0.750142     6A     -0.524290
       7A     -0.451853     8A     -0.446446     9A     -0.439000
      10A     -0.382440    11A     -0.347919

    Beta Virtual:

      12A     -0.052828    13A     -0.002607    14A      0.094795
      15A      0.141936    16A      0.144882    17A      0.228156
      18A      0.273799    19A      0.433373    20A      0.435634
      21A      0.465694    22A      0.500599    23A      0.527497
      24A      0.539181    25A      0.569721    26A      0.581496
      27A      0.623469    28A      0.626845    29A      0.649437
      30A      0.739586    31A      0.777235    32A      0.795246
      33A      0.833343    34A      0.922158    35A      0.943280
      36A      0.950959    37A      1.027505    38A      1.090573
      39A      1.110713    40A      1.159624    41A      1.230045
      42A      1.311928    43A      1.319318    44A      1.333957
      45A      1.413211    46A      1.414651    47A      1.480033
      48A      1.570990    49A      1.643490    50A      1.668254
      51A      1.726911    52A      1.817995    53A      1.847716
      54A      1.907641    55A      2.072331    56A      2.187263
      57A      2.508100    58A      2.694593    59A      2.758105
      60A      2.804327    61A      2.859705    62A      2.895995
      63A      2.981898    64A      3.047769    65A      3.066551
      66A      3.122635    67A      3.124240    68A      3.218075
      69A      3.357469    70A      3.381849    71A      3.399040
      72A      3.447768    73A      3.481269    74A      3.509647
      75A      3.583119    76A      3.765097    77A      3.769590
      78A      3.951211    79A      3.991701    80A      4.072191
      81A      4.122005    82A      4.125643    83A      4.200130
      84A      4.392919    85A      4.439312    86A      4.453818
      87A      4.541805    88A      4.923783    89A      5.054432
      90A      5.060222    91A      5.202049    92A      5.211988
      93A      5.486031    94A      5.496551    95A      5.839736
      96A      5.935779    97A      6.126792    98A      6.799861
      99A      6.802371   100A      7.075041   101A      7.164305
     102A      7.541402

    Final Occupation by Irrep:
              A
    DOCC [    11 ]
    SOCC [     1 ]

  @DF-UKS Final Energy:  -153.18840559411274

   => Energetics <=

    Nuclear Repulsion Energy =             62.7814515440474494
    One-Electron Energy =                -331.5624701387152413
    Two-Electron Energy =                 132.1730406878774033
    DFT Exchange-Correlation Energy =     -16.5804276873223415
    Empirical Dispersion Energy =           0.0000000000000000
    VV10 Nonlocal Energy =                  0.0000000000000000
    Total Energy =                       -153.1884055941127372

  UHF NO Occupations:
  HONO-2 :   10  A 1.9997832
  HONO-1 :   11  A 1.9992018
  HONO-0 :   12  A 1.0000000
  LUNO+0 :   13  A 0.0007982
  LUNO+1 :   14  A 0.0002168
  LUNO+2 :   15  A 0.0001797
  LUNO+3 :   16  A 0.0000616

Computation Completed

Properties will be evaluated at   0.000000,   0.000000,   0.000000 [a0]

Properties computed using the SCF density matrix

  Nuclear Dipole Moment: [e a0]
     X:     4.5411      Y:    -0.6835      Z:    -0.0017

  Electronic Dipole Moment: [e a0]
     X:    -3.6099      Y:     0.6344      Z:     0.0026

  Dipole Moment: [e a0]
     X:     0.9312      Y:    -0.0491      Z:     0.0010     Total:     0.9325

  Dipole Moment: [D]
     X:     2.3668      Y:    -0.1247      Z:     0.0025     Total:     2.3701

*** tstop() called on n086 at Tue Mar 15 10:34:02 2022
Module time:
	user time   =      44.18 seconds =       0.74 minutes
	system time =       0.56 seconds =       0.01 minutes
	total time  =         45 seconds =       0.75 minutes
Total time:
	user time   =      44.18 seconds =       0.74 minutes
	system time =       0.56 seconds =       0.01 minutes
	total time  =         45 seconds =       0.75 minutes
Grab this energy -153.18840559411274
    Psi4 stopped on: Tuesday, 15 March 2022 10:34AM
    Psi4 wall time for execution: 0:00:44.79

*** Psi4 exiting successfully. Buy a developer a beer!
