                               Psi4 1.4a2.dev629

  ==> Input File <==

--------------------------------------------------------------------------
import os
memory 14 GB

molecule {
 C   -0.2555386820    0.7986895573    0.0004743792
 O   -2.1916099527   -0.3312001764   -0.0000973065
 C    2.4090554911   -0.2455414299    0.0015364493
 H    2.3791815784   -2.3091470355    0.0043260000
 H    3.3938950204    0.4746508689   -1.6668476237
 H    3.3896545270    0.4669138634    1.6606081018
units bohr
0 2
}

basis {

assign 6-31g_2dfp_

[ 6-31g_2dfp_ ]

spherical

!----------------------------------------------------------------------
! Basis Set Exchange
! Version v0.8.13
! https://www.basissetexchange.org
!----------------------------------------------------------------------
!   Basis set: 6-31G(2df,p)
! Description: 6-31G(2df,p)
!        Role: orbital
!     Version: 0  (Data from the original Basis Set Exchange)
!----------------------------------------------------------------------

****
H     0
S    3   1.00
     18.7311370              0.03349460
      2.8253937              0.23472695
      0.6401217              0.81375733
S    1   1.00
      0.1612778              1.00000000
P    1   1.00
      1.5000000              1.0000000
P    1   1.00
      0.3750000              1.0000000
****
B     0
S    6   1.00
   2068.8823000              0.0018663
    310.6495700              0.0142515
     70.6830330              0.0695516
     19.8610800              0.2325729
      6.2993048              0.4670787
      2.1270270              0.3634314
SP   3   1.00
      4.7279710             -0.1303938              0.0745976
      1.1903377             -0.1307889              0.3078467
      0.3594117              1.1309444              0.7434568
SP   1   1.00
      0.1267512              1.0000000              1.0000000
D    1   1.00
      0.8020000              1.0000000
D    1   1.00
      0.2005000              1.0000000
F    1   1.00
      0.5000000              1.0000000
****
C     0
S    6   1.00
   3047.5249000              0.0018347
    457.3695100              0.0140373
    103.9486900              0.0688426
     29.2101550              0.2321844
      9.2866630              0.4679413
      3.1639270              0.3623120
SP   3   1.00
      7.8682724             -0.1193324              0.0689991
      1.8812885             -0.1608542              0.3164240
      0.5442493              1.1434564              0.7443083
SP   1   1.00
      0.1687144              1.0000000              1.0000000
D    1   1.00
      1.2520000              1.0000000
D    1   1.00
      0.3130000              1.0000000
F    1   1.00
      0.8000000              1.0000000
****
N     0
S    6   1.00
   4173.5110000              0.0018348
    627.4579000              0.0139950
    142.9021000              0.0685870
     40.2343300              0.2322410
     12.8202100              0.4690700
      4.3904370              0.3604550
SP   3   1.00
     11.6263580             -0.1149610              0.0675800
      2.7162800             -0.1691180              0.3239070
      0.7722180              1.1458520              0.7408950
SP   1   1.00
      0.2120313              1.0000000              1.0000000
D    1   1.00
      1.8260000              1.0000000
D    1   1.00
      0.4565000              1.0000000
F    1   1.00
      1.0000000              1.0000000
****
O     0
S    6   1.00
   5484.6717000              0.0018311
    825.2349500              0.0139501
    188.0469600              0.0684451
     52.9645000              0.2327143
     16.8975700              0.4701930
      5.7996353              0.3585209
SP   3   1.00
     15.5396160             -0.1107775              0.0708743
      3.5999336             -0.1480263              0.3397528
      1.0137618              1.1307670              0.7271586
SP   1   1.00
      0.2700058              1.0000000              1.0000000
D    1   1.00
      2.5840000              1.0000000
D    1   1.00
      0.6460000              1.0000000
F    1   1.00
      1.4000000              1.0000000
****
F     0
S    6   1.00
   7001.7130900              0.0018196169
   1051.3660900              0.0139160796
    239.2856900              0.0684053245
     67.3974453              0.233185760
     21.5199573              0.471267439
      7.40310130             0.356618546
SP   3   1.00
     20.8479528             -0.108506975            0.0716287243
      4.80830834            -0.146451658            0.3459121030
      1.34406986             1.128688580            0.7224699570
SP   1   1.00
      0.358151393            1.0000000              1.0000000
D    1   1.00
      3.5000000              1.0000000
D    1   1.00
      0.8750000              1.0000000
F    1   1.00
      1.8500000              1.0000000
****
Al     0
S    6   1.00
  13983.1000000              0.00194267
   2098.7500000              0.0148599
    477.7050000              0.0728494
    134.3600000              0.2468300
     42.8709000              0.4872580
     14.5189000              0.3234960
SP   6   1.00
    239.6680000             -0.00292619             0.00460285
     57.4419000             -0.0374080              0.0331990
     18.2859000             -0.1144870              0.1362820
      6.5991400              0.1156350              0.3304760
      2.4904900              0.6125950              0.4491460
      0.9445400              0.3937990              0.2657040
SP   3   1.00
      1.2779000             -0.2276060             -0.0175130
      0.3975900              0.00144583             0.2445330
      0.1600950              1.0927900              0.8049340
SP   1   1.00
      0.0556577              1.0000000              1.0000000
D    1   1.00
      0.6500000              1.0000000
D    1   1.00
      0.1625000              1.0000000
F    1   1.00
      0.2500000              1.0000000
****
Si     0
S    6   1.00
  16115.9000000              0.00195948
   2425.5800000              0.01492880
    553.8670000              0.07284780
    156.3400000              0.24613000
     50.0683000              0.48591400
     17.0178000              0.32500200
SP   6   1.00
    292.7180000             -0.00278094             0.00443826
     69.8731000             -0.03571460             0.03266790
     22.3363000             -0.11498500             0.13472100
      8.1503900              0.09356340             0.32867800
      3.1345800              0.60301700             0.44964000
      1.2254300              0.41895900             0.26137200
SP   3   1.00
      1.7273800             -0.24463000            -0.01779510
      0.5729220              0.00431572             0.25353900
      0.2221920              1.09818000             0.80066900
SP   1   1.00
      0.0778369              1.00000000             1.00000000
D    1   1.00
      0.9000000              1.0000000
D    1   1.00
      0.2250000              1.0000000
F    1   1.00
      0.3200000              1.0000000
****
P     0
S    6   1.00
  19413.3000000              0.0018516
   2909.4200000              0.0142062
    661.3640000              0.0699995
    185.7590000              0.2400790
     59.1943000              0.4847620
     20.0310000              0.3352000
SP   6   1.00
    339.4780000             -0.00278217             0.00456462
     81.0101000             -0.0360499              0.03369360
     25.8780000             -0.1166310              0.13975500
      9.4522100              0.0968328              0.33936200
      3.6656600              0.6144180              0.45092100
      1.4674600              0.4037980              0.23858600
SP   3   1.00
      2.1562300             -0.2529230             -0.01776530
      0.7489970              0.0328517              0.27405800
      0.2831450              1.0812500              0.78542100
SP   1   1.00
      0.0998317              1.0000000              1.00000000
D    1   1.00
      1.1000000              1.0000000
D    1   1.00
      0.2750000              1.0000000
F    1   1.00
      0.4500000              1.0000000
****
S     0
S    6   1.00
  21917.1000000              0.0018690
   3301.4900000              0.0142300
    754.1460000              0.0696960
    212.7110000              0.2384870
     67.9896000              0.4833070
     23.0515000              0.3380740
SP   6   1.00
    423.7350000             -0.0023767              0.0040610
    100.7100000             -0.0316930              0.0306810
     32.1599000             -0.1133170              0.1304520
     11.8079000              0.0560900              0.3272050
      4.6311000              0.5922550              0.4528510
      1.8702500              0.4550060              0.2560420
SP   3   1.00
      2.6158400             -0.2503740             -0.0145110
      0.9221670              0.0669570              0.3102630
      0.3412870              1.0545100              0.7544830
SP   1   1.00
      0.1171670              1.0000000              1.0000000
D    1   1.00
      1.3000000              1.0000000
D    1   1.00
      0.3250000              1.0000000
F    1   1.00
      0.5500000              1.0000000
****
Cl     0
S    6   1.00
  25180.1000000              0.0018330
   3780.3500000              0.0140340
    860.4740000              0.0690970
    242.1450000              0.2374520
     77.3349000              0.4830340
     26.2470000              0.3398560
SP   6   1.00
    491.7650000             -0.0022974              0.0039894
    116.9840000             -0.0307140              0.0303180
     37.4153000             -0.1125280              0.1298800
     13.7834000              0.0450160              0.3279510
      5.4521500              0.5893530              0.4535270
      2.2258800              0.4652060              0.2521540
SP   3   1.00
      3.1864900             -0.2518300             -0.0142990
      1.1442700              0.0615890              0.3235720
      0.4203770              1.0601800              0.7435070
SP   1   1.00
      0.1426570              1.0000000              1.0000000
D    1   1.00
      1.5000000              1.0000000
D    1   1.00
      0.3750000              1.0000000
F    1   1.00
      0.7000000              1.0000000
****
}

set {
reference uhf
freeze_core true
e_convergence 10
d_convergence 10
dft_spherical_points 1202
dft_radial_points 99
}

e = energy('b3lyp')

print_out('Grab this energy {0}'.format(e))
--------------------------------------------------------------------------

    Molecular point group: c1

    Geometry (in Bohr), charge = 0, multiplicity = 2:

       Center              X                  Y                   Z               Mass
    ------------   -----------------  -----------------  -----------------  -----------------
         C           -0.256050496335     0.799573474475    -0.000005532710    12.000000000000
         O           -2.192121767035    -0.330316259225    -0.000577218410    15.994914619570
         C            2.408543676765    -0.244657512725     0.001056537390    12.000000000000
         H            2.378669764065    -2.308263118325     0.003846088090     1.007825032230
         H            3.393383206065     0.475534786075    -1.667327535610     1.007825032230
         H            3.389142712665     0.467797780575     1.660128189890     1.007825032230

  Charge       = 0
  Multiplicity = 2
  Basis Set: ANONYMOUSF090AB91
    Blend: 6-31G_2DFP_
  Basis Set: (ANONYMOUSF090AB91 AUX)
    Blend: DEF2-UNIVERSAL-JKFIT

    Orbital Energies [Eh]
    ---------------------

    Alpha Occupied:

       1A    -19.186623     2A    -10.271173     3A    -10.210444
       4A     -1.081271     5A     -0.762588     6A     -0.543804
       7A     -0.466985     8A     -0.457545     9A     -0.456361
      10A     -0.387325    11A     -0.386204    12A     -0.191313

    Alpha Virtual:

      13A     -0.018670    14A      0.091527    15A      0.136751
      16A      0.141093    17A      0.218796    18A      0.268248
      19A      0.427858    20A      0.431531    21A      0.444091
      22A      0.493764    23A      0.506171    24A      0.530280
      25A      0.562655    26A      0.577409    27A      0.609494
      28A      0.616406    29A      0.644261    30A      0.717617
      31A      0.765667    32A      0.785377    33A      0.831856
      34A      0.917467    35A      0.927248    36A      0.935660
      37A      1.024051    38A      1.084773    39A      1.107596
      40A      1.154096    41A      1.222915    42A      1.307336
      43A      1.316023    44A      1.328045    45A      1.403511
      46A      1.408146    47A      1.469240    48A      1.560564
      49A      1.632384    50A      1.654256    51A      1.720201
      52A      1.812955    53A      1.835404    54A      1.900983
      55A      2.066900    56A      2.169632    57A      2.495840
      58A      2.680762    59A      2.745224    60A      2.784355
      61A      2.841495    62A      2.893929    63A      2.975059
      64A      3.029408    65A      3.058010    66A      3.104222
      67A      3.116993    68A      3.181095    69A      3.314555
      70A      3.369071    71A      3.391860    72A      3.441997
      73A      3.466827    74A      3.485523    75A      3.569480
      76A      3.741464    77A      3.765620    78A      3.943752
      79A      3.984880    80A      4.058901    81A      4.112732
      82A      4.118095    83A      4.189788    84A      4.388217
      85A      4.437531    86A      4.450119    87A      4.533836
      88A      4.919206    89A      5.037114    90A      5.042572
      91A      5.195498    92A      5.208336    93A      5.474842
      94A      5.484304    95A      5.827755    96A      5.931944
      97A      6.107062    98A      6.771091    99A      6.773295
     100A      7.071950   101A      7.135180   102A      7.530722

    Beta Occupied:

       1A    -19.178574     2A    -10.261088     3A    -10.207101
       4A     -1.065364     5A     -0.750804     6A     -0.524154
       7A     -0.451855     8A     -0.447194     9A     -0.439234
      10A     -0.382165    11A     -0.347966

    Beta Virtual:

      12A     -0.051727    13A     -0.002420    14A      0.094232
      15A      0.142481    16A      0.144245    17A      0.229072
      18A      0.273919    19A      0.433432    20A      0.434750
      21A      0.466467    22A      0.500469    23A      0.527452
      24A      0.539322    25A      0.568909    26A      0.581641
      27A      0.623693    28A      0.628014    29A      0.650104
      30A      0.739741    31A      0.776835    32A      0.795348
      33A      0.832659    34A      0.922321    35A      0.943226
      36A      0.951280    37A      1.028246    38A      1.090953
      39A      1.109635    40A      1.160246    41A      1.232197
      42A      1.312889    43A      1.318804    44A      1.334826
      45A      1.413362    46A      1.414146    47A      1.481509
      48A      1.571595    49A      1.645769    50A      1.668609
      51A      1.726486    52A      1.816225    53A      1.849539
      54A      1.907644    55A      2.073609    56A      2.191065
      57A      2.508499    58A      2.695012    59A      2.759737
      60A      2.805431    61A      2.857024    62A      2.895572
      63A      2.984450    64A      3.046306    65A      3.066639
      66A      3.122758    67A      3.125599    68A      3.215877
      69A      3.358167    70A      3.380590    71A      3.398114
      72A      3.449846    73A      3.482795    74A      3.508474
      75A      3.582776    76A      3.767328    77A      3.774882
      78A      3.952416    79A      3.994131    80A      4.075118
      81A      4.120803    82A      4.126944    83A      4.202018
      84A      4.390466    85A      4.443726    86A      4.454352
      87A      4.544764    88A      4.923061    89A      5.054578
      90A      5.060525    91A      5.198169    92A      5.213611
      93A      5.487472    94A      5.498175    95A      5.841002
      96A      5.937534    97A      6.130235    98A      6.800293
      99A      6.802841   100A      7.076246   101A      7.164505
     102A      7.542370

    Final Occupation by Irrep:
              A
    DOCC [    11 ]
    SOCC [     1 ]

  @DF-UKS Final Energy:  -153.18843197637972

   => Energetics <=

    Nuclear Repulsion Energy =             62.8262816865340739
    One-Electron Energy =                -331.6515340267866350
    Two-Electron Energy =                 132.2182191973842578
    DFT Exchange-Correlation Energy =     -16.5813988335114004
    Empirical Dispersion Energy =           0.0000000000000000
    VV10 Nonlocal Energy =                  0.0000000000000000
    Total Energy =                       -153.1884319763797180

  UHF NO Occupations:
  HONO-2 :   10  A 1.9997888
  HONO-1 :   11  A 1.9992034
  HONO-0 :   12  A 1.0000000
  LUNO+0 :   13  A 0.0007966
  LUNO+1 :   14  A 0.0002112
  LUNO+2 :   15  A 0.0001813
  LUNO+3 :   16  A 0.0000613

Computation Completed

Properties will be evaluated at   0.000000,   0.000000,   0.000000 [a0]

Properties computed using the SCF density matrix

  Nuclear Dipole Moment: [e a0]
     X:     4.5392      Y:    -0.6780      Z:    -0.0017

  Electronic Dipole Moment: [e a0]
     X:    -3.6047      Y:     0.6275      Z:     0.0026

  Dipole Moment: [e a0]
     X:     0.9345      Y:    -0.0505      Z:     0.0010     Total:     0.9358

  Dipole Moment: [D]
     X:     2.3752      Y:    -0.1284      Z:     0.0025     Total:     2.3787

*** tstop() called on n074 at Tue Mar 15 10:33:02 2022
Module time:
	user time   =      44.35 seconds =       0.74 minutes
	system time =       0.54 seconds =       0.01 minutes
	total time  =         45 seconds =       0.75 minutes
Total time:
	user time   =      44.35 seconds =       0.74 minutes
	system time =       0.54 seconds =       0.01 minutes
	total time  =         45 seconds =       0.75 minutes
Grab this energy -153.18843197637972
    Psi4 stopped on: Tuesday, 15 March 2022 10:33AM
    Psi4 wall time for execution: 0:00:44.92

*** Psi4 exiting successfully. Buy a developer a beer!
