                               Psi4 1.4a2.dev629

  ==> Input File <==

--------------------------------------------------------------------------
import os
memory 14 GB

molecule {
 C   -0.2595674829    0.8058188104    0.0041464246
 O   -2.1902654648   -0.3328951133   -0.0028219271
 C    2.4089117966   -0.2452798051    0.0012644397
 H    2.3821806554   -2.3152540902   -0.0004422257
 H    3.3917420286    0.4697923181   -1.6697045198
 H    3.3916364493    0.4721835278    1.6675578082
units bohr
0 2
}

basis {

assign 6-31g_2dfp_

[ 6-31g_2dfp_ ]

spherical

!----------------------------------------------------------------------
! Basis Set Exchange
! Version v0.8.13
! https://www.basissetexchange.org
!----------------------------------------------------------------------
!   Basis set: 6-31G(2df,p)
! Description: 6-31G(2df,p)
!        Role: orbital
!     Version: 0  (Data from the original Basis Set Exchange)
!----------------------------------------------------------------------

****
H     0
S    3   1.00
     18.7311370              0.03349460
      2.8253937              0.23472695
      0.6401217              0.81375733
S    1   1.00
      0.1612778              1.00000000
P    1   1.00
      1.5000000              1.0000000
P    1   1.00
      0.3750000              1.0000000
****
B     0
S    6   1.00
   2068.8823000              0.0018663
    310.6495700              0.0142515
     70.6830330              0.0695516
     19.8610800              0.2325729
      6.2993048              0.4670787
      2.1270270              0.3634314
SP   3   1.00
      4.7279710             -0.1303938              0.0745976
      1.1903377             -0.1307889              0.3078467
      0.3594117              1.1309444              0.7434568
SP   1   1.00
      0.1267512              1.0000000              1.0000000
D    1   1.00
      0.8020000              1.0000000
D    1   1.00
      0.2005000              1.0000000
F    1   1.00
      0.5000000              1.0000000
****
C     0
S    6   1.00
   3047.5249000              0.0018347
    457.3695100              0.0140373
    103.9486900              0.0688426
     29.2101550              0.2321844
      9.2866630              0.4679413
      3.1639270              0.3623120
SP   3   1.00
      7.8682724             -0.1193324              0.0689991
      1.8812885             -0.1608542              0.3164240
      0.5442493              1.1434564              0.7443083
SP   1   1.00
      0.1687144              1.0000000              1.0000000
D    1   1.00
      1.2520000              1.0000000
D    1   1.00
      0.3130000              1.0000000
F    1   1.00
      0.8000000              1.0000000
****
N     0
S    6   1.00
   4173.5110000              0.0018348
    627.4579000              0.0139950
    142.9021000              0.0685870
     40.2343300              0.2322410
     12.8202100              0.4690700
      4.3904370              0.3604550
SP   3   1.00
     11.6263580             -0.1149610              0.0675800
      2.7162800             -0.1691180              0.3239070
      0.7722180              1.1458520              0.7408950
SP   1   1.00
      0.2120313              1.0000000              1.0000000
D    1   1.00
      1.8260000              1.0000000
D    1   1.00
      0.4565000              1.0000000
F    1   1.00
      1.0000000              1.0000000
****
O     0
S    6   1.00
   5484.6717000              0.0018311
    825.2349500              0.0139501
    188.0469600              0.0684451
     52.9645000              0.2327143
     16.8975700              0.4701930
      5.7996353              0.3585209
SP   3   1.00
     15.5396160             -0.1107775              0.0708743
      3.5999336             -0.1480263              0.3397528
      1.0137618              1.1307670              0.7271586
SP   1   1.00
      0.2700058              1.0000000              1.0000000
D    1   1.00
      2.5840000              1.0000000
D    1   1.00
      0.6460000              1.0000000
F    1   1.00
      1.4000000              1.0000000
****
F     0
S    6   1.00
   7001.7130900              0.0018196169
   1051.3660900              0.0139160796
    239.2856900              0.0684053245
     67.3974453              0.233185760
     21.5199573              0.471267439
      7.40310130             0.356618546
SP   3   1.00
     20.8479528             -0.108506975            0.0716287243
      4.80830834            -0.146451658            0.3459121030
      1.34406986             1.128688580            0.7224699570
SP   1   1.00
      0.358151393            1.0000000              1.0000000
D    1   1.00
      3.5000000              1.0000000
D    1   1.00
      0.8750000              1.0000000
F    1   1.00
      1.8500000              1.0000000
****
Al     0
S    6   1.00
  13983.1000000              0.00194267
   2098.7500000              0.0148599
    477.7050000              0.0728494
    134.3600000              0.2468300
     42.8709000              0.4872580
     14.5189000              0.3234960
SP   6   1.00
    239.6680000             -0.00292619             0.00460285
     57.4419000             -0.0374080              0.0331990
     18.2859000             -0.1144870              0.1362820
      6.5991400              0.1156350              0.3304760
      2.4904900              0.6125950              0.4491460
      0.9445400              0.3937990              0.2657040
SP   3   1.00
      1.2779000             -0.2276060             -0.0175130
      0.3975900              0.00144583             0.2445330
      0.1600950              1.0927900              0.8049340
SP   1   1.00
      0.0556577              1.0000000              1.0000000
D    1   1.00
      0.6500000              1.0000000
D    1   1.00
      0.1625000              1.0000000
F    1   1.00
      0.2500000              1.0000000
****
Si     0
S    6   1.00
  16115.9000000              0.00195948
   2425.5800000              0.01492880
    553.8670000              0.07284780
    156.3400000              0.24613000
     50.0683000              0.48591400
     17.0178000              0.32500200
SP   6   1.00
    292.7180000             -0.00278094             0.00443826
     69.8731000             -0.03571460             0.03266790
     22.3363000             -0.11498500             0.13472100
      8.1503900              0.09356340             0.32867800
      3.1345800              0.60301700             0.44964000
      1.2254300              0.41895900             0.26137200
SP   3   1.00
      1.7273800             -0.24463000            -0.01779510
      0.5729220              0.00431572             0.25353900
      0.2221920              1.09818000             0.80066900
SP   1   1.00
      0.0778369              1.00000000             1.00000000
D    1   1.00
      0.9000000              1.0000000
D    1   1.00
      0.2250000              1.0000000
F    1   1.00
      0.3200000              1.0000000
****
P     0
S    6   1.00
  19413.3000000              0.0018516
   2909.4200000              0.0142062
    661.3640000              0.0699995
    185.7590000              0.2400790
     59.1943000              0.4847620
     20.0310000              0.3352000
SP   6   1.00
    339.4780000             -0.00278217             0.00456462
     81.0101000             -0.0360499              0.03369360
     25.8780000             -0.1166310              0.13975500
      9.4522100              0.0968328              0.33936200
      3.6656600              0.6144180              0.45092100
      1.4674600              0.4037980              0.23858600
SP   3   1.00
      2.1562300             -0.2529230             -0.01776530
      0.7489970              0.0328517              0.27405800
      0.2831450              1.0812500              0.78542100
SP   1   1.00
      0.0998317              1.0000000              1.00000000
D    1   1.00
      1.1000000              1.0000000
D    1   1.00
      0.2750000              1.0000000
F    1   1.00
      0.4500000              1.0000000
****
S     0
S    6   1.00
  21917.1000000              0.0018690
   3301.4900000              0.0142300
    754.1460000              0.0696960
    212.7110000              0.2384870
     67.9896000              0.4833070
     23.0515000              0.3380740
SP   6   1.00
    423.7350000             -0.0023767              0.0040610
    100.7100000             -0.0316930              0.0306810
     32.1599000             -0.1133170              0.1304520
     11.8079000              0.0560900              0.3272050
      4.6311000              0.5922550              0.4528510
      1.8702500              0.4550060              0.2560420
SP   3   1.00
      2.6158400             -0.2503740             -0.0145110
      0.9221670              0.0669570              0.3102630
      0.3412870              1.0545100              0.7544830
SP   1   1.00
      0.1171670              1.0000000              1.0000000
D    1   1.00
      1.3000000              1.0000000
D    1   1.00
      0.3250000              1.0000000
F    1   1.00
      0.5500000              1.0000000
****
Cl     0
S    6   1.00
  25180.1000000              0.0018330
   3780.3500000              0.0140340
    860.4740000              0.0690970
    242.1450000              0.2374520
     77.3349000              0.4830340
     26.2470000              0.3398560
SP   6   1.00
    491.7650000             -0.0022974              0.0039894
    116.9840000             -0.0307140              0.0303180
     37.4153000             -0.1125280              0.1298800
     13.7834000              0.0450160              0.3279510
      5.4521500              0.5893530              0.4535270
      2.2258800              0.4652060              0.2521540
SP   3   1.00
      3.1864900             -0.2518300             -0.0142990
      1.1442700              0.0615890              0.3235720
      0.4203770              1.0601800              0.7435070
SP   1   1.00
      0.1426570              1.0000000              1.0000000
D    1   1.00
      1.5000000              1.0000000
D    1   1.00
      0.3750000              1.0000000
F    1   1.00
      0.7000000              1.0000000
****
}

set {
reference uhf
freeze_core true
e_convergence 10
d_convergence 10
dft_spherical_points 1202
dft_radial_points 99
}

e = energy('b3lyp')

print_out('Grab this energy {0}'.format(e))
--------------------------------------------------------------------------

    Molecular point group: c1

    Geometry (in Bohr), charge = 0, multiplicity = 2:

       Center              X                  Y                   Z               Mass
    ------------   -----------------  -----------------  -----------------  -----------------
         C           -0.259481533371     0.805404686152     0.003746951424    12.000000000000
         O           -2.190179515271    -0.333309237548    -0.003221400276    15.994914619570
         C            2.408997746129    -0.245693929348     0.000864966524    12.000000000000
         H            2.382266604929    -2.315668214448    -0.000841698876     1.007825032230
         H            3.391827978129     0.469378193852    -1.670103992976     1.007825032230
         H            3.391722398829     0.471769403552     1.667158335024     1.007825032230

  Charge       = 0
  Multiplicity = 2
  Basis Set: ANONYMOUS20ED03CC
    Blend: 6-31G_2DFP_
  Basis Set: (ANONYMOUS20ED03CC AUX)
    Blend: DEF2-UNIVERSAL-JKFIT

    Orbital Energies [Eh]
    ---------------------

    Alpha Occupied:

       1A    -19.186931     2A    -10.271544     3A    -10.211159
       4A     -1.081618     5A     -0.761349     6A     -0.543667
       7A     -0.466345     8A     -0.457226     9A     -0.456009
      10A     -0.387497    11A     -0.385843    12A     -0.192166

    Alpha Virtual:

      13A     -0.018791    14A      0.091257    15A      0.136058
      16A      0.140642    17A      0.217975    18A      0.268323
      19A      0.428072    20A      0.431675    21A      0.443564
      22A      0.493260    23A      0.506079    24A      0.529661
      25A      0.562410    26A      0.575883    27A      0.608505
      28A      0.615403    29A      0.643435    30A      0.717353
      31A      0.765883    32A      0.785360    33A      0.830805
      34A      0.917035    35A      0.926849    36A      0.935175
      37A      1.022788    38A      1.085057    39A      1.106555
      40A      1.152782    41A      1.220844    42A      1.306345
      43A      1.315218    44A      1.327091    45A      1.402471
      46A      1.406027    47A      1.466986    48A      1.559623
      49A      1.629436    50A      1.653786    51A      1.716836
      52A      1.811446    53A      1.833391    54A      1.899043
      55A      2.064417    56A      2.165873    57A      2.496204
      58A      2.679632    59A      2.743779    60A      2.781796
      61A      2.840376    62A      2.893369    63A      2.972389
      64A      3.031791    65A      3.059162    66A      3.104903
      67A      3.114406    68A      3.182935    69A      3.314134
      70A      3.371289    71A      3.395640    72A      3.440270
      73A      3.465717    74A      3.486470    75A      3.568717
      76A      3.740031    77A      3.760819    78A      3.939028
      79A      3.980657    80A      4.055021    81A      4.106427
      82A      4.114286    83A      4.185037    84A      4.384961
      85A      4.432235    86A      4.443356    87A      4.527973
      88A      4.916393    89A      5.036700    90A      5.042177
      91A      5.190510    92A      5.198227    93A      5.474322
      94A      5.482330    95A      5.826269    96A      5.931012
      97A      6.104442    98A      6.770660    99A      6.772832
     100A      7.070665   101A      7.135087   102A      7.530192

    Beta Occupied:

       1A    -19.178863     2A    -10.261493     3A    -10.207774
       4A     -1.065695     5A     -0.749506     6A     -0.524005
       7A     -0.451461     8A     -0.446296     9A     -0.438848
      10A     -0.382346    11A     -0.347845

    Beta Virtual:

      12A     -0.052771    13A     -0.002532    14A      0.093975
      15A      0.141805    16A      0.143789    17A      0.228421
      18A      0.274002    19A      0.433620    20A      0.435243
      21A      0.465677    22A      0.499937    23A      0.527381
      24A      0.538533    25A      0.568734    26A      0.580053
      27A      0.622650    28A      0.627039    29A      0.649213
      30A      0.739360    31A      0.777013    32A      0.795315
      33A      0.831583    34A      0.921888    35A      0.943043
      36A      0.950705    37A      1.026985    38A      1.091242
      39A      1.108615    40A      1.159003    41A      1.230066
      42A      1.311815    43A      1.318064    44A      1.333915
      45A      1.411505    46A      1.412869    47A      1.479339
      48A      1.570815    49A      1.642604    50A      1.668199
      51A      1.723009    52A      1.814584    53A      1.847678
      54A      1.905771    55A      2.071117    56A      2.187272
      57A      2.508869    58A      2.693895    59A      2.758190
      60A      2.802861    61A      2.855658    62A      2.895014
      63A      2.981962    64A      3.048590    65A      3.067836
      66A      3.122706    67A      3.123696    68A      3.217666
      69A      3.357733    70A      3.382780    71A      3.401954
      72A      3.448430    73A      3.481464    74A      3.509219
      75A      3.582136    76A      3.765650    77A      3.770147
      78A      3.947845    79A      3.989935    80A      4.071385
      81A      4.117125    82A      4.120660    83A      4.197193
      84A      4.387199    85A      4.438465    86A      4.447563
      87A      4.538919    88A      4.920257    89A      5.054164
      90A      5.060200    91A      5.192622    92A      5.204037
      93A      5.486960    94A      5.496275    95A      5.839512
      96A      5.936600    97A      6.127646    98A      6.799961
      99A      6.802474   100A      7.074964   101A      7.164468
     102A      7.541857

    Final Occupation by Irrep:
              A
    DOCC [    11 ]
    SOCC [     1 ]

  @DF-UKS Final Energy:  -153.18845309184925

   => Energetics <=

    Nuclear Repulsion Energy =             62.7710059048131086
    One-Electron Energy =                -331.5448059890884451
    Two-Electron Energy =                 132.1636535225371176
    DFT Exchange-Correlation Energy =     -16.5783065301110604
    Empirical Dispersion Energy =           0.0000000000000000
    VV10 Nonlocal Energy =                  0.0000000000000000
    Total Energy =                       -153.1884530918492544

  UHF NO Occupations:
  HONO-2 :   10  A 1.9997834
  HONO-1 :   11  A 1.9992019
  HONO-0 :   12  A 1.0000000
  LUNO+0 :   13  A 0.0007981
  LUNO+1 :   14  A 0.0002166
  LUNO+2 :   15  A 0.0001793
  LUNO+3 :   16  A 0.0000615

Computation Completed

Properties will be evaluated at   0.000000,   0.000000,   0.000000 [a0]

Properties computed using the SCF density matrix

  Nuclear Dipole Moment: [e a0]
     X:     4.5415      Y:    -0.6827      Z:    -0.0019

  Electronic Dipole Moment: [e a0]
     X:    -3.6122      Y:     0.6329      Z:     0.0019

  Dipole Moment: [e a0]
     X:     0.9293      Y:    -0.0498      Z:    -0.0000     Total:     0.9307

  Dipole Moment: [D]
     X:     2.3621      Y:    -0.1265      Z:    -0.0000     Total:     2.3655

*** tstop() called on n086 at Tue Mar 15 10:31:02 2022
Module time:
	user time   =      44.36 seconds =       0.74 minutes
	system time =       0.51 seconds =       0.01 minutes
	total time  =         45 seconds =       0.75 minutes
Total time:
	user time   =      44.36 seconds =       0.74 minutes
	system time =       0.51 seconds =       0.01 minutes
	total time  =         45 seconds =       0.75 minutes
Grab this energy -153.18845309184925
    Psi4 stopped on: Tuesday, 15 March 2022 10:31AM
    Psi4 wall time for execution: 0:00:44.90

*** Psi4 exiting successfully. Buy a developer a beer!
