                               Psi4 1.4a2.dev629

  ==> Input File <==

--------------------------------------------------------------------------
import os
memory 14 GB

molecule {
 C   -0.2581611144    0.8099725592    0.0000000002
 O   -2.1786918149   -0.3442068503    0.0000000097
 C    2.4079904256   -0.2384487519    0.0000000114
 H    2.3768147314   -2.3075025583    0.0000000347
 H    3.3893226882    0.4751600300   -1.6589802634
 H    3.3893230340    0.4751601912    1.6589800274
units bohr
0 2
}

basis {

assign 6-31g_2dfp_

[ 6-31g_2dfp_ ]

spherical

!----------------------------------------------------------------------
! Basis Set Exchange
! Version v0.8.13
! https://www.basissetexchange.org
!----------------------------------------------------------------------
!   Basis set: 6-31G(2df,p)
! Description: 6-31G(2df,p)
!        Role: orbital
!     Version: 0  (Data from the original Basis Set Exchange)
!----------------------------------------------------------------------

****
H     0
S    3   1.00
     18.7311370              0.03349460
      2.8253937              0.23472695
      0.6401217              0.81375733
S    1   1.00
      0.1612778              1.00000000
P    1   1.00
      1.5000000              1.0000000
P    1   1.00
      0.3750000              1.0000000
****
B     0
S    6   1.00
   2068.8823000              0.0018663
    310.6495700              0.0142515
     70.6830330              0.0695516
     19.8610800              0.2325729
      6.2993048              0.4670787
      2.1270270              0.3634314
SP   3   1.00
      4.7279710             -0.1303938              0.0745976
      1.1903377             -0.1307889              0.3078467
      0.3594117              1.1309444              0.7434568
SP   1   1.00
      0.1267512              1.0000000              1.0000000
D    1   1.00
      0.8020000              1.0000000
D    1   1.00
      0.2005000              1.0000000
F    1   1.00
      0.5000000              1.0000000
****
C     0
S    6   1.00
   3047.5249000              0.0018347
    457.3695100              0.0140373
    103.9486900              0.0688426
     29.2101550              0.2321844
      9.2866630              0.4679413
      3.1639270              0.3623120
SP   3   1.00
      7.8682724             -0.1193324              0.0689991
      1.8812885             -0.1608542              0.3164240
      0.5442493              1.1434564              0.7443083
SP   1   1.00
      0.1687144              1.0000000              1.0000000
D    1   1.00
      1.2520000              1.0000000
D    1   1.00
      0.3130000              1.0000000
F    1   1.00
      0.8000000              1.0000000
****
N     0
S    6   1.00
   4173.5110000              0.0018348
    627.4579000              0.0139950
    142.9021000              0.0685870
     40.2343300              0.2322410
     12.8202100              0.4690700
      4.3904370              0.3604550
SP   3   1.00
     11.6263580             -0.1149610              0.0675800
      2.7162800             -0.1691180              0.3239070
      0.7722180              1.1458520              0.7408950
SP   1   1.00
      0.2120313              1.0000000              1.0000000
D    1   1.00
      1.8260000              1.0000000
D    1   1.00
      0.4565000              1.0000000
F    1   1.00
      1.0000000              1.0000000
****
O     0
S    6   1.00
   5484.6717000              0.0018311
    825.2349500              0.0139501
    188.0469600              0.0684451
     52.9645000              0.2327143
     16.8975700              0.4701930
      5.7996353              0.3585209
SP   3   1.00
     15.5396160             -0.1107775              0.0708743
      3.5999336             -0.1480263              0.3397528
      1.0137618              1.1307670              0.7271586
SP   1   1.00
      0.2700058              1.0000000              1.0000000
D    1   1.00
      2.5840000              1.0000000
D    1   1.00
      0.6460000              1.0000000
F    1   1.00
      1.4000000              1.0000000
****
F     0
S    6   1.00
   7001.7130900              0.0018196169
   1051.3660900              0.0139160796
    239.2856900              0.0684053245
     67.3974453              0.233185760
     21.5199573              0.471267439
      7.40310130             0.356618546
SP   3   1.00
     20.8479528             -0.108506975            0.0716287243
      4.80830834            -0.146451658            0.3459121030
      1.34406986             1.128688580            0.7224699570
SP   1   1.00
      0.358151393            1.0000000              1.0000000
D    1   1.00
      3.5000000              1.0000000
D    1   1.00
      0.8750000              1.0000000
F    1   1.00
      1.8500000              1.0000000
****
Al     0
S    6   1.00
  13983.1000000              0.00194267
   2098.7500000              0.0148599
    477.7050000              0.0728494
    134.3600000              0.2468300
     42.8709000              0.4872580
     14.5189000              0.3234960
SP   6   1.00
    239.6680000             -0.00292619             0.00460285
     57.4419000             -0.0374080              0.0331990
     18.2859000             -0.1144870              0.1362820
      6.5991400              0.1156350              0.3304760
      2.4904900              0.6125950              0.4491460
      0.9445400              0.3937990              0.2657040
SP   3   1.00
      1.2779000             -0.2276060             -0.0175130
      0.3975900              0.00144583             0.2445330
      0.1600950              1.0927900              0.8049340
SP   1   1.00
      0.0556577              1.0000000              1.0000000
D    1   1.00
      0.6500000              1.0000000
D    1   1.00
      0.1625000              1.0000000
F    1   1.00
      0.2500000              1.0000000
****
Si     0
S    6   1.00
  16115.9000000              0.00195948
   2425.5800000              0.01492880
    553.8670000              0.07284780
    156.3400000              0.24613000
     50.0683000              0.48591400
     17.0178000              0.32500200
SP   6   1.00
    292.7180000             -0.00278094             0.00443826
     69.8731000             -0.03571460             0.03266790
     22.3363000             -0.11498500             0.13472100
      8.1503900              0.09356340             0.32867800
      3.1345800              0.60301700             0.44964000
      1.2254300              0.41895900             0.26137200
SP   3   1.00
      1.7273800             -0.24463000            -0.01779510
      0.5729220              0.00431572             0.25353900
      0.2221920              1.09818000             0.80066900
SP   1   1.00
      0.0778369              1.00000000             1.00000000
D    1   1.00
      0.9000000              1.0000000
D    1   1.00
      0.2250000              1.0000000
F    1   1.00
      0.3200000              1.0000000
****
P     0
S    6   1.00
  19413.3000000              0.0018516
   2909.4200000              0.0142062
    661.3640000              0.0699995
    185.7590000              0.2400790
     59.1943000              0.4847620
     20.0310000              0.3352000
SP   6   1.00
    339.4780000             -0.00278217             0.00456462
     81.0101000             -0.0360499              0.03369360
     25.8780000             -0.1166310              0.13975500
      9.4522100              0.0968328              0.33936200
      3.6656600              0.6144180              0.45092100
      1.4674600              0.4037980              0.23858600
SP   3   1.00
      2.1562300             -0.2529230             -0.01776530
      0.7489970              0.0328517              0.27405800
      0.2831450              1.0812500              0.78542100
SP   1   1.00
      0.0998317              1.0000000              1.00000000
D    1   1.00
      1.1000000              1.0000000
D    1   1.00
      0.2750000              1.0000000
F    1   1.00
      0.4500000              1.0000000
****
S     0
S    6   1.00
  21917.1000000              0.0018690
   3301.4900000              0.0142300
    754.1460000              0.0696960
    212.7110000              0.2384870
     67.9896000              0.4833070
     23.0515000              0.3380740
SP   6   1.00
    423.7350000             -0.0023767              0.0040610
    100.7100000             -0.0316930              0.0306810
     32.1599000             -0.1133170              0.1304520
     11.8079000              0.0560900              0.3272050
      4.6311000              0.5922550              0.4528510
      1.8702500              0.4550060              0.2560420
SP   3   1.00
      2.6158400             -0.2503740             -0.0145110
      0.9221670              0.0669570              0.3102630
      0.3412870              1.0545100              0.7544830
SP   1   1.00
      0.1171670              1.0000000              1.0000000
D    1   1.00
      1.3000000              1.0000000
D    1   1.00
      0.3250000              1.0000000
F    1   1.00
      0.5500000              1.0000000
****
Cl     0
S    6   1.00
  25180.1000000              0.0018330
   3780.3500000              0.0140340
    860.4740000              0.0690970
    242.1450000              0.2374520
     77.3349000              0.4830340
     26.2470000              0.3398560
SP   6   1.00
    491.7650000             -0.0022974              0.0039894
    116.9840000             -0.0307140              0.0303180
     37.4153000             -0.1125280              0.1298800
     13.7834000              0.0450160              0.3279510
      5.4521500              0.5893530              0.4535270
      2.2258800              0.4652060              0.2521540
SP   3   1.00
      3.1864900             -0.2518300             -0.0142990
      1.1442700              0.0615890              0.3235720
      0.4203770              1.0601800              0.7435070
SP   1   1.00
      0.1426570              1.0000000              1.0000000
D    1   1.00
      1.5000000              1.0000000
D    1   1.00
      0.3750000              1.0000000
F    1   1.00
      0.7000000              1.0000000
****
}

set {
reference uhf
freeze_core true
e_convergence 10
d_convergence 10
dft_spherical_points 1202
dft_radial_points 99
}

e = energy('b3lyp')

print_out('Grab this energy {0}'.format(e))
--------------------------------------------------------------------------

    Molecular point group: c1

    Geometry (in Bohr), charge = 0, multiplicity = 2:

       Center              X                  Y                   Z               Mass
    ------------   -----------------  -----------------  -----------------  -----------------
         C           -0.262277130844     0.810323009953    -0.000000001926    12.000000000000
         O           -2.182807831344    -0.343856399547     0.000000007574    15.994914619570
         C            2.403874409156    -0.238098301147     0.000000009274    12.000000000000
         H            2.372698714956    -2.307152107547     0.000000032574     1.007825032230
         H            3.385206671756     0.475510480753    -1.658980265526     1.007825032230
         H            3.385207017556     0.475510641953     1.658980025274     1.007825032230

  Charge       = 0
  Multiplicity = 2
  Basis Set: ANONYMOUSB7402AAF
    Blend: 6-31G_2DFP_
  Basis Set: (ANONYMOUSB7402AAF AUX)
    Blend: DEF2-UNIVERSAL-JKFIT

    Orbital Energies [Eh]
    ---------------------

    Alpha Occupied:

       1A    -19.186873     2A    -10.271305     3A    -10.209898
       4A     -1.081976     5A     -0.762146     6A     -0.543935
       7A     -0.467181     8A     -0.457134     9A     -0.456644
      10A     -0.387686    11A     -0.385875    12A     -0.192654

    Alpha Virtual:

      13A     -0.018544    14A      0.092275    15A      0.136490
      16A      0.141835    17A      0.218702    18A      0.268509
      19A      0.428747    20A      0.431583    21A      0.443929
      22A      0.494072    23A      0.505905    24A      0.530427
      25A      0.562979    26A      0.577733    27A      0.608720
      28A      0.616566    29A      0.644108    30A      0.717364
      31A      0.767590    32A      0.785828    33A      0.832595
      34A      0.917075    35A      0.927410    36A      0.937777
      37A      1.023567    38A      1.084178    39A      1.109509
      40A      1.154661    41A      1.221279    42A      1.306718
      43A      1.316500    44A      1.328342    45A      1.405523
      46A      1.407564    47A      1.467790    48A      1.559432
      49A      1.629024    50A      1.654079    51A      1.720345
      52A      1.815212    53A      1.836285    54A      1.902456
      55A      2.064755    56A      2.163051    57A      2.497882
      58A      2.680189    59A      2.744364    60A      2.783231
      61A      2.845206    62A      2.894290    63A      2.970472
      64A      3.034535    65A      3.060172    66A      3.105508
      67A      3.116163    68A      3.185094    69A      3.314717
      70A      3.373545    71A      3.392451    72A      3.439898
      73A      3.467216    74A      3.488588    75A      3.570905
      76A      3.740964    77A      3.759940    78A      3.943923
      79A      3.984988    80A      4.058598    81A      4.114051
      82A      4.119572    83A      4.191556    84A      4.391658
      85A      4.436767    86A      4.451437    87A      4.530867
      88A      4.920524    89A      5.037177    90A      5.042383
      91A      5.203706    92A      5.204489    93A      5.475914
      94A      5.484568    95A      5.825648    96A      5.931887
      97A      6.104659    98A      6.770883    99A      6.772891
     100A      7.070196   101A      7.135338   102A      7.530630

    Beta Occupied:

       1A    -19.178781     2A    -10.261273     3A    -10.206504
       4A     -1.066025     5A     -0.750339     6A     -0.524307
       7A     -0.452085     8A     -0.446667     9A     -0.439231
      10A     -0.382507    11A     -0.347699

    Beta Virtual:

      12A     -0.053298    13A     -0.002257    14A      0.095060
      15A      0.142148    16A      0.144944    17A      0.229107
      18A      0.274183    19A      0.433547    20A      0.435771
      21A      0.466429    22A      0.500782    23A      0.527309
      24A      0.539135    25A      0.569477    26A      0.581850
      27A      0.623561    28A      0.627262    29A      0.649705
      30A      0.739235    31A      0.778754    32A      0.795766
      33A      0.833375    34A      0.921921    35A      0.946639
      36A      0.950362    37A      1.027769    38A      1.090461
      39A      1.111520    40A      1.160890    41A      1.230413
      42A      1.312410    43A      1.319347    44A      1.335151
      45A      1.413083    46A      1.416101    47A      1.480239
      48A      1.570717    49A      1.642058    50A      1.668576
      51A      1.726600    52A      1.818309    53A      1.850329
      54A      1.909165    55A      2.071493    56A      2.184517
      57A      2.510554    58A      2.694521    59A      2.758750
      60A      2.804178    61A      2.860335    62A      2.895923
      63A      2.980071    64A      3.051198    65A      3.068563
      66A      3.124196    67A      3.124603    68A      3.219668
      69A      3.358150    70A      3.384833    71A      3.398916
      72A      3.447919    73A      3.483228    74A      3.511820
      75A      3.584065    76A      3.766204    77A      3.769909
      78A      3.952737    79A      3.994313    80A      4.075112
      81A      4.122429    82A      4.128794    83A      4.203078
      84A      4.393870    85A      4.443018    86A      4.455633
      87A      4.541691    88A      4.924462    89A      5.054680
      90A      5.060487    91A      5.206714    92A      5.209449
      93A      5.488524    94A      5.498458    95A      5.838918
      96A      5.937473    97A      6.127940    98A      6.800300
      99A      6.802658   100A      7.074494   101A      7.164798
     102A      7.542311

    Final Occupation by Irrep:
              A
    DOCC [    11 ]
    SOCC [     1 ]

  @DF-UKS Final Energy:  -153.18841551014432

   => Energetics <=

    Nuclear Repulsion Energy =             62.8729890860468217
    One-Electron Energy =                -331.7427253638938964
    Two-Electron Energy =                 132.2635700960989880
    DFT Exchange-Correlation Energy =     -16.5822493283962054
    Empirical Dispersion Energy =           0.0000000000000000
    VV10 Nonlocal Energy =                  0.0000000000000000
    Total Energy =                       -153.1884155101443241

  UHF NO Occupations:
  HONO-2 :   10  A 1.9997835
  HONO-1 :   11  A 1.9992006
  HONO-0 :   12  A 1.0000000
  LUNO+0 :   13  A 0.0007994
  LUNO+1 :   14  A 0.0002165
  LUNO+2 :   15  A 0.0001771
  LUNO+3 :   16  A 0.0000618

Computation Completed

Properties will be evaluated at   0.000000,   0.000000,   0.000000 [a0]

Properties computed using the SCF density matrix

  Nuclear Dipole Moment: [e a0]
     X:     4.5302      Y:    -0.6736      Z:    -0.0000

  Electronic Dipole Moment: [e a0]
     X:    -3.6030      Y:     0.6280      Z:     0.0000

  Dipole Moment: [e a0]
     X:     0.9273      Y:    -0.0456      Z:    -0.0000     Total:     0.9284

  Dipole Moment: [D]
     X:     2.3569      Y:    -0.1159      Z:    -0.0000     Total:     2.3597

*** tstop() called on n090 at Thu Nov  4 14:57:47 2021
Module time:
	user time   =      44.24 seconds =       0.74 minutes
	system time =       0.50 seconds =       0.01 minutes
	total time  =         45 seconds =       0.75 minutes
Total time:
	user time   =      44.24 seconds =       0.74 minutes
	system time =       0.50 seconds =       0.01 minutes
	total time  =         45 seconds =       0.75 minutes
Grab this energy -153.18841551014432
    Psi4 stopped on: Thursday, 04 November 2021 02:57PM
    Psi4 wall time for execution: 0:00:44.77

*** Psi4 exiting successfully. Buy a developer a beer!
