                               Psi4 1.4a2.dev629

  ==> Input File <==

--------------------------------------------------------------------------
import os
memory 14 GB

molecule {
 C   -0.2599246625    0.8048047662    0.0000000005
 O   -2.1906578398   -0.3367288099    0.0000000098
 C    2.4097447731   -0.2442837570    0.0000000088
 H    2.3868984633   -2.3045063896    0.0000000305
 H    3.3902684331    0.4754243202   -1.6639513476
 H    3.3902687829    0.4754244901    1.6639511179
units bohr
0 2
}

basis {

assign 6-31g_2dfp_

[ 6-31g_2dfp_ ]

spherical

!----------------------------------------------------------------------
! Basis Set Exchange
! Version v0.8.13
! https://www.basissetexchange.org
!----------------------------------------------------------------------
!   Basis set: 6-31G(2df,p)
! Description: 6-31G(2df,p)
!        Role: orbital
!     Version: 0  (Data from the original Basis Set Exchange)
!----------------------------------------------------------------------

****
H     0
S    3   1.00
     18.7311370              0.03349460
      2.8253937              0.23472695
      0.6401217              0.81375733
S    1   1.00
      0.1612778              1.00000000
P    1   1.00
      1.5000000              1.0000000
P    1   1.00
      0.3750000              1.0000000
****
B     0
S    6   1.00
   2068.8823000              0.0018663
    310.6495700              0.0142515
     70.6830330              0.0695516
     19.8610800              0.2325729
      6.2993048              0.4670787
      2.1270270              0.3634314
SP   3   1.00
      4.7279710             -0.1303938              0.0745976
      1.1903377             -0.1307889              0.3078467
      0.3594117              1.1309444              0.7434568
SP   1   1.00
      0.1267512              1.0000000              1.0000000
D    1   1.00
      0.8020000              1.0000000
D    1   1.00
      0.2005000              1.0000000
F    1   1.00
      0.5000000              1.0000000
****
C     0
S    6   1.00
   3047.5249000              0.0018347
    457.3695100              0.0140373
    103.9486900              0.0688426
     29.2101550              0.2321844
      9.2866630              0.4679413
      3.1639270              0.3623120
SP   3   1.00
      7.8682724             -0.1193324              0.0689991
      1.8812885             -0.1608542              0.3164240
      0.5442493              1.1434564              0.7443083
SP   1   1.00
      0.1687144              1.0000000              1.0000000
D    1   1.00
      1.2520000              1.0000000
D    1   1.00
      0.3130000              1.0000000
F    1   1.00
      0.8000000              1.0000000
****
N     0
S    6   1.00
   4173.5110000              0.0018348
    627.4579000              0.0139950
    142.9021000              0.0685870
     40.2343300              0.2322410
     12.8202100              0.4690700
      4.3904370              0.3604550
SP   3   1.00
     11.6263580             -0.1149610              0.0675800
      2.7162800             -0.1691180              0.3239070
      0.7722180              1.1458520              0.7408950
SP   1   1.00
      0.2120313              1.0000000              1.0000000
D    1   1.00
      1.8260000              1.0000000
D    1   1.00
      0.4565000              1.0000000
F    1   1.00
      1.0000000              1.0000000
****
O     0
S    6   1.00
   5484.6717000              0.0018311
    825.2349500              0.0139501
    188.0469600              0.0684451
     52.9645000              0.2327143
     16.8975700              0.4701930
      5.7996353              0.3585209
SP   3   1.00
     15.5396160             -0.1107775              0.0708743
      3.5999336             -0.1480263              0.3397528
      1.0137618              1.1307670              0.7271586
SP   1   1.00
      0.2700058              1.0000000              1.0000000
D    1   1.00
      2.5840000              1.0000000
D    1   1.00
      0.6460000              1.0000000
F    1   1.00
      1.4000000              1.0000000
****
F     0
S    6   1.00
   7001.7130900              0.0018196169
   1051.3660900              0.0139160796
    239.2856900              0.0684053245
     67.3974453              0.233185760
     21.5199573              0.471267439
      7.40310130             0.356618546
SP   3   1.00
     20.8479528             -0.108506975            0.0716287243
      4.80830834            -0.146451658            0.3459121030
      1.34406986             1.128688580            0.7224699570
SP   1   1.00
      0.358151393            1.0000000              1.0000000
D    1   1.00
      3.5000000              1.0000000
D    1   1.00
      0.8750000              1.0000000
F    1   1.00
      1.8500000              1.0000000
****
Al     0
S    6   1.00
  13983.1000000              0.00194267
   2098.7500000              0.0148599
    477.7050000              0.0728494
    134.3600000              0.2468300
     42.8709000              0.4872580
     14.5189000              0.3234960
SP   6   1.00
    239.6680000             -0.00292619             0.00460285
     57.4419000             -0.0374080              0.0331990
     18.2859000             -0.1144870              0.1362820
      6.5991400              0.1156350              0.3304760
      2.4904900              0.6125950              0.4491460
      0.9445400              0.3937990              0.2657040
SP   3   1.00
      1.2779000             -0.2276060             -0.0175130
      0.3975900              0.00144583             0.2445330
      0.1600950              1.0927900              0.8049340
SP   1   1.00
      0.0556577              1.0000000              1.0000000
D    1   1.00
      0.6500000              1.0000000
D    1   1.00
      0.1625000              1.0000000
F    1   1.00
      0.2500000              1.0000000
****
Si     0
S    6   1.00
  16115.9000000              0.00195948
   2425.5800000              0.01492880
    553.8670000              0.07284780
    156.3400000              0.24613000
     50.0683000              0.48591400
     17.0178000              0.32500200
SP   6   1.00
    292.7180000             -0.00278094             0.00443826
     69.8731000             -0.03571460             0.03266790
     22.3363000             -0.11498500             0.13472100
      8.1503900              0.09356340             0.32867800
      3.1345800              0.60301700             0.44964000
      1.2254300              0.41895900             0.26137200
SP   3   1.00
      1.7273800             -0.24463000            -0.01779510
      0.5729220              0.00431572             0.25353900
      0.2221920              1.09818000             0.80066900
SP   1   1.00
      0.0778369              1.00000000             1.00000000
D    1   1.00
      0.9000000              1.0000000
D    1   1.00
      0.2250000              1.0000000
F    1   1.00
      0.3200000              1.0000000
****
P     0
S    6   1.00
  19413.3000000              0.0018516
   2909.4200000              0.0142062
    661.3640000              0.0699995
    185.7590000              0.2400790
     59.1943000              0.4847620
     20.0310000              0.3352000
SP   6   1.00
    339.4780000             -0.00278217             0.00456462
     81.0101000             -0.0360499              0.03369360
     25.8780000             -0.1166310              0.13975500
      9.4522100              0.0968328              0.33936200
      3.6656600              0.6144180              0.45092100
      1.4674600              0.4037980              0.23858600
SP   3   1.00
      2.1562300             -0.2529230             -0.01776530
      0.7489970              0.0328517              0.27405800
      0.2831450              1.0812500              0.78542100
SP   1   1.00
      0.0998317              1.0000000              1.00000000
D    1   1.00
      1.1000000              1.0000000
D    1   1.00
      0.2750000              1.0000000
F    1   1.00
      0.4500000              1.0000000
****
S     0
S    6   1.00
  21917.1000000              0.0018690
   3301.4900000              0.0142300
    754.1460000              0.0696960
    212.7110000              0.2384870
     67.9896000              0.4833070
     23.0515000              0.3380740
SP   6   1.00
    423.7350000             -0.0023767              0.0040610
    100.7100000             -0.0316930              0.0306810
     32.1599000             -0.1133170              0.1304520
     11.8079000              0.0560900              0.3272050
      4.6311000              0.5922550              0.4528510
      1.8702500              0.4550060              0.2560420
SP   3   1.00
      2.6158400             -0.2503740             -0.0145110
      0.9221670              0.0669570              0.3102630
      0.3412870              1.0545100              0.7544830
SP   1   1.00
      0.1171670              1.0000000              1.0000000
D    1   1.00
      1.3000000              1.0000000
D    1   1.00
      0.3250000              1.0000000
F    1   1.00
      0.5500000              1.0000000
****
Cl     0
S    6   1.00
  25180.1000000              0.0018330
   3780.3500000              0.0140340
    860.4740000              0.0690970
    242.1450000              0.2374520
     77.3349000              0.4830340
     26.2470000              0.3398560
SP   6   1.00
    491.7650000             -0.0022974              0.0039894
    116.9840000             -0.0307140              0.0303180
     37.4153000             -0.1125280              0.1298800
     13.7834000              0.0450160              0.3279510
      5.4521500              0.5893530              0.4535270
      2.2258800              0.4652060              0.2521540
SP   3   1.00
      3.1864900             -0.2518300             -0.0142990
      1.1442700              0.0615890              0.3235720
      0.4203770              1.0601800              0.7435070
SP   1   1.00
      0.1426570              1.0000000              1.0000000
D    1   1.00
      1.5000000              1.0000000
D    1   1.00
      0.3750000              1.0000000
F    1   1.00
      0.7000000              1.0000000
****
}

set {
reference uhf
freeze_core true
e_convergence 10
d_convergence 10
dft_spherical_points 1202
dft_radial_points 99
}

e = energy('b3lyp')

print_out('Grab this energy {0}'.format(e))
--------------------------------------------------------------------------

    Molecular point group: c1

    Geometry (in Bohr), charge = 0, multiplicity = 2:

       Center              X                  Y                   Z               Mass
    ------------   -----------------  -----------------  -----------------  -----------------
         C           -0.259869508828     0.805361422261    -0.000000001071    12.000000000000
         O           -2.190602686128    -0.336172153839     0.000000008229    15.994914619570
         C            2.409799926772    -0.243727100939     0.000000007229    12.000000000000
         H            2.386953616972    -2.303949733539     0.000000028929     1.007825032230
         H            3.390323586772     0.475980976261    -1.663951349171     1.007825032230
         H            3.390323936572     0.475981146161     1.663951116329     1.007825032230

  Charge       = 0
  Multiplicity = 2
  Basis Set: ANONYMOUS5E95C401
    Blend: 6-31G_2DFP_
  Basis Set: (ANONYMOUS5E95C401 AUX)
    Blend: DEF2-UNIVERSAL-JKFIT

    Orbital Energies [Eh]
    ---------------------

    Alpha Occupied:

       1A    -19.186892     2A    -10.271622     3A    -10.210389
       4A     -1.081152     5A     -0.761940     6A     -0.543926
       7A     -0.466612     8A     -0.457515     9A     -0.456028
      10A     -0.387326    11A     -0.386136    12A     -0.192303

    Alpha Virtual:

      13A     -0.018893    14A      0.091696    15A      0.137301
      16A      0.140960    17A      0.217685    18A      0.268150
      19A      0.427914    20A      0.431946    21A      0.443563
      22A      0.493655    23A      0.506285    24A      0.530514
      25A      0.562848    26A      0.577582    27A      0.608326
      28A      0.615597    29A      0.644200    30A      0.717619
      31A      0.766196    32A      0.785317    33A      0.832256
      34A      0.917360    35A      0.926938    36A      0.935783
      37A      1.023276    38A      1.085665    39A      1.107932
      40A      1.152784    41A      1.220481    42A      1.306541
      43A      1.315899    44A      1.327836    45A      1.404320
      46A      1.407746    47A      1.467987    48A      1.560495
      49A      1.630334    50A      1.653760    51A      1.720518
      52A      1.812643    53A      1.834484    54A      1.901998
      55A      2.065091    56A      2.165794    57A      2.495227
      58A      2.679755    59A      2.743838    60A      2.784053
      61A      2.842392    62A      2.894111    63A      2.973115
      64A      3.032250    65A      3.058811    66A      3.105451
      67A      3.114203    68A      3.182681    69A      3.314196
      70A      3.369504    71A      3.393282    72A      3.440470
      73A      3.465185    74A      3.485641    75A      3.570872
      76A      3.739032    77A      3.762069    78A      3.941897
      79A      3.983188    80A      4.055064    81A      4.110723
      82A      4.119374    83A      4.188634    84A      4.386194
      85A      4.434569    86A      4.450555    87A      4.533116
      88A      4.919397    89A      5.037002    90A      5.042181
      91A      5.197678    92A      5.208061    93A      5.473309
      94A      5.481895    95A      5.826625    96A      5.930009
      97A      6.103700    98A      6.770619    99A      6.772735
     100A      7.070899   101A      7.135174   102A      7.529682

    Beta Occupied:

       1A    -19.178817     2A    -10.261565     3A    -10.207007
       4A     -1.065209     5A     -0.750142     6A     -0.524187
       7A     -0.451473     8A     -0.447279     9A     -0.438745
      10A     -0.382159    11A     -0.347826

    Beta Virtual:

      12A     -0.052828    13A     -0.002615    14A      0.094384
      15A      0.142987    16A      0.144081    17A      0.228124
      18A      0.273847    19A      0.433915    20A      0.435111
      21A      0.465598    22A      0.500338    23A      0.527677
      24A      0.539420    25A      0.569191    26A      0.581777
      27A      0.622822    28A      0.626945    29A      0.649872
      30A      0.739535    31A      0.777332    32A      0.795311
      33A      0.833022    34A      0.922207    35A      0.943414
      36A      0.951010    37A      1.027473    38A      1.091796
      39A      1.109975    40A      1.159003    41A      1.229740
      42A      1.312183    43A      1.318689    44A      1.334613
      45A      1.413278    46A      1.414743    47A      1.480352
      48A      1.571533    49A      1.643645    50A      1.668165
      51A      1.726780    52A      1.815771    53A      1.848593
      54A      1.908671    55A      2.071819    56A      2.187208
      57A      2.507903    58A      2.694046    59A      2.758276
      60A      2.805191    61A      2.857728    62A      2.895734
      63A      2.982631    64A      3.048932    65A      3.067414
      66A      3.122606    67A      3.124054    68A      3.217378
      69A      3.357842    70A      3.381013    71A      3.399608
      72A      3.448503    73A      3.481111    74A      3.508554
      75A      3.584256    76A      3.764741    77A      3.771520
      78A      3.950570    79A      3.992476    80A      4.071486
      81A      4.122170    82A      4.125289    83A      4.200408
      84A      4.388481    85A      4.440746    86A      4.454699
      87A      4.544011    88A      4.923247    89A      5.054539
      90A      5.060215    91A      5.199840    92A      5.213797
      93A      5.485960    94A      5.495799    95A      5.839878
      96A      5.935600    97A      6.126915    98A      6.799943
      99A      6.802401   100A      7.075204   101A      7.164582
     102A      7.541358

    Final Occupation by Irrep:
              A
    DOCC [    11 ]
    SOCC [     1 ]

  @DF-UKS Final Energy:  -153.18843186947339

   => Energetics <=

    Nuclear Repulsion Energy =             62.7844800831414460
    One-Electron Energy =                -331.5695415332356788
    Two-Electron Energy =                 132.1769435948847047
    DFT Exchange-Correlation Energy =     -16.5803140142638377
    Empirical Dispersion Energy =           0.0000000000000000
    VV10 Nonlocal Energy =                  0.0000000000000000
    Total Energy =                       -153.1884318694733906

  UHF NO Occupations:
  HONO-2 :   10  A 1.9997842
  HONO-1 :   11  A 1.9992008
  HONO-0 :   12  A 1.0000000
  LUNO+0 :   13  A 0.0007992
  LUNO+1 :   14  A 0.0002158
  LUNO+2 :   15  A 0.0001796
  LUNO+3 :   16  A 0.0000617

Computation Completed

Properties will be evaluated at   0.000000,   0.000000,   0.000000 [a0]

Properties computed using the SCF density matrix

  Nuclear Dipole Moment: [e a0]
     X:     4.5424      Y:    -0.6716      Z:    -0.0000

  Electronic Dipole Moment: [e a0]
     X:    -3.6108      Y:     0.6223      Z:     0.0000

  Dipole Moment: [e a0]
     X:     0.9316      Y:    -0.0492      Z:    -0.0000     Total:     0.9329

  Dipole Moment: [D]
     X:     2.3678      Y:    -0.1251      Z:    -0.0000     Total:     2.3711

*** tstop() called on n089 at Thu Nov  4 14:49:47 2021
Module time:
	user time   =      44.66 seconds =       0.74 minutes
	system time =       0.51 seconds =       0.01 minutes
	total time  =         45 seconds =       0.75 minutes
Total time:
	user time   =      44.66 seconds =       0.74 minutes
	system time =       0.51 seconds =       0.01 minutes
	total time  =         45 seconds =       0.75 minutes
Grab this energy -153.1884318694734
    Psi4 stopped on: Thursday, 04 November 2021 02:49PM
    Psi4 wall time for execution: 0:00:45.22

*** Psi4 exiting successfully. Buy a developer a beer!
