                               Psi4 1.4a2.dev629

  ==> Input File <==

--------------------------------------------------------------------------
import os
memory 14 GB

molecule {
 C   -0.2592860810    0.8025172678    0.0010402714
 O   -2.1905764098   -0.3362994491    0.0040794098
 C    2.4093041336   -0.2428358206   -0.0008040023
 H    2.3871608725   -2.2997181874   -0.0033295575
 H    3.3967379408    0.4711732292   -1.6693721566
 H    3.3832574939    0.4752975800    1.6683858553
units bohr
0 2
}

basis {

assign 6-31g_2dfp_

[ 6-31g_2dfp_ ]

spherical

!----------------------------------------------------------------------
! Basis Set Exchange
! Version v0.8.13
! https://www.basissetexchange.org
!----------------------------------------------------------------------
!   Basis set: 6-31G(2df,p)
! Description: 6-31G(2df,p)
!        Role: orbital
!     Version: 0  (Data from the original Basis Set Exchange)
!----------------------------------------------------------------------

****
H     0
S    3   1.00
     18.7311370              0.03349460
      2.8253937              0.23472695
      0.6401217              0.81375733
S    1   1.00
      0.1612778              1.00000000
P    1   1.00
      1.5000000              1.0000000
P    1   1.00
      0.3750000              1.0000000
****
B     0
S    6   1.00
   2068.8823000              0.0018663
    310.6495700              0.0142515
     70.6830330              0.0695516
     19.8610800              0.2325729
      6.2993048              0.4670787
      2.1270270              0.3634314
SP   3   1.00
      4.7279710             -0.1303938              0.0745976
      1.1903377             -0.1307889              0.3078467
      0.3594117              1.1309444              0.7434568
SP   1   1.00
      0.1267512              1.0000000              1.0000000
D    1   1.00
      0.8020000              1.0000000
D    1   1.00
      0.2005000              1.0000000
F    1   1.00
      0.5000000              1.0000000
****
C     0
S    6   1.00
   3047.5249000              0.0018347
    457.3695100              0.0140373
    103.9486900              0.0688426
     29.2101550              0.2321844
      9.2866630              0.4679413
      3.1639270              0.3623120
SP   3   1.00
      7.8682724             -0.1193324              0.0689991
      1.8812885             -0.1608542              0.3164240
      0.5442493              1.1434564              0.7443083
SP   1   1.00
      0.1687144              1.0000000              1.0000000
D    1   1.00
      1.2520000              1.0000000
D    1   1.00
      0.3130000              1.0000000
F    1   1.00
      0.8000000              1.0000000
****
N     0
S    6   1.00
   4173.5110000              0.0018348
    627.4579000              0.0139950
    142.9021000              0.0685870
     40.2343300              0.2322410
     12.8202100              0.4690700
      4.3904370              0.3604550
SP   3   1.00
     11.6263580             -0.1149610              0.0675800
      2.7162800             -0.1691180              0.3239070
      0.7722180              1.1458520              0.7408950
SP   1   1.00
      0.2120313              1.0000000              1.0000000
D    1   1.00
      1.8260000              1.0000000
D    1   1.00
      0.4565000              1.0000000
F    1   1.00
      1.0000000              1.0000000
****
O     0
S    6   1.00
   5484.6717000              0.0018311
    825.2349500              0.0139501
    188.0469600              0.0684451
     52.9645000              0.2327143
     16.8975700              0.4701930
      5.7996353              0.3585209
SP   3   1.00
     15.5396160             -0.1107775              0.0708743
      3.5999336             -0.1480263              0.3397528
      1.0137618              1.1307670              0.7271586
SP   1   1.00
      0.2700058              1.0000000              1.0000000
D    1   1.00
      2.5840000              1.0000000
D    1   1.00
      0.6460000              1.0000000
F    1   1.00
      1.4000000              1.0000000
****
F     0
S    6   1.00
   7001.7130900              0.0018196169
   1051.3660900              0.0139160796
    239.2856900              0.0684053245
     67.3974453              0.233185760
     21.5199573              0.471267439
      7.40310130             0.356618546
SP   3   1.00
     20.8479528             -0.108506975            0.0716287243
      4.80830834            -0.146451658            0.3459121030
      1.34406986             1.128688580            0.7224699570
SP   1   1.00
      0.358151393            1.0000000              1.0000000
D    1   1.00
      3.5000000              1.0000000
D    1   1.00
      0.8750000              1.0000000
F    1   1.00
      1.8500000              1.0000000
****
Al     0
S    6   1.00
  13983.1000000              0.00194267
   2098.7500000              0.0148599
    477.7050000              0.0728494
    134.3600000              0.2468300
     42.8709000              0.4872580
     14.5189000              0.3234960
SP   6   1.00
    239.6680000             -0.00292619             0.00460285
     57.4419000             -0.0374080              0.0331990
     18.2859000             -0.1144870              0.1362820
      6.5991400              0.1156350              0.3304760
      2.4904900              0.6125950              0.4491460
      0.9445400              0.3937990              0.2657040
SP   3   1.00
      1.2779000             -0.2276060             -0.0175130
      0.3975900              0.00144583             0.2445330
      0.1600950              1.0927900              0.8049340
SP   1   1.00
      0.0556577              1.0000000              1.0000000
D    1   1.00
      0.6500000              1.0000000
D    1   1.00
      0.1625000              1.0000000
F    1   1.00
      0.2500000              1.0000000
****
Si     0
S    6   1.00
  16115.9000000              0.00195948
   2425.5800000              0.01492880
    553.8670000              0.07284780
    156.3400000              0.24613000
     50.0683000              0.48591400
     17.0178000              0.32500200
SP   6   1.00
    292.7180000             -0.00278094             0.00443826
     69.8731000             -0.03571460             0.03266790
     22.3363000             -0.11498500             0.13472100
      8.1503900              0.09356340             0.32867800
      3.1345800              0.60301700             0.44964000
      1.2254300              0.41895900             0.26137200
SP   3   1.00
      1.7273800             -0.24463000            -0.01779510
      0.5729220              0.00431572             0.25353900
      0.2221920              1.09818000             0.80066900
SP   1   1.00
      0.0778369              1.00000000             1.00000000
D    1   1.00
      0.9000000              1.0000000
D    1   1.00
      0.2250000              1.0000000
F    1   1.00
      0.3200000              1.0000000
****
P     0
S    6   1.00
  19413.3000000              0.0018516
   2909.4200000              0.0142062
    661.3640000              0.0699995
    185.7590000              0.2400790
     59.1943000              0.4847620
     20.0310000              0.3352000
SP   6   1.00
    339.4780000             -0.00278217             0.00456462
     81.0101000             -0.0360499              0.03369360
     25.8780000             -0.1166310              0.13975500
      9.4522100              0.0968328              0.33936200
      3.6656600              0.6144180              0.45092100
      1.4674600              0.4037980              0.23858600
SP   3   1.00
      2.1562300             -0.2529230             -0.01776530
      0.7489970              0.0328517              0.27405800
      0.2831450              1.0812500              0.78542100
SP   1   1.00
      0.0998317              1.0000000              1.00000000
D    1   1.00
      1.1000000              1.0000000
D    1   1.00
      0.2750000              1.0000000
F    1   1.00
      0.4500000              1.0000000
****
S     0
S    6   1.00
  21917.1000000              0.0018690
   3301.4900000              0.0142300
    754.1460000              0.0696960
    212.7110000              0.2384870
     67.9896000              0.4833070
     23.0515000              0.3380740
SP   6   1.00
    423.7350000             -0.0023767              0.0040610
    100.7100000             -0.0316930              0.0306810
     32.1599000             -0.1133170              0.1304520
     11.8079000              0.0560900              0.3272050
      4.6311000              0.5922550              0.4528510
      1.8702500              0.4550060              0.2560420
SP   3   1.00
      2.6158400             -0.2503740             -0.0145110
      0.9221670              0.0669570              0.3102630
      0.3412870              1.0545100              0.7544830
SP   1   1.00
      0.1171670              1.0000000              1.0000000
D    1   1.00
      1.3000000              1.0000000
D    1   1.00
      0.3250000              1.0000000
F    1   1.00
      0.5500000              1.0000000
****
Cl     0
S    6   1.00
  25180.1000000              0.0018330
   3780.3500000              0.0140340
    860.4740000              0.0690970
    242.1450000              0.2374520
     77.3349000              0.4830340
     26.2470000              0.3398560
SP   6   1.00
    491.7650000             -0.0022974              0.0039894
    116.9840000             -0.0307140              0.0303180
     37.4153000             -0.1125280              0.1298800
     13.7834000              0.0450160              0.3279510
      5.4521500              0.5893530              0.4535270
      2.2258800              0.4652060              0.2521540
SP   3   1.00
      3.1864900             -0.2518300             -0.0142990
      1.1442700              0.0615890              0.3235720
      0.4203770              1.0601800              0.7435070
SP   1   1.00
      0.1426570              1.0000000              1.0000000
D    1   1.00
      1.5000000              1.0000000
D    1   1.00
      0.3750000              1.0000000
F    1   1.00
      0.7000000              1.0000000
****
}

set {
reference uhf
freeze_core true
e_convergence 10
d_convergence 10
dft_spherical_points 1202
dft_radial_points 99
}

e = energy('b3lyp')

print_out('Grab this energy {0}'.format(e))
--------------------------------------------------------------------------

    Molecular point group: c1

    Geometry (in Bohr), charge = 0, multiplicity = 2:

       Center              X                  Y                   Z               Mass
    ------------   -----------------  -----------------  -----------------  -----------------
         C           -0.259309875232     0.803138866872    -0.000441313814    12.000000000000
         O           -2.190600204032    -0.335677850028     0.002597824586    15.994914619570
         C            2.409280339368    -0.242214221528    -0.002285587514    12.000000000000
         H            2.387137078268    -2.299096588328    -0.004811142714     1.007825032230
         H            3.396714146568     0.471794828272    -1.670853741814     1.007825032230
         H            3.383233699668     0.475919179072     1.666904270086     1.007825032230

  Charge       = 0
  Multiplicity = 2
  Basis Set: ANONYMOUS43841331
    Blend: 6-31G_2DFP_
  Basis Set: (ANONYMOUS43841331 AUX)
    Blend: DEF2-UNIVERSAL-JKFIT

    Orbital Energies [Eh]
    ---------------------

    Alpha Occupied:

       1A    -19.186803     2A    -10.271425     3A    -10.210434
       4A     -1.081336     5A     -0.762073     6A     -0.543902
       7A     -0.466516     8A     -0.457809     9A     -0.456151
      10A     -0.387409    11A     -0.386028    12A     -0.191919

    Alpha Virtual:

      13A     -0.018804    14A      0.091437    15A      0.137516
      16A      0.140756    17A      0.218111    18A      0.268310
      19A      0.427880    20A      0.432058    21A      0.443662
      22A      0.493303    23A      0.506385    24A      0.530333
      25A      0.562570    26A      0.577697    27A      0.608792
      28A      0.615434    29A      0.644449    30A      0.717751
      31A      0.766142    32A      0.785387    33A      0.831983
      34A      0.917233    35A      0.926905    36A      0.936134
      37A      1.023153    38A      1.086331    39A      1.106595
      40A      1.153389    41A      1.222701    42A      1.306467
      43A      1.316969    44A      1.327865    45A      1.402947
      46A      1.407090    47A      1.468509    48A      1.560132
      49A      1.630941    50A      1.653869    51A      1.719894
      52A      1.811833    53A      1.835469    54A      1.901885
      55A      2.065209    56A      2.167190    57A      2.495792
      58A      2.680169    59A      2.744448    60A      2.784816
      61A      2.840018    62A      2.894738    63A      2.974555
      64A      3.031504    65A      3.058582    66A      3.104734
      67A      3.115439    68A      3.181190    69A      3.314788
      70A      3.368441    71A      3.393770    72A      3.441308
      73A      3.465635    74A      3.485218    75A      3.571046
      76A      3.740005    77A      3.764102    78A      3.943178
      79A      3.982408    80A      4.055842    81A      4.109891
      82A      4.120154    83A      4.189535    84A      4.387446
      85A      4.435120    86A      4.448109    87A      4.534511
      88A      4.918336    89A      5.037112    90A      5.042309
      91A      5.192818    92A      5.212350    93A      5.474179
      94A      5.482476    95A      5.826844    96A      5.930887
      97A      6.105146    98A      6.770795    99A      6.772963
     100A      7.071333   101A      7.135218   102A      7.530223

    Beta Occupied:

       1A    -19.178737     2A    -10.261357     3A    -10.207063
       4A     -1.065408     5A     -0.750266     6A     -0.524156
       7A     -0.451705     8A     -0.447259     9A     -0.438818
      10A     -0.382245    11A     -0.347847

    Beta Virtual:

      12A     -0.052358    13A     -0.002538    14A      0.094077
      15A      0.143206    16A      0.143934    17A      0.228482
      18A      0.273993    19A      0.433898    20A      0.435054
      21A      0.465839    22A      0.499987    23A      0.527717
      24A      0.539207    25A      0.568868    26A      0.581930
      27A      0.622710    28A      0.627443    29A      0.650216
      30A      0.739739    31A      0.777277    32A      0.795375
      33A      0.832760    34A      0.922082    35A      0.943612
      36A      0.951084    37A      1.027346    38A      1.092371
      39A      1.108750    40A      1.159587    41A      1.231969
      42A      1.311958    43A      1.319791    44A      1.334655
      45A      1.412587    46A      1.413333    47A      1.480863
      48A      1.571230    49A      1.644301    50A      1.668246
      51A      1.726125    52A      1.814995    53A      1.849591
      54A      1.908586    55A      2.071922    56A      2.188618
      57A      2.508473    58A      2.694433    59A      2.759006
      60A      2.805901    61A      2.855296    62A      2.896381
      63A      2.984020    64A      3.048162    65A      3.067293
      66A      3.122800    67A      3.124572    68A      3.215914
      69A      3.358459    70A      3.379877    71A      3.399919
      72A      3.449218    73A      3.481702    74A      3.508290
      75A      3.584429    76A      3.765723    77A      3.773458
      78A      3.951878    79A      3.991676    80A      4.072145
      81A      4.122901    82A      4.123863    83A      4.201907
      84A      4.389736    85A      4.441298    86A      4.452336
      87A      4.545438    88A      4.922166    89A      5.054659
      90A      5.060314    91A      5.194943    92A      5.218080
      93A      5.486824    94A      5.496402    95A      5.840096
      96A      5.936479    97A      6.128348    98A      6.800077
      99A      6.802585   100A      7.075636   101A      7.164597
     102A      7.541888

    Final Occupation by Irrep:
              A
    DOCC [    11 ]
    SOCC [     1 ]

  @DF-UKS Final Energy:  -153.18842546006587

   => Energetics <=

    Nuclear Repulsion Energy =             62.8024235566917426
    One-Electron Energy =                -331.6047386478147700
    Two-Electron Energy =                 132.1945955198493152
    DFT Exchange-Correlation Energy =     -16.5807058887921457
    Empirical Dispersion Energy =           0.0000000000000000
    VV10 Nonlocal Energy =                  0.0000000000000000
    Total Energy =                       -153.1884254600658721

  UHF NO Occupations:
  HONO-2 :   10  A 1.9997862
  HONO-1 :   11  A 1.9992019
  HONO-0 :   12  A 1.0000000
  LUNO+0 :   13  A 0.0007981
  LUNO+1 :   14  A 0.0002138
  LUNO+2 :   15  A 0.0001803
  LUNO+3 :   16  A 0.0000615

Computation Completed

Properties will be evaluated at   0.000000,   0.000000,   0.000000 [a0]

Properties computed using the SCF density matrix

  Nuclear Dipole Moment: [e a0]
     X:     4.5421      Y:    -0.6713      Z:    -0.0043

  Electronic Dipole Moment: [e a0]
     X:    -3.6104      Y:     0.6211      Z:     0.0034

  Dipole Moment: [e a0]
     X:     0.9317      Y:    -0.0501      Z:    -0.0010     Total:     0.9331

  Dipole Moment: [D]
     X:     2.3682      Y:    -0.1274      Z:    -0.0025     Total:     2.3717

*** tstop() called on n036 at Thu Nov  4 14:57:35 2021
Module time:
	user time   =      62.54 seconds =       1.04 minutes
	system time =       0.37 seconds =       0.01 minutes
	total time  =         63 seconds =       1.05 minutes
Total time:
	user time   =      62.54 seconds =       1.04 minutes
	system time =       0.37 seconds =       0.01 minutes
	total time  =         63 seconds =       1.05 minutes
Grab this energy -153.18842546006587
    Psi4 stopped on: Thursday, 04 November 2021 02:57PM
    Psi4 wall time for execution: 0:01:02.94

*** Psi4 exiting successfully. Buy a developer a beer!
