                               Psi4 1.4a2.dev629

  ==> Input File <==

--------------------------------------------------------------------------
import os
memory 14 GB

molecule {
 C   -0.2618716082    0.8000392422    0.0000000000
 O   -2.2031181190   -0.3255547987    0.0000000000
 C    2.4153269298   -0.2476908039   -0.0000000000
 H    2.3916844481   -2.3113489386   -0.0000000000
 H    3.3913081658    0.4694604734   -1.6650206677
 H    3.3913081658    0.4694604734    1.6650206677
units bohr
0 2
}

basis {

assign 6-31g_2dfp_

[ 6-31g_2dfp_ ]

spherical

!----------------------------------------------------------------------
! Basis Set Exchange
! Version v0.8.13
! https://www.basissetexchange.org
!----------------------------------------------------------------------
!   Basis set: 6-31G(2df,p)
! Description: 6-31G(2df,p)
!        Role: orbital
!     Version: 0  (Data from the original Basis Set Exchange)
!----------------------------------------------------------------------

****
H     0
S    3   1.00
     18.7311370              0.03349460
      2.8253937              0.23472695
      0.6401217              0.81375733
S    1   1.00
      0.1612778              1.00000000
P    1   1.00
      1.5000000              1.0000000
P    1   1.00
      0.3750000              1.0000000
****
B     0
S    6   1.00
   2068.8823000              0.0018663
    310.6495700              0.0142515
     70.6830330              0.0695516
     19.8610800              0.2325729
      6.2993048              0.4670787
      2.1270270              0.3634314
SP   3   1.00
      4.7279710             -0.1303938              0.0745976
      1.1903377             -0.1307889              0.3078467
      0.3594117              1.1309444              0.7434568
SP   1   1.00
      0.1267512              1.0000000              1.0000000
D    1   1.00
      0.8020000              1.0000000
D    1   1.00
      0.2005000              1.0000000
F    1   1.00
      0.5000000              1.0000000
****
C     0
S    6   1.00
   3047.5249000              0.0018347
    457.3695100              0.0140373
    103.9486900              0.0688426
     29.2101550              0.2321844
      9.2866630              0.4679413
      3.1639270              0.3623120
SP   3   1.00
      7.8682724             -0.1193324              0.0689991
      1.8812885             -0.1608542              0.3164240
      0.5442493              1.1434564              0.7443083
SP   1   1.00
      0.1687144              1.0000000              1.0000000
D    1   1.00
      1.2520000              1.0000000
D    1   1.00
      0.3130000              1.0000000
F    1   1.00
      0.8000000              1.0000000
****
N     0
S    6   1.00
   4173.5110000              0.0018348
    627.4579000              0.0139950
    142.9021000              0.0685870
     40.2343300              0.2322410
     12.8202100              0.4690700
      4.3904370              0.3604550
SP   3   1.00
     11.6263580             -0.1149610              0.0675800
      2.7162800             -0.1691180              0.3239070
      0.7722180              1.1458520              0.7408950
SP   1   1.00
      0.2120313              1.0000000              1.0000000
D    1   1.00
      1.8260000              1.0000000
D    1   1.00
      0.4565000              1.0000000
F    1   1.00
      1.0000000              1.0000000
****
O     0
S    6   1.00
   5484.6717000              0.0018311
    825.2349500              0.0139501
    188.0469600              0.0684451
     52.9645000              0.2327143
     16.8975700              0.4701930
      5.7996353              0.3585209
SP   3   1.00
     15.5396160             -0.1107775              0.0708743
      3.5999336             -0.1480263              0.3397528
      1.0137618              1.1307670              0.7271586
SP   1   1.00
      0.2700058              1.0000000              1.0000000
D    1   1.00
      2.5840000              1.0000000
D    1   1.00
      0.6460000              1.0000000
F    1   1.00
      1.4000000              1.0000000
****
F     0
S    6   1.00
   7001.7130900              0.0018196169
   1051.3660900              0.0139160796
    239.2856900              0.0684053245
     67.3974453              0.233185760
     21.5199573              0.471267439
      7.40310130             0.356618546
SP   3   1.00
     20.8479528             -0.108506975            0.0716287243
      4.80830834            -0.146451658            0.3459121030
      1.34406986             1.128688580            0.7224699570
SP   1   1.00
      0.358151393            1.0000000              1.0000000
D    1   1.00
      3.5000000              1.0000000
D    1   1.00
      0.8750000              1.0000000
F    1   1.00
      1.8500000              1.0000000
****
Al     0
S    6   1.00
  13983.1000000              0.00194267
   2098.7500000              0.0148599
    477.7050000              0.0728494
    134.3600000              0.2468300
     42.8709000              0.4872580
     14.5189000              0.3234960
SP   6   1.00
    239.6680000             -0.00292619             0.00460285
     57.4419000             -0.0374080              0.0331990
     18.2859000             -0.1144870              0.1362820
      6.5991400              0.1156350              0.3304760
      2.4904900              0.6125950              0.4491460
      0.9445400              0.3937990              0.2657040
SP   3   1.00
      1.2779000             -0.2276060             -0.0175130
      0.3975900              0.00144583             0.2445330
      0.1600950              1.0927900              0.8049340
SP   1   1.00
      0.0556577              1.0000000              1.0000000
D    1   1.00
      0.6500000              1.0000000
D    1   1.00
      0.1625000              1.0000000
F    1   1.00
      0.2500000              1.0000000
****
Si     0
S    6   1.00
  16115.9000000              0.00195948
   2425.5800000              0.01492880
    553.8670000              0.07284780
    156.3400000              0.24613000
     50.0683000              0.48591400
     17.0178000              0.32500200
SP   6   1.00
    292.7180000             -0.00278094             0.00443826
     69.8731000             -0.03571460             0.03266790
     22.3363000             -0.11498500             0.13472100
      8.1503900              0.09356340             0.32867800
      3.1345800              0.60301700             0.44964000
      1.2254300              0.41895900             0.26137200
SP   3   1.00
      1.7273800             -0.24463000            -0.01779510
      0.5729220              0.00431572             0.25353900
      0.2221920              1.09818000             0.80066900
SP   1   1.00
      0.0778369              1.00000000             1.00000000
D    1   1.00
      0.9000000              1.0000000
D    1   1.00
      0.2250000              1.0000000
F    1   1.00
      0.3200000              1.0000000
****
P     0
S    6   1.00
  19413.3000000              0.0018516
   2909.4200000              0.0142062
    661.3640000              0.0699995
    185.7590000              0.2400790
     59.1943000              0.4847620
     20.0310000              0.3352000
SP   6   1.00
    339.4780000             -0.00278217             0.00456462
     81.0101000             -0.0360499              0.03369360
     25.8780000             -0.1166310              0.13975500
      9.4522100              0.0968328              0.33936200
      3.6656600              0.6144180              0.45092100
      1.4674600              0.4037980              0.23858600
SP   3   1.00
      2.1562300             -0.2529230             -0.01776530
      0.7489970              0.0328517              0.27405800
      0.2831450              1.0812500              0.78542100
SP   1   1.00
      0.0998317              1.0000000              1.00000000
D    1   1.00
      1.1000000              1.0000000
D    1   1.00
      0.2750000              1.0000000
F    1   1.00
      0.4500000              1.0000000
****
S     0
S    6   1.00
  21917.1000000              0.0018690
   3301.4900000              0.0142300
    754.1460000              0.0696960
    212.7110000              0.2384870
     67.9896000              0.4833070
     23.0515000              0.3380740
SP   6   1.00
    423.7350000             -0.0023767              0.0040610
    100.7100000             -0.0316930              0.0306810
     32.1599000             -0.1133170              0.1304520
     11.8079000              0.0560900              0.3272050
      4.6311000              0.5922550              0.4528510
      1.8702500              0.4550060              0.2560420
SP   3   1.00
      2.6158400             -0.2503740             -0.0145110
      0.9221670              0.0669570              0.3102630
      0.3412870              1.0545100              0.7544830
SP   1   1.00
      0.1171670              1.0000000              1.0000000
D    1   1.00
      1.3000000              1.0000000
D    1   1.00
      0.3250000              1.0000000
F    1   1.00
      0.5500000              1.0000000
****
Cl     0
S    6   1.00
  25180.1000000              0.0018330
   3780.3500000              0.0140340
    860.4740000              0.0690970
    242.1450000              0.2374520
     77.3349000              0.4830340
     26.2470000              0.3398560
SP   6   1.00
    491.7650000             -0.0022974              0.0039894
    116.9840000             -0.0307140              0.0303180
     37.4153000             -0.1125280              0.1298800
     13.7834000              0.0450160              0.3279510
      5.4521500              0.5893530              0.4535270
      2.2258800              0.4652060              0.2521540
SP   3   1.00
      3.1864900             -0.2518300             -0.0142990
      1.1442700              0.0615890              0.3235720
      0.4203770              1.0601800              0.7435070
SP   1   1.00
      0.1426570              1.0000000              1.0000000
D    1   1.00
      1.5000000              1.0000000
D    1   1.00
      0.3750000              1.0000000
F    1   1.00
      0.7000000              1.0000000
****
}

set {
reference uhf
freeze_core true
e_convergence 10
d_convergence 10
dft_spherical_points 1202
dft_radial_points 99
}

e = energy('b3lyp')

print_out('Grab this energy {0}'.format(e))
--------------------------------------------------------------------------

    Molecular point group: cs

    Geometry (in Bohr), charge = 0, multiplicity = 2:

       Center              X                  Y                   Z               Mass
    ------------   -----------------  -----------------  -----------------  -----------------
         C           -0.258358404358     0.799160716398     0.000000000000    12.000000000000
         O           -2.199604915158    -0.326433324502     0.000000000000    15.994914619570
         C            2.418840133642    -0.248569329702     0.000000000000    12.000000000000
         H            2.395197651942    -2.312227464402     0.000000000000     1.007825032230
         H            3.394821369642     0.468581947598    -1.665020667700     1.007825032230
         H            3.394821369642     0.468581947598     1.665020667700     1.007825032230

  Charge       = 0
  Multiplicity = 2
  Basis Set: ANONYMOUS0942420B
    Blend: 6-31G_2DFP_
  Basis Set: (ANONYMOUS0942420B AUX)
    Blend: DEF2-UNIVERSAL-JKFIT

    Orbital Energies [Eh]
    ---------------------

    Alpha Occupied:

       1Ap   -19.186999     2Ap   -10.271948     3Ap   -10.210773
       4Ap    -1.080707     5Ap    -0.761617     6Ap    -0.543814
       7Ap    -0.466023     8Ap    -0.457189     1App   -0.456158
       2App   -0.387642     9Ap    -0.386455    10Ap    -0.191528

    Alpha Virtual:

       3App   -0.019085    11Ap     0.091578    12Ap     0.136790
       4App    0.141298    13Ap     0.216216    14Ap     0.267790
      15Ap     0.427530     5App    0.431531    16Ap     0.443513
       6App    0.493471    17Ap     0.506522    18Ap     0.530253
       7App    0.563668    19Ap     0.577214    20Ap     0.608127
       8App    0.615653    21Ap     0.643654    22Ap     0.717995
       9App    0.764684    23Ap     0.784809    10App    0.832140
      11App    0.917506    24Ap     0.926185    25Ap     0.933971
      12App    1.023039    26Ap     1.085456    27Ap     1.106138
      13App    1.152168    28Ap     1.221360    29Ap     1.305583
      14App    1.316269    30Ap     1.325880    31Ap     1.402632
      15App    1.408731    32Ap     1.468148    33Ap     1.560015
      34Ap     1.632114    16App    1.653691    35Ap     1.721811
      17App    1.813167    36Ap     1.831232    37Ap     1.899188
      18App    2.066490    38Ap     2.169357    39Ap     2.493353
      19App    2.680439    40Ap     2.743050    41Ap     2.784332
      20App    2.841357    21App    2.894698    42Ap     2.975119
      43Ap     3.027676    22App    3.055936    23App    3.104809
      44Ap     3.112973    45Ap     3.180572    24App    3.313129
      46Ap     3.366658    25App    3.393272    26App    3.439761
      27App    3.464166    47Ap     3.483653    48Ap     3.570909
      49Ap     3.737743    50Ap     3.760810    51Ap     3.940502
      28App    3.979921    52Ap     4.052323    53Ap     4.106250
      29App    4.118521    54Ap     4.185818    30App    4.390222
      55Ap     4.430848    31App    4.447788    56Ap     4.530552
      57Ap     4.920923    58Ap     5.036924    32App    5.042040
      33App    5.198081    59Ap     5.205980    60Ap     5.471419
      34App    5.480535    61Ap     5.827381    35App    5.929031
      62Ap     6.102902    63Ap     6.770344    36App    6.772648
      37App    7.071337    64Ap     7.134539    65Ap     7.529123

    Beta Occupied:

       1Ap   -19.178968     2Ap   -10.261871     3Ap   -10.207396
       4Ap    -1.064823     5Ap    -0.749852     6Ap    -0.524038
       1App   -0.451648     7Ap    -0.446661     8Ap    -0.438543
       2App   -0.382460     9Ap    -0.348224

    Beta Virtual:

      10Ap    -0.052087     3App   -0.002811    11Ap     0.094287
      12Ap     0.142465     4App    0.144392    13Ap     0.226807
      14Ap     0.273485     5App    0.433542    15Ap     0.435150
      16Ap     0.464781     6App    0.500153    17Ap     0.527841
      18Ap     0.539599     7App    0.570020    19Ap     0.581441
       8App    0.622958    20Ap     0.626667    21Ap     0.649424
      22Ap     0.740075     9App    0.775822    23Ap     0.794811
      10App    0.832917    11App    0.922338    24Ap     0.940168
      25Ap     0.951562    12App    1.027220    26Ap     1.091546
      27Ap     1.108249    13App    1.158353    28Ap     1.230735
      29Ap     1.311060    14App    1.319068    30Ap     1.332659
      31Ap     1.412804    15App    1.414221    32Ap     1.480264
      33Ap     1.571162    34Ap     1.645591    16App    1.667949
      35Ap     1.728036    17App    1.816377    36Ap     1.845391
      37Ap     1.905800    18App    2.073176    38Ap     2.190673
      39Ap     2.506032    19App    2.694664    40Ap     2.757480
      41Ap     2.805604    20App    2.857071    21App    2.896345
      42Ap     2.984470    43Ap     3.044706    22App    3.064646
      44Ap     3.121433    23App    3.123268    45Ap     3.215397
      24App    3.356873    46Ap     3.378405    25App    3.399592
      26App    3.448573    27App    3.479174    47Ap     3.506590
      48Ap     3.584003    49Ap     3.763170    50Ap     3.770548
      51Ap     3.949099    28App    3.989222    52Ap     4.068636
      53Ap     4.121313    29App    4.121365    54Ap     4.197189
      30App    4.392549    55Ap     4.436983    31App    4.451865
      56Ap     4.541418    57Ap     4.924825    58Ap     5.054354
      32App    5.059932    33App    5.200228    59Ap     5.211648
      60Ap     5.484075    34App    5.494378    61Ap     5.840580
      35App    5.934615    62Ap     6.125994    63Ap     6.799467
      36App    6.802102    37App    7.075630    64Ap     7.163794
      65Ap     7.540760

    Final Occupation by Irrep:
             Ap   App
    DOCC [     9,    2 ]
    SOCC [     1,    0 ]

  @DF-UKS Final Energy:  -153.18839928473534

   => Energetics <=

    Nuclear Repulsion Energy =             62.6904120688155686
    One-Electron Energy =                -331.3832366913842407
    Two-Electron Energy =                 132.0832811231954054
    DFT Exchange-Correlation Energy =     -16.5788557853620908
    Empirical Dispersion Energy =           0.0000000000000000
    VV10 Nonlocal Energy =                  0.0000000000000000
    Total Energy =                       -153.1883992847353397

  UHF NO Occupations:
  HONO-2 :    8 Ap 1.9997827
  HONO-1 :    9 Ap 1.9992045
  HONO-0 :   10 Ap 1.0000000
  LUNO+0 :   11 Ap 0.0007955
  LUNO+1 :   12 Ap 0.0002173
  LUNO+2 :    3App 0.0001824
  LUNO+3 :   13 Ap 0.0000612

Computation Completed

Properties will be evaluated at   0.000000,   0.000000,   0.000000 [a0]

Properties computed using the SCF density matrix

  Nuclear Dipole Moment: [e a0]
     X:     4.5509      Y:    -0.6830      Z:     0.0000

  Electronic Dipole Moment: [e a0]
     X:    -3.6165      Y:     0.6306      Z:     0.0000

  Dipole Moment: [e a0]
     X:     0.9343      Y:    -0.0524      Z:     0.0000     Total:     0.9358

  Dipole Moment: [D]
     X:     2.3749      Y:    -0.1332      Z:     0.0000     Total:     2.3786

*** tstop() called on n022 at Tue Mar 15 10:27:35 2022
Module time:
	user time   =      62.30 seconds =       1.04 minutes
	system time =       0.41 seconds =       0.01 minutes
	total time  =         62 seconds =       1.03 minutes
Total time:
	user time   =      62.30 seconds =       1.04 minutes
	system time =       0.41 seconds =       0.01 minutes
	total time  =         62 seconds =       1.03 minutes
Grab this energy -153.18839928473534
    Psi4 stopped on: Tuesday, 15 March 2022 10:27AM
    Psi4 wall time for execution: 0:01:02.76

*** Psi4 exiting successfully. Buy a developer a beer!
