                               Psi4 1.4a2.dev629

  ==> Input File <==

--------------------------------------------------------------------------
import os
memory 14 GB

molecule {
 C   -0.2552523967    0.8030028292    0.0000000000
 O   -2.1862123966   -0.3288356828   -0.0000000000
 C    2.4056173020   -0.2458108858    0.0000000000
 H    2.3882201217   -2.3109297790   -0.0000000000
 H    3.3861326759    0.4684695831   -1.6637424811
 H    3.3861326759    0.4684695831    1.6637424811
units bohr
0 2
}

basis {

assign 6-31g_2dfp_

[ 6-31g_2dfp_ ]

spherical

!----------------------------------------------------------------------
! Basis Set Exchange
! Version v0.8.13
! https://www.basissetexchange.org
!----------------------------------------------------------------------
!   Basis set: 6-31G(2df,p)
! Description: 6-31G(2df,p)
!        Role: orbital
!     Version: 0  (Data from the original Basis Set Exchange)
!----------------------------------------------------------------------

****
H     0
S    3   1.00
     18.7311370              0.03349460
      2.8253937              0.23472695
      0.6401217              0.81375733
S    1   1.00
      0.1612778              1.00000000
P    1   1.00
      1.5000000              1.0000000
P    1   1.00
      0.3750000              1.0000000
****
B     0
S    6   1.00
   2068.8823000              0.0018663
    310.6495700              0.0142515
     70.6830330              0.0695516
     19.8610800              0.2325729
      6.2993048              0.4670787
      2.1270270              0.3634314
SP   3   1.00
      4.7279710             -0.1303938              0.0745976
      1.1903377             -0.1307889              0.3078467
      0.3594117              1.1309444              0.7434568
SP   1   1.00
      0.1267512              1.0000000              1.0000000
D    1   1.00
      0.8020000              1.0000000
D    1   1.00
      0.2005000              1.0000000
F    1   1.00
      0.5000000              1.0000000
****
C     0
S    6   1.00
   3047.5249000              0.0018347
    457.3695100              0.0140373
    103.9486900              0.0688426
     29.2101550              0.2321844
      9.2866630              0.4679413
      3.1639270              0.3623120
SP   3   1.00
      7.8682724             -0.1193324              0.0689991
      1.8812885             -0.1608542              0.3164240
      0.5442493              1.1434564              0.7443083
SP   1   1.00
      0.1687144              1.0000000              1.0000000
D    1   1.00
      1.2520000              1.0000000
D    1   1.00
      0.3130000              1.0000000
F    1   1.00
      0.8000000              1.0000000
****
N     0
S    6   1.00
   4173.5110000              0.0018348
    627.4579000              0.0139950
    142.9021000              0.0685870
     40.2343300              0.2322410
     12.8202100              0.4690700
      4.3904370              0.3604550
SP   3   1.00
     11.6263580             -0.1149610              0.0675800
      2.7162800             -0.1691180              0.3239070
      0.7722180              1.1458520              0.7408950
SP   1   1.00
      0.2120313              1.0000000              1.0000000
D    1   1.00
      1.8260000              1.0000000
D    1   1.00
      0.4565000              1.0000000
F    1   1.00
      1.0000000              1.0000000
****
O     0
S    6   1.00
   5484.6717000              0.0018311
    825.2349500              0.0139501
    188.0469600              0.0684451
     52.9645000              0.2327143
     16.8975700              0.4701930
      5.7996353              0.3585209
SP   3   1.00
     15.5396160             -0.1107775              0.0708743
      3.5999336             -0.1480263              0.3397528
      1.0137618              1.1307670              0.7271586
SP   1   1.00
      0.2700058              1.0000000              1.0000000
D    1   1.00
      2.5840000              1.0000000
D    1   1.00
      0.6460000              1.0000000
F    1   1.00
      1.4000000              1.0000000
****
F     0
S    6   1.00
   7001.7130900              0.0018196169
   1051.3660900              0.0139160796
    239.2856900              0.0684053245
     67.3974453              0.233185760
     21.5199573              0.471267439
      7.40310130             0.356618546
SP   3   1.00
     20.8479528             -0.108506975            0.0716287243
      4.80830834            -0.146451658            0.3459121030
      1.34406986             1.128688580            0.7224699570
SP   1   1.00
      0.358151393            1.0000000              1.0000000
D    1   1.00
      3.5000000              1.0000000
D    1   1.00
      0.8750000              1.0000000
F    1   1.00
      1.8500000              1.0000000
****
Al     0
S    6   1.00
  13983.1000000              0.00194267
   2098.7500000              0.0148599
    477.7050000              0.0728494
    134.3600000              0.2468300
     42.8709000              0.4872580
     14.5189000              0.3234960
SP   6   1.00
    239.6680000             -0.00292619             0.00460285
     57.4419000             -0.0374080              0.0331990
     18.2859000             -0.1144870              0.1362820
      6.5991400              0.1156350              0.3304760
      2.4904900              0.6125950              0.4491460
      0.9445400              0.3937990              0.2657040
SP   3   1.00
      1.2779000             -0.2276060             -0.0175130
      0.3975900              0.00144583             0.2445330
      0.1600950              1.0927900              0.8049340
SP   1   1.00
      0.0556577              1.0000000              1.0000000
D    1   1.00
      0.6500000              1.0000000
D    1   1.00
      0.1625000              1.0000000
F    1   1.00
      0.2500000              1.0000000
****
Si     0
S    6   1.00
  16115.9000000              0.00195948
   2425.5800000              0.01492880
    553.8670000              0.07284780
    156.3400000              0.24613000
     50.0683000              0.48591400
     17.0178000              0.32500200
SP   6   1.00
    292.7180000             -0.00278094             0.00443826
     69.8731000             -0.03571460             0.03266790
     22.3363000             -0.11498500             0.13472100
      8.1503900              0.09356340             0.32867800
      3.1345800              0.60301700             0.44964000
      1.2254300              0.41895900             0.26137200
SP   3   1.00
      1.7273800             -0.24463000            -0.01779510
      0.5729220              0.00431572             0.25353900
      0.2221920              1.09818000             0.80066900
SP   1   1.00
      0.0778369              1.00000000             1.00000000
D    1   1.00
      0.9000000              1.0000000
D    1   1.00
      0.2250000              1.0000000
F    1   1.00
      0.3200000              1.0000000
****
P     0
S    6   1.00
  19413.3000000              0.0018516
   2909.4200000              0.0142062
    661.3640000              0.0699995
    185.7590000              0.2400790
     59.1943000              0.4847620
     20.0310000              0.3352000
SP   6   1.00
    339.4780000             -0.00278217             0.00456462
     81.0101000             -0.0360499              0.03369360
     25.8780000             -0.1166310              0.13975500
      9.4522100              0.0968328              0.33936200
      3.6656600              0.6144180              0.45092100
      1.4674600              0.4037980              0.23858600
SP   3   1.00
      2.1562300             -0.2529230             -0.01776530
      0.7489970              0.0328517              0.27405800
      0.2831450              1.0812500              0.78542100
SP   1   1.00
      0.0998317              1.0000000              1.00000000
D    1   1.00
      1.1000000              1.0000000
D    1   1.00
      0.2750000              1.0000000
F    1   1.00
      0.4500000              1.0000000
****
S     0
S    6   1.00
  21917.1000000              0.0018690
   3301.4900000              0.0142300
    754.1460000              0.0696960
    212.7110000              0.2384870
     67.9896000              0.4833070
     23.0515000              0.3380740
SP   6   1.00
    423.7350000             -0.0023767              0.0040610
    100.7100000             -0.0316930              0.0306810
     32.1599000             -0.1133170              0.1304520
     11.8079000              0.0560900              0.3272050
      4.6311000              0.5922550              0.4528510
      1.8702500              0.4550060              0.2560420
SP   3   1.00
      2.6158400             -0.2503740             -0.0145110
      0.9221670              0.0669570              0.3102630
      0.3412870              1.0545100              0.7544830
SP   1   1.00
      0.1171670              1.0000000              1.0000000
D    1   1.00
      1.3000000              1.0000000
D    1   1.00
      0.3250000              1.0000000
F    1   1.00
      0.5500000              1.0000000
****
Cl     0
S    6   1.00
  25180.1000000              0.0018330
   3780.3500000              0.0140340
    860.4740000              0.0690970
    242.1450000              0.2374520
     77.3349000              0.4830340
     26.2470000              0.3398560
SP   6   1.00
    491.7650000             -0.0022974              0.0039894
    116.9840000             -0.0307140              0.0303180
     37.4153000             -0.1125280              0.1298800
     13.7834000              0.0450160              0.3279510
      5.4521500              0.5893530              0.4535270
      2.2258800              0.4652060              0.2521540
SP   3   1.00
      3.1864900             -0.2518300             -0.0142990
      1.1442700              0.0615890              0.3235720
      0.4203770              1.0601800              0.7435070
SP   1   1.00
      0.1426570              1.0000000              1.0000000
D    1   1.00
      1.5000000              1.0000000
D    1   1.00
      0.3750000              1.0000000
F    1   1.00
      0.7000000              1.0000000
****
}

set {
reference uhf
freeze_core true
e_convergence 10
d_convergence 10
dft_spherical_points 1202
dft_radial_points 99
}

e = energy('b3lyp')

print_out('Grab this energy {0}'.format(e))
--------------------------------------------------------------------------

    Molecular point group: cs

    Geometry (in Bohr), charge = 0, multiplicity = 2:

       Center              X                  Y                   Z               Mass
    ------------   -----------------  -----------------  -----------------  -----------------
         C           -0.256839271703     0.802029698472     0.000000000000    12.000000000000
         O           -2.187799271603    -0.329808813528     0.000000000000    15.994914619570
         C            2.404030426997    -0.246784016528     0.000000000000    12.000000000000
         H            2.386633246697    -2.311902909728     0.000000000000     1.007825032230
         H            3.384545800897     0.467496452372    -1.663742481100     1.007825032230
         H            3.384545800897     0.467496452372     1.663742481100     1.007825032230

  Charge       = 0
  Multiplicity = 2
  Basis Set: ANONYMOUSA9760839
    Blend: 6-31G_2DFP_
  Basis Set: (ANONYMOUSA9760839 AUX)
    Blend: DEF2-UNIVERSAL-JKFIT

    Orbital Energies [Eh]
    ---------------------

    Alpha Occupied:

       1Ap   -19.186677     2Ap   -10.270861     3Ap   -10.209997
       4Ap    -1.082421     5Ap    -0.762559     6Ap    -0.543920
       7Ap    -0.466884     8Ap    -0.457947     1App   -0.456873
       2App   -0.387792     9Ap    -0.385979    10Ap    -0.191525

    Alpha Virtual:

       3App   -0.018095    11Ap     0.091836    12Ap     0.136791
       4App    0.141427    13Ap     0.219445    14Ap     0.268641
      15Ap     0.428468     5App    0.431482    16Ap     0.444424
       6App    0.493796    17Ap     0.506064    18Ap     0.530158
       7App    0.562934    19Ap     0.577591    20Ap     0.610412
       8App    0.616260    21Ap     0.644797    22Ap     0.717990
       9App    0.766147    23Ap     0.785813    10App    0.832568
      11App    0.917210    24Ap     0.926625    25Ap     0.935568
      12App    1.025014    26Ap     1.087917    27Ap     1.108166
      13App    1.152855    28Ap     1.223580    29Ap     1.307751
      14App    1.317912    30Ap     1.328244    31Ap     1.402726
      15App    1.407778    32Ap     1.468988    33Ap     1.560151
      34Ap     1.632304    16App    1.654862    35Ap     1.720226
      17App    1.814704    36Ap     1.836251    37Ap     1.903453
      18App    2.066751    38Ap     2.168373    39Ap     2.498959
      19App    2.681195    40Ap     2.745684    41Ap     2.784182
      20App    2.842779    21App    2.894467    42Ap     2.975164
      43Ap     3.031154    22App    3.059153    23App    3.103491
      44Ap     3.117440    45Ap     3.181596    24App    3.314459
      46Ap     3.369806    25App    3.393801    26App    3.441595
      27App    3.466180    47Ap     3.486635    48Ap     3.569465
      49Ap     3.743569    50Ap     3.767746    51Ap     3.945295
      28App    3.986911    52Ap     4.060737    53Ap     4.111626
      29App    4.121678    54Ap     4.190184    30App    4.389384
      55Ap     4.437215    31App    4.449410    56Ap     4.538289
      57Ap     4.918060    58Ap     5.037422    32App    5.042667
      33App    5.199765    59Ap     5.208699    60Ap     5.477781
      34App    5.487249    61Ap     5.826609    35App    5.934890
      62Ap     6.109103    63Ap     6.771228    36App    6.773407
      37App    7.071508    64Ap     7.135473    65Ap     7.531949

    Beta Occupied:

       1Ap   -19.178599     2Ap   -10.260805     3Ap   -10.206638
       4Ap    -1.066500     5Ap    -0.750762     6Ap    -0.524287
       1App   -0.452297     7Ap    -0.446959     8Ap    -0.439418
       2App   -0.382638     9Ap    -0.348017

    Beta Virtual:

      10Ap    -0.052006     3App   -0.001827    11Ap     0.094540
      12Ap     0.142592     4App    0.144555    13Ap     0.229677
      14Ap     0.274271     5App    0.433452    15Ap     0.435475
      16Ap     0.466772     6App    0.500518    17Ap     0.527359
      18Ap     0.539028     7App    0.569270    19Ap     0.581791
       8App    0.623464    20Ap     0.628738    21Ap     0.650766
      22Ap     0.740132     9App    0.777226    23Ap     0.795733
      10App    0.833363    11App    0.922066    24Ap     0.943162
      25Ap     0.950736    12App    1.029245    26Ap     1.094023
      27Ap     1.110210    13App    1.159066    28Ap     1.232777
      29Ap     1.313407    14App    1.320779    30Ap     1.335011
      31Ap     1.413116    15App    1.413270    32Ap     1.481398
      33Ap     1.571211    34Ap     1.645613    16App    1.669285
      35Ap     1.726525    17App    1.817846    36Ap     1.850425
      37Ap     1.910221    18App    2.073479    38Ap     2.189826
      39Ap     2.511648    19App    2.695492    40Ap     2.760136
      41Ap     2.805233    20App    2.858000    21App    2.896148
      42Ap     2.984810    43Ap     3.047888    22App    3.067741
      23App    3.122255    44Ap     3.125740    45Ap     3.216174
      24App    3.358034    46Ap     3.380986    25App    3.399950
      26App    3.449676    27App    3.482001    47Ap     3.510084
      48Ap     3.582643    49Ap     3.769168    50Ap     3.777257
      51Ap     3.953967    28App    3.996201    52Ap     4.077095
      29App    4.124522    53Ap     4.126306    54Ap     4.201728
      30App    4.391560    55Ap     4.443447    31App    4.453703
      56Ap     4.549278    57Ap     4.921947    58Ap     5.054947
      32App    5.060710    33App    5.201949    59Ap     5.214478
      60Ap     5.490393    34App    5.501159    61Ap     5.839882
      35App    5.940489    62Ap     6.132330    63Ap     6.800560
      36App    6.803085    37App    7.075818    64Ap     7.164890
      65Ap     7.543618

    Final Occupation by Irrep:
             Ap   App
    DOCC [     9,    2 ]
    SOCC [     1,    0 ]

  @DF-UKS Final Energy:  -153.18846474039555

   => Energetics <=

    Nuclear Repulsion Energy =             62.8943329853366322
    One-Electron Energy =                -331.7831571475624060
    Two-Electron Energy =                 132.2836884992441924
    DFT Exchange-Correlation Energy =     -16.5833290774139570
    Empirical Dispersion Energy =           0.0000000000000000
    VV10 Nonlocal Energy =                  0.0000000000000000
    Total Energy =                       -153.1884647403955455

  UHF NO Occupations:
  HONO-2 :    8 Ap 1.9997877
  HONO-1 :    9 Ap 1.9992024
  HONO-0 :   10 Ap 1.0000000
  LUNO+0 :   11 Ap 0.0007976
  LUNO+1 :   12 Ap 0.0002123
  LUNO+2 :    3App 0.0001783
  LUNO+3 :   13 Ap 0.0000615

Computation Completed

Properties will be evaluated at   0.000000,   0.000000,   0.000000 [a0]

Properties computed using the SCF density matrix

  Nuclear Dipole Moment: [e a0]
     X:     4.5365      Y:    -0.6839      Z:     0.0000

  Electronic Dipole Moment: [e a0]
     X:    -3.6075      Y:     0.6327      Z:     0.0000

  Dipole Moment: [e a0]
     X:     0.9290      Y:    -0.0512      Z:     0.0000     Total:     0.9304

  Dipole Moment: [D]
     X:     2.3613      Y:    -0.1301      Z:     0.0000     Total:     2.3649

*** tstop() called on n051 at Tue Mar 15 10:27:24 2022
Module time:
	user time   =      50.68 seconds =       0.84 minutes
	system time =       0.53 seconds =       0.01 minutes
	total time  =         51 seconds =       0.85 minutes
Total time:
	user time   =      50.68 seconds =       0.84 minutes
	system time =       0.53 seconds =       0.01 minutes
	total time  =         51 seconds =       0.85 minutes
Grab this energy -153.18846474039555
    Psi4 stopped on: Tuesday, 15 March 2022 10:27AM
    Psi4 wall time for execution: 0:00:51.26

*** Psi4 exiting successfully. Buy a developer a beer!
