                               Psi4 1.4a2.dev629

  ==> Input File <==

--------------------------------------------------------------------------
import os
memory 14 GB

molecule {
 C   -0.2572702282    0.8024737029    0.0000000100
 O   -2.1855963860   -0.3325654621    0.0000000079
 C    2.4113269217   -0.2424098784   -0.0000000160
 H    2.3904912636   -2.3067120001    0.0000000395
 H    3.3838230176    0.4746740447   -1.6641688618
 H    3.3838233614    0.4746742131    1.6641686405
units bohr
0 2
}

basis {

assign 6-31g_2dfp_

[ 6-31g_2dfp_ ]

spherical

!----------------------------------------------------------------------
! Basis Set Exchange
! Version v0.8.13
! https://www.basissetexchange.org
!----------------------------------------------------------------------
!   Basis set: 6-31G(2df,p)
! Description: 6-31G(2df,p)
!        Role: orbital
!     Version: 0  (Data from the original Basis Set Exchange)
!----------------------------------------------------------------------

****
H     0
S    3   1.00
     18.7311370              0.03349460
      2.8253937              0.23472695
      0.6401217              0.81375733
S    1   1.00
      0.1612778              1.00000000
P    1   1.00
      1.5000000              1.0000000
P    1   1.00
      0.3750000              1.0000000
****
B     0
S    6   1.00
   2068.8823000              0.0018663
    310.6495700              0.0142515
     70.6830330              0.0695516
     19.8610800              0.2325729
      6.2993048              0.4670787
      2.1270270              0.3634314
SP   3   1.00
      4.7279710             -0.1303938              0.0745976
      1.1903377             -0.1307889              0.3078467
      0.3594117              1.1309444              0.7434568
SP   1   1.00
      0.1267512              1.0000000              1.0000000
D    1   1.00
      0.8020000              1.0000000
D    1   1.00
      0.2005000              1.0000000
F    1   1.00
      0.5000000              1.0000000
****
C     0
S    6   1.00
   3047.5249000              0.0018347
    457.3695100              0.0140373
    103.9486900              0.0688426
     29.2101550              0.2321844
      9.2866630              0.4679413
      3.1639270              0.3623120
SP   3   1.00
      7.8682724             -0.1193324              0.0689991
      1.8812885             -0.1608542              0.3164240
      0.5442493              1.1434564              0.7443083
SP   1   1.00
      0.1687144              1.0000000              1.0000000
D    1   1.00
      1.2520000              1.0000000
D    1   1.00
      0.3130000              1.0000000
F    1   1.00
      0.8000000              1.0000000
****
N     0
S    6   1.00
   4173.5110000              0.0018348
    627.4579000              0.0139950
    142.9021000              0.0685870
     40.2343300              0.2322410
     12.8202100              0.4690700
      4.3904370              0.3604550
SP   3   1.00
     11.6263580             -0.1149610              0.0675800
      2.7162800             -0.1691180              0.3239070
      0.7722180              1.1458520              0.7408950
SP   1   1.00
      0.2120313              1.0000000              1.0000000
D    1   1.00
      1.8260000              1.0000000
D    1   1.00
      0.4565000              1.0000000
F    1   1.00
      1.0000000              1.0000000
****
O     0
S    6   1.00
   5484.6717000              0.0018311
    825.2349500              0.0139501
    188.0469600              0.0684451
     52.9645000              0.2327143
     16.8975700              0.4701930
      5.7996353              0.3585209
SP   3   1.00
     15.5396160             -0.1107775              0.0708743
      3.5999336             -0.1480263              0.3397528
      1.0137618              1.1307670              0.7271586
SP   1   1.00
      0.2700058              1.0000000              1.0000000
D    1   1.00
      2.5840000              1.0000000
D    1   1.00
      0.6460000              1.0000000
F    1   1.00
      1.4000000              1.0000000
****
F     0
S    6   1.00
   7001.7130900              0.0018196169
   1051.3660900              0.0139160796
    239.2856900              0.0684053245
     67.3974453              0.233185760
     21.5199573              0.471267439
      7.40310130             0.356618546
SP   3   1.00
     20.8479528             -0.108506975            0.0716287243
      4.80830834            -0.146451658            0.3459121030
      1.34406986             1.128688580            0.7224699570
SP   1   1.00
      0.358151393            1.0000000              1.0000000
D    1   1.00
      3.5000000              1.0000000
D    1   1.00
      0.8750000              1.0000000
F    1   1.00
      1.8500000              1.0000000
****
Al     0
S    6   1.00
  13983.1000000              0.00194267
   2098.7500000              0.0148599
    477.7050000              0.0728494
    134.3600000              0.2468300
     42.8709000              0.4872580
     14.5189000              0.3234960
SP   6   1.00
    239.6680000             -0.00292619             0.00460285
     57.4419000             -0.0374080              0.0331990
     18.2859000             -0.1144870              0.1362820
      6.5991400              0.1156350              0.3304760
      2.4904900              0.6125950              0.4491460
      0.9445400              0.3937990              0.2657040
SP   3   1.00
      1.2779000             -0.2276060             -0.0175130
      0.3975900              0.00144583             0.2445330
      0.1600950              1.0927900              0.8049340
SP   1   1.00
      0.0556577              1.0000000              1.0000000
D    1   1.00
      0.6500000              1.0000000
D    1   1.00
      0.1625000              1.0000000
F    1   1.00
      0.2500000              1.0000000
****
Si     0
S    6   1.00
  16115.9000000              0.00195948
   2425.5800000              0.01492880
    553.8670000              0.07284780
    156.3400000              0.24613000
     50.0683000              0.48591400
     17.0178000              0.32500200
SP   6   1.00
    292.7180000             -0.00278094             0.00443826
     69.8731000             -0.03571460             0.03266790
     22.3363000             -0.11498500             0.13472100
      8.1503900              0.09356340             0.32867800
      3.1345800              0.60301700             0.44964000
      1.2254300              0.41895900             0.26137200
SP   3   1.00
      1.7273800             -0.24463000            -0.01779510
      0.5729220              0.00431572             0.25353900
      0.2221920              1.09818000             0.80066900
SP   1   1.00
      0.0778369              1.00000000             1.00000000
D    1   1.00
      0.9000000              1.0000000
D    1   1.00
      0.2250000              1.0000000
F    1   1.00
      0.3200000              1.0000000
****
P     0
S    6   1.00
  19413.3000000              0.0018516
   2909.4200000              0.0142062
    661.3640000              0.0699995
    185.7590000              0.2400790
     59.1943000              0.4847620
     20.0310000              0.3352000
SP   6   1.00
    339.4780000             -0.00278217             0.00456462
     81.0101000             -0.0360499              0.03369360
     25.8780000             -0.1166310              0.13975500
      9.4522100              0.0968328              0.33936200
      3.6656600              0.6144180              0.45092100
      1.4674600              0.4037980              0.23858600
SP   3   1.00
      2.1562300             -0.2529230             -0.01776530
      0.7489970              0.0328517              0.27405800
      0.2831450              1.0812500              0.78542100
SP   1   1.00
      0.0998317              1.0000000              1.00000000
D    1   1.00
      1.1000000              1.0000000
D    1   1.00
      0.2750000              1.0000000
F    1   1.00
      0.4500000              1.0000000
****
S     0
S    6   1.00
  21917.1000000              0.0018690
   3301.4900000              0.0142300
    754.1460000              0.0696960
    212.7110000              0.2384870
     67.9896000              0.4833070
     23.0515000              0.3380740
SP   6   1.00
    423.7350000             -0.0023767              0.0040610
    100.7100000             -0.0316930              0.0306810
     32.1599000             -0.1133170              0.1304520
     11.8079000              0.0560900              0.3272050
      4.6311000              0.5922550              0.4528510
      1.8702500              0.4550060              0.2560420
SP   3   1.00
      2.6158400             -0.2503740             -0.0145110
      0.9221670              0.0669570              0.3102630
      0.3412870              1.0545100              0.7544830
SP   1   1.00
      0.1171670              1.0000000              1.0000000
D    1   1.00
      1.3000000              1.0000000
D    1   1.00
      0.3250000              1.0000000
F    1   1.00
      0.5500000              1.0000000
****
Cl     0
S    6   1.00
  25180.1000000              0.0018330
   3780.3500000              0.0140340
    860.4740000              0.0690970
    242.1450000              0.2374520
     77.3349000              0.4830340
     26.2470000              0.3398560
SP   6   1.00
    491.7650000             -0.0022974              0.0039894
    116.9840000             -0.0307140              0.0303180
     37.4153000             -0.1125280              0.1298800
     13.7834000              0.0450160              0.3279510
      5.4521500              0.5893530              0.4535270
      2.2258800              0.4652060              0.2521540
SP   3   1.00
      3.1864900             -0.2518300             -0.0142990
      1.1442700              0.0615890              0.3235720
      0.4203770              1.0601800              0.7435070
SP   1   1.00
      0.1426570              1.0000000              1.0000000
D    1   1.00
      1.5000000              1.0000000
D    1   1.00
      0.3750000              1.0000000
F    1   1.00
      0.7000000              1.0000000
****
}

set {
reference uhf
freeze_core true
e_convergence 10
d_convergence 10
dft_spherical_points 1202
dft_radial_points 99
}

e = energy('b3lyp')

print_out('Grab this energy {0}'.format(e))
--------------------------------------------------------------------------

    Molecular point group: c1

    Geometry (in Bohr), charge = 0, multiplicity = 2:

       Center              X                  Y                   Z               Mass
    ------------   -----------------  -----------------  -----------------  -----------------
         C           -0.260060967247     0.801696719726     0.000000012996    12.000000000000
         O           -2.188387125047    -0.333342445274     0.000000010896    15.994914619570
         C            2.408536182653    -0.243186861574    -0.000000013004    12.000000000000
         H            2.387700524553    -2.307488983274     0.000000042496     1.007825032230
         H            3.381032278553     0.473897061526    -1.664168858804     1.007825032230
         H            3.381032622353     0.473897229926     1.664168643496     1.007825032230

  Charge       = 0
  Multiplicity = 2
  Basis Set: ANONYMOUS7D80B589
    Blend: 6-31G_2DFP_
  Basis Set: (ANONYMOUS7D80B589 AUX)
    Blend: DEF2-UNIVERSAL-JKFIT

    Orbital Energies [Eh]
    ---------------------

    Alpha Occupied:

       1A    -19.186733     2A    -10.270899     3A    -10.209876
       4A     -1.082603     5A     -0.762273     6A     -0.543629
       7A     -0.466855     8A     -0.457641     9A     -0.457096
      10A     -0.388183    11A     -0.386258    12A     -0.191344

    Alpha Virtual:

      13A     -0.017886    14A      0.092006    15A      0.136977
      16A      0.141679    17A      0.218313    18A      0.268511
      19A      0.428329    20A      0.431396    21A      0.444217
      22A      0.493903    23A      0.506272    24A      0.530481
      25A      0.563713    26A      0.577909    27A      0.610383
      28A      0.616234    29A      0.644598    30A      0.718106
      31A      0.766279    32A      0.785889    33A      0.832396
      34A      0.917158    35A      0.926637    36A      0.935581
      37A      1.025172    38A      1.087791    39A      1.106669
      40A      1.152953    41A      1.223718    42A      1.306710
      43A      1.317174    44A      1.327247    45A      1.403767
      46A      1.409793    47A      1.469451    48A      1.559769
      49A      1.632408    50A      1.655040    51A      1.722372
      52A      1.815015    53A      1.835768    54A      1.901545
      55A      2.067282    56A      2.168513    57A      2.499329
      58A      2.681299    59A      2.744806    60A      2.784829
      61A      2.843202    62A      2.894730    63A      2.974802
      64A      3.031402    65A      3.059068    66A      3.103512
      67A      3.115852    68A      3.181448    69A      3.313723
      70A      3.370767    71A      3.393559    72A      3.441776
      73A      3.465704    74A      3.486191    75A      3.572354
      76A      3.743715    77A      3.764374    78A      3.943014
      79A      3.986956    80A      4.059738    81A      4.111011
      82A      4.120199    83A      4.188294    84A      4.393847
      85A      4.437622    86A      4.450959    87A      4.534171
      88A      4.922950    89A      5.037543    90A      5.042575
      91A      5.201250    92A      5.208681    93A      5.477990
      94A      5.486926    95A      5.826249    96A      5.935194
      97A      6.108463    98A      6.771110    99A      6.773325
     100A      7.071017   101A      7.135333   102A      7.531962

    Beta Occupied:

       1A    -19.178672     2A    -10.260855     3A    -10.206495
       4A     -1.066717     5A     -0.750472     6A     -0.523960
       7A     -0.452540     8A     -0.446945     9A     -0.439156
      10A     -0.383013    11A     -0.348280

    Beta Virtual:

      12A     -0.051937    13A     -0.001607    14A      0.094735
      15A      0.142694    16A      0.144771    17A      0.228710
      18A      0.274143    19A      0.433380    20A      0.435616
      21A      0.466187    22A      0.500620    23A      0.527671
      24A      0.539449    25A      0.570131    26A      0.582096
      27A      0.623386    28A      0.628612    29A      0.650559
      30A      0.740259    31A      0.777372    32A      0.795793
      33A      0.833179    34A      0.922008    35A      0.943218
      36A      0.950686    37A      1.029408    38A      1.094021
      39A      1.108688    40A      1.159168    41A      1.232949
      42A      1.312295    43A      1.319990    44A      1.334023
      45A      1.414075    46A      1.415331    47A      1.481790
      48A      1.570874    49A      1.645793    50A      1.669440
      51A      1.728665    52A      1.818140    53A      1.849873
      54A      1.908277    55A      2.074007    56A      2.189923
      57A      2.512023    58A      2.695632    59A      2.759244
      60A      2.805888    61A      2.858423    62A      2.896394
      63A      2.984355    64A      3.048316    65A      3.067754
      66A      3.122104    67A      3.124202    68A      3.216016
      69A      3.357233    70A      3.382025    71A      3.399920
      72A      3.450145    73A      3.481216    74A      3.509853
      75A      3.585280    76A      3.769308    77A      3.773928
      78A      3.951712    79A      3.996285    80A      4.076084
      81A      4.123035    82A      4.125456    83A      4.200068
      84A      4.396161    85A      4.443836    86A      4.455065
      87A      4.545071    88A      4.926912    89A      5.055011
      90A      5.060577    91A      5.203419    92A      5.214397
      93A      5.490580    94A      5.500823    95A      5.839498
      96A      5.940786    97A      6.131642    98A      6.800380
      99A      6.802938   100A      7.075314   101A      7.164685
     102A      7.543610

    Final Occupation by Irrep:
              A
    DOCC [    11 ]
    SOCC [     1 ]

  @DF-UKS Final Energy:  -153.18843688105434

   => Energetics <=

    Nuclear Repulsion Energy =             62.8732978746010360
    One-Electron Energy =                -331.7407192986455584
    Two-Electron Energy =                 132.2625374346214358
    DFT Exchange-Correlation Energy =     -16.5835528916312391
    Empirical Dispersion Energy =           0.0000000000000000
    VV10 Nonlocal Energy =                  0.0000000000000000
    Total Energy =                       -153.1884368810543435

  UHF NO Occupations:
  HONO-2 :   10  A 1.9997845
  HONO-1 :   11  A 1.9992054
  HONO-0 :   12  A 1.0000000
  LUNO+0 :   13  A 0.0007946
  LUNO+1 :   14  A 0.0002155
  LUNO+2 :   15  A 0.0001782
  LUNO+3 :   16  A 0.0000614

Computation Completed

Properties will be evaluated at   0.000000,   0.000000,   0.000000 [a0]

Properties computed using the SCF density matrix

  Nuclear Dipole Moment: [e a0]
     X:     4.5335      Y:    -0.6754      Z:    -0.0000

  Electronic Dipole Moment: [e a0]
     X:    -3.6065      Y:     0.6256      Z:     0.0000

  Dipole Moment: [e a0]
     X:     0.9270      Y:    -0.0498      Z:    -0.0000     Total:     0.9284

  Dipole Moment: [D]
     X:     2.3563      Y:    -0.1265      Z:    -0.0000     Total:     2.3596

*** tstop() called on n044 at Thu Nov  4 14:47:21 2021
Module time:
	user time   =      62.65 seconds =       1.04 minutes
	system time =       0.41 seconds =       0.01 minutes
	total time  =         63 seconds =       1.05 minutes
Total time:
	user time   =      62.65 seconds =       1.04 minutes
	system time =       0.41 seconds =       0.01 minutes
	total time  =         63 seconds =       1.05 minutes
Grab this energy -153.18843688105434
    Psi4 stopped on: Thursday, 04 November 2021 02:47PM
    Psi4 wall time for execution: 0:01:03.09

*** Psi4 exiting successfully. Buy a developer a beer!
