                               Psi4 1.4a2.dev629

  ==> Input File <==

--------------------------------------------------------------------------
import os
memory 14 GB

molecule {
 C   -0.2573280697    0.8084444511   -0.0010362879
 O   -2.1786468586   -0.3438661806   -0.0040716240
 C    2.4071555049   -0.2398100950    0.0007992755
 H    2.3771570316   -2.3023931414    0.0033360874
 H    3.3824075394    0.4759476780   -1.6631484597
 H    3.3958528024    0.4718119079    1.6641208287
units bohr
0 2
}

basis {

assign 6-31g_2dfp_

[ 6-31g_2dfp_ ]

spherical

!----------------------------------------------------------------------
! Basis Set Exchange
! Version v0.8.13
! https://www.basissetexchange.org
!----------------------------------------------------------------------
!   Basis set: 6-31G(2df,p)
! Description: 6-31G(2df,p)
!        Role: orbital
!     Version: 0  (Data from the original Basis Set Exchange)
!----------------------------------------------------------------------

****
H     0
S    3   1.00
     18.7311370              0.03349460
      2.8253937              0.23472695
      0.6401217              0.81375733
S    1   1.00
      0.1612778              1.00000000
P    1   1.00
      1.5000000              1.0000000
P    1   1.00
      0.3750000              1.0000000
****
B     0
S    6   1.00
   2068.8823000              0.0018663
    310.6495700              0.0142515
     70.6830330              0.0695516
     19.8610800              0.2325729
      6.2993048              0.4670787
      2.1270270              0.3634314
SP   3   1.00
      4.7279710             -0.1303938              0.0745976
      1.1903377             -0.1307889              0.3078467
      0.3594117              1.1309444              0.7434568
SP   1   1.00
      0.1267512              1.0000000              1.0000000
D    1   1.00
      0.8020000              1.0000000
D    1   1.00
      0.2005000              1.0000000
F    1   1.00
      0.5000000              1.0000000
****
C     0
S    6   1.00
   3047.5249000              0.0018347
    457.3695100              0.0140373
    103.9486900              0.0688426
     29.2101550              0.2321844
      9.2866630              0.4679413
      3.1639270              0.3623120
SP   3   1.00
      7.8682724             -0.1193324              0.0689991
      1.8812885             -0.1608542              0.3164240
      0.5442493              1.1434564              0.7443083
SP   1   1.00
      0.1687144              1.0000000              1.0000000
D    1   1.00
      1.2520000              1.0000000
D    1   1.00
      0.3130000              1.0000000
F    1   1.00
      0.8000000              1.0000000
****
N     0
S    6   1.00
   4173.5110000              0.0018348
    627.4579000              0.0139950
    142.9021000              0.0685870
     40.2343300              0.2322410
     12.8202100              0.4690700
      4.3904370              0.3604550
SP   3   1.00
     11.6263580             -0.1149610              0.0675800
      2.7162800             -0.1691180              0.3239070
      0.7722180              1.1458520              0.7408950
SP   1   1.00
      0.2120313              1.0000000              1.0000000
D    1   1.00
      1.8260000              1.0000000
D    1   1.00
      0.4565000              1.0000000
F    1   1.00
      1.0000000              1.0000000
****
O     0
S    6   1.00
   5484.6717000              0.0018311
    825.2349500              0.0139501
    188.0469600              0.0684451
     52.9645000              0.2327143
     16.8975700              0.4701930
      5.7996353              0.3585209
SP   3   1.00
     15.5396160             -0.1107775              0.0708743
      3.5999336             -0.1480263              0.3397528
      1.0137618              1.1307670              0.7271586
SP   1   1.00
      0.2700058              1.0000000              1.0000000
D    1   1.00
      2.5840000              1.0000000
D    1   1.00
      0.6460000              1.0000000
F    1   1.00
      1.4000000              1.0000000
****
F     0
S    6   1.00
   7001.7130900              0.0018196169
   1051.3660900              0.0139160796
    239.2856900              0.0684053245
     67.3974453              0.233185760
     21.5199573              0.471267439
      7.40310130             0.356618546
SP   3   1.00
     20.8479528             -0.108506975            0.0716287243
      4.80830834            -0.146451658            0.3459121030
      1.34406986             1.128688580            0.7224699570
SP   1   1.00
      0.358151393            1.0000000              1.0000000
D    1   1.00
      3.5000000              1.0000000
D    1   1.00
      0.8750000              1.0000000
F    1   1.00
      1.8500000              1.0000000
****
Al     0
S    6   1.00
  13983.1000000              0.00194267
   2098.7500000              0.0148599
    477.7050000              0.0728494
    134.3600000              0.2468300
     42.8709000              0.4872580
     14.5189000              0.3234960
SP   6   1.00
    239.6680000             -0.00292619             0.00460285
     57.4419000             -0.0374080              0.0331990
     18.2859000             -0.1144870              0.1362820
      6.5991400              0.1156350              0.3304760
      2.4904900              0.6125950              0.4491460
      0.9445400              0.3937990              0.2657040
SP   3   1.00
      1.2779000             -0.2276060             -0.0175130
      0.3975900              0.00144583             0.2445330
      0.1600950              1.0927900              0.8049340
SP   1   1.00
      0.0556577              1.0000000              1.0000000
D    1   1.00
      0.6500000              1.0000000
D    1   1.00
      0.1625000              1.0000000
F    1   1.00
      0.2500000              1.0000000
****
Si     0
S    6   1.00
  16115.9000000              0.00195948
   2425.5800000              0.01492880
    553.8670000              0.07284780
    156.3400000              0.24613000
     50.0683000              0.48591400
     17.0178000              0.32500200
SP   6   1.00
    292.7180000             -0.00278094             0.00443826
     69.8731000             -0.03571460             0.03266790
     22.3363000             -0.11498500             0.13472100
      8.1503900              0.09356340             0.32867800
      3.1345800              0.60301700             0.44964000
      1.2254300              0.41895900             0.26137200
SP   3   1.00
      1.7273800             -0.24463000            -0.01779510
      0.5729220              0.00431572             0.25353900
      0.2221920              1.09818000             0.80066900
SP   1   1.00
      0.0778369              1.00000000             1.00000000
D    1   1.00
      0.9000000              1.0000000
D    1   1.00
      0.2250000              1.0000000
F    1   1.00
      0.3200000              1.0000000
****
P     0
S    6   1.00
  19413.3000000              0.0018516
   2909.4200000              0.0142062
    661.3640000              0.0699995
    185.7590000              0.2400790
     59.1943000              0.4847620
     20.0310000              0.3352000
SP   6   1.00
    339.4780000             -0.00278217             0.00456462
     81.0101000             -0.0360499              0.03369360
     25.8780000             -0.1166310              0.13975500
      9.4522100              0.0968328              0.33936200
      3.6656600              0.6144180              0.45092100
      1.4674600              0.4037980              0.23858600
SP   3   1.00
      2.1562300             -0.2529230             -0.01776530
      0.7489970              0.0328517              0.27405800
      0.2831450              1.0812500              0.78542100
SP   1   1.00
      0.0998317              1.0000000              1.00000000
D    1   1.00
      1.1000000              1.0000000
D    1   1.00
      0.2750000              1.0000000
F    1   1.00
      0.4500000              1.0000000
****
S     0
S    6   1.00
  21917.1000000              0.0018690
   3301.4900000              0.0142300
    754.1460000              0.0696960
    212.7110000              0.2384870
     67.9896000              0.4833070
     23.0515000              0.3380740
SP   6   1.00
    423.7350000             -0.0023767              0.0040610
    100.7100000             -0.0316930              0.0306810
     32.1599000             -0.1133170              0.1304520
     11.8079000              0.0560900              0.3272050
      4.6311000              0.5922550              0.4528510
      1.8702500              0.4550060              0.2560420
SP   3   1.00
      2.6158400             -0.2503740             -0.0145110
      0.9221670              0.0669570              0.3102630
      0.3412870              1.0545100              0.7544830
SP   1   1.00
      0.1171670              1.0000000              1.0000000
D    1   1.00
      1.3000000              1.0000000
D    1   1.00
      0.3250000              1.0000000
F    1   1.00
      0.5500000              1.0000000
****
Cl     0
S    6   1.00
  25180.1000000              0.0018330
   3780.3500000              0.0140340
    860.4740000              0.0690970
    242.1450000              0.2374520
     77.3349000              0.4830340
     26.2470000              0.3398560
SP   6   1.00
    491.7650000             -0.0022974              0.0039894
    116.9840000             -0.0307140              0.0303180
     37.4153000             -0.1125280              0.1298800
     13.7834000              0.0450160              0.3279510
      5.4521500              0.5893530              0.4535270
      2.2258800              0.4652060              0.2521540
SP   3   1.00
      3.1864900             -0.2518300             -0.0142990
      1.1442700              0.0615890              0.3235720
      0.4203770              1.0601800              0.7435070
SP   1   1.00
      0.1426570              1.0000000              1.0000000
D    1   1.00
      1.5000000              1.0000000
D    1   1.00
      0.3750000              1.0000000
F    1   1.00
      0.7000000              1.0000000
****
}

set {
reference uhf
freeze_core true
e_convergence 10
d_convergence 10
dft_spherical_points 1202
dft_radial_points 99
}

e = energy('b3lyp')

print_out('Grab this energy {0}'.format(e))
--------------------------------------------------------------------------

    Molecular point group: c1

    Geometry (in Bohr), charge = 0, multiplicity = 2:

       Center              X                  Y                   Z               Mass
    ------------   -----------------  -----------------  -----------------  -----------------
         C           -0.261459269020     0.809414536988     0.000442783196    12.000000000000
         O           -2.182778057920    -0.342896094712    -0.002592552904    15.994914619570
         C            2.403024305580    -0.238840009112     0.002278346596    12.000000000000
         H            2.373025832280    -2.301423055512     0.004815158496     1.007825032230
         H            3.378276340080     0.476917763888    -1.661669388604     1.007825032230
         H            3.391721603080     0.472781993788     1.665599899796     1.007825032230

  Charge       = 0
  Multiplicity = 2
  Basis Set: ANONYMOUSA6C1D08C
    Blend: 6-31G_2DFP_
  Basis Set: (ANONYMOUSA6C1D08C AUX)
    Blend: DEF2-UNIVERSAL-JKFIT

    Orbital Energies [Eh]
    ---------------------

    Alpha Occupied:

       1A    -19.186794     2A    -10.271177     3A    -10.209945
       4A     -1.082005     5A     -0.762223     6A     -0.543902
       7A     -0.467118     8A     -0.457580     9A     -0.456457
      10A     -0.387579    11A     -0.385828    12A     -0.192510

    Alpha Virtual:

      13A     -0.018503    14A      0.091989    15A      0.137096
      16A      0.141337    17A      0.218927    18A      0.268599
      19A      0.428530    20A      0.431917    21A      0.443875
      22A      0.493775    23A      0.506036    24A      0.530518
      25A      0.562608    26A      0.577924    27A      0.608960
      28A      0.616104    29A      0.644447    30A      0.717424
      31A      0.767623    32A      0.785882    33A      0.832302
      34A      0.917027    35A      0.927264    36A      0.938174
      37A      1.023484    38A      1.085240    39A      1.108343
      40A      1.154679    41A      1.222240    42A      1.306747
      43A      1.316803    44A      1.328688    45A      1.404917
      46A      1.407198    47A      1.468192    48A      1.559642
      49A      1.629299    50A      1.654083    51A      1.719918
      52A      1.813711    53A      1.837446    54A      1.902714
      55A      2.064555    56A      2.163703    57A      2.498069
      58A      2.680113    59A      2.744720    60A      2.784016
      61A      2.843079    62A      2.894477    63A      2.971562
      64A      3.034799    65A      3.060505    66A      3.105221
      67A      3.116534    68A      3.184004    69A      3.315185
      70A      3.372614    71A      3.392975    72A      3.440820
      73A      3.467176    74A      3.487929    75A      3.571448
      76A      3.741292    77A      3.761904    78A      3.944274
      79A      3.984952    80A      4.058710    81A      4.113741
      82A      4.120125    83A      4.191777    84A      4.390085
      85A      4.437698    86A      4.450698    87A      4.532623
      88A      4.919742    89A      5.037228    90A      5.042431
      91A      5.199109    92A      5.208647    93A      5.476290
      94A      5.484449    95A      5.825814    96A      5.932229
      97A      6.105428    98A      6.770994    99A      6.773001
     100A      7.070487   101A      7.135480   102A      7.530868

    Beta Occupied:

       1A    -19.178702     2A    -10.261137     3A    -10.206557
       4A     -1.066053     5A     -0.750400     6A     -0.524238
       7A     -0.452030     8A     -0.447050     9A     -0.439148
      10A     -0.382408    11A     -0.347664

    Beta Virtual:

      12A     -0.053065    13A     -0.002223    14A      0.094704
      15A      0.142774    16A      0.144475    17A      0.229275
      18A      0.274273    19A      0.433775    20A      0.435513
      21A      0.466505    22A      0.500477    23A      0.527416
      24A      0.539163    25A      0.569034    26A      0.582073
      27A      0.623174    28A      0.627561    29A      0.650096
      30A      0.739305    31A      0.778780    32A      0.795830
      33A      0.833077    34A      0.921878    35A      0.946780
      36A      0.950443    37A      1.027688    38A      1.091473
      39A      1.110390    40A      1.160901    41A      1.231388
      42A      1.312354    43A      1.319656    44A      1.335494
      45A      1.412732    46A      1.415473    47A      1.480684
      48A      1.570860    49A      1.642407    50A      1.668576
      51A      1.726169    52A      1.816810    53A      1.851486
      54A      1.909447    55A      2.071292    56A      2.185185
      57A      2.510745    58A      2.694442    59A      2.759204
      60A      2.804945    61A      2.858114    62A      2.896110
      63A      2.981137    64A      3.051369    65A      3.069007
      66A      3.123504    67A      3.125486    68A      3.218595
      69A      3.358669    70A      3.383861    71A      3.399303
      72A      3.448603    73A      3.483460    74A      3.511183
      75A      3.584740    76A      3.766715    77A      3.771619
      78A      3.953092    79A      3.994254    80A      4.075146
      81A      4.122917    82A      4.127803    83A      4.203968
      84A      4.392337    85A      4.443920    86A      4.454936
      87A      4.543489    88A      4.923631    89A      5.054778
      90A      5.060533    91A      5.201289    92A      5.214396
      93A      5.488904    94A      5.498377    95A      5.839093
      96A      5.937819    97A      6.128712    98A      6.800409
      99A      6.802765   100A      7.074788   101A      7.164944
     102A      7.542550

    Final Occupation by Irrep:
              A
    DOCC [    11 ]
    SOCC [     1 ]

  @DF-UKS Final Energy:  -153.18842902229682

   => Energetics <=

    Nuclear Repulsion Energy =             62.8834083096273559
    One-Electron Energy =                -331.7637282944045864
    Two-Electron Energy =                 132.2742763492432232
    DFT Exchange-Correlation Energy =     -16.5823853867628230
    Empirical Dispersion Energy =           0.0000000000000000
    VV10 Nonlocal Energy =                  0.0000000000000000
    Total Energy =                       -153.1884290222968161

  UHF NO Occupations:
  HONO-2 :   10  A 1.9997850
  HONO-1 :   11  A 1.9992007
  HONO-0 :   12  A 1.0000000
  LUNO+0 :   13  A 0.0007993
  LUNO+1 :   14  A 0.0002150
  LUNO+2 :   15  A 0.0001774
  LUNO+3 :   16  A 0.0000618

Computation Completed

Properties will be evaluated at   0.000000,   0.000000,   0.000000 [a0]

Properties computed using the SCF density matrix

  Nuclear Dipole Moment: [e a0]
     X:     4.5302      Y:    -0.6714      Z:     0.0043

  Electronic Dipole Moment: [e a0]
     X:    -3.6027      Y:     0.6245      Z:    -0.0034

  Dipole Moment: [e a0]
     X:     0.9275      Y:    -0.0469      Z:     0.0010     Total:     0.9287

  Dipole Moment: [D]
     X:     2.3575      Y:    -0.1193      Z:     0.0024     Total:     2.3605

*** tstop() called on n080 at Thu Nov  4 14:59:46 2021
Module time:
	user time   =      44.25 seconds =       0.74 minutes
	system time =       0.53 seconds =       0.01 minutes
	total time  =         44 seconds =       0.73 minutes
Total time:
	user time   =      44.25 seconds =       0.74 minutes
	system time =       0.53 seconds =       0.01 minutes
	total time  =         44 seconds =       0.73 minutes
Grab this energy -153.18842902229682
    Psi4 stopped on: Thursday, 04 November 2021 02:59PM
    Psi4 wall time for execution: 0:00:44.82

*** Psi4 exiting successfully. Buy a developer a beer!
