                               Psi4 1.4a2.dev629

  ==> Input File <==

--------------------------------------------------------------------------
import os
memory 14 GB

molecule {
 C   -0.2601230129    0.8040459810    0.0051784976
 O   -2.1906436509   -0.3366310563    0.0012562814
 C    2.4101306472   -0.2414729611    0.0004613645
 H    2.3868467839   -2.3048262855   -0.0037662454
 H    3.3969796027    0.4712571332   -1.6657753755
 H    3.3834075799    0.4777618088    1.6626452974
units bohr
0 2
}

basis {

assign 6-31g_2dfp_

[ 6-31g_2dfp_ ]

spherical

!----------------------------------------------------------------------
! Basis Set Exchange
! Version v0.8.13
! https://www.basissetexchange.org
!----------------------------------------------------------------------
!   Basis set: 6-31G(2df,p)
! Description: 6-31G(2df,p)
!        Role: orbital
!     Version: 0  (Data from the original Basis Set Exchange)
!----------------------------------------------------------------------

****
H     0
S    3   1.00
     18.7311370              0.03349460
      2.8253937              0.23472695
      0.6401217              0.81375733
S    1   1.00
      0.1612778              1.00000000
P    1   1.00
      1.5000000              1.0000000
P    1   1.00
      0.3750000              1.0000000
****
B     0
S    6   1.00
   2068.8823000              0.0018663
    310.6495700              0.0142515
     70.6830330              0.0695516
     19.8610800              0.2325729
      6.2993048              0.4670787
      2.1270270              0.3634314
SP   3   1.00
      4.7279710             -0.1303938              0.0745976
      1.1903377             -0.1307889              0.3078467
      0.3594117              1.1309444              0.7434568
SP   1   1.00
      0.1267512              1.0000000              1.0000000
D    1   1.00
      0.8020000              1.0000000
D    1   1.00
      0.2005000              1.0000000
F    1   1.00
      0.5000000              1.0000000
****
C     0
S    6   1.00
   3047.5249000              0.0018347
    457.3695100              0.0140373
    103.9486900              0.0688426
     29.2101550              0.2321844
      9.2866630              0.4679413
      3.1639270              0.3623120
SP   3   1.00
      7.8682724             -0.1193324              0.0689991
      1.8812885             -0.1608542              0.3164240
      0.5442493              1.1434564              0.7443083
SP   1   1.00
      0.1687144              1.0000000              1.0000000
D    1   1.00
      1.2520000              1.0000000
D    1   1.00
      0.3130000              1.0000000
F    1   1.00
      0.8000000              1.0000000
****
N     0
S    6   1.00
   4173.5110000              0.0018348
    627.4579000              0.0139950
    142.9021000              0.0685870
     40.2343300              0.2322410
     12.8202100              0.4690700
      4.3904370              0.3604550
SP   3   1.00
     11.6263580             -0.1149610              0.0675800
      2.7162800             -0.1691180              0.3239070
      0.7722180              1.1458520              0.7408950
SP   1   1.00
      0.2120313              1.0000000              1.0000000
D    1   1.00
      1.8260000              1.0000000
D    1   1.00
      0.4565000              1.0000000
F    1   1.00
      1.0000000              1.0000000
****
O     0
S    6   1.00
   5484.6717000              0.0018311
    825.2349500              0.0139501
    188.0469600              0.0684451
     52.9645000              0.2327143
     16.8975700              0.4701930
      5.7996353              0.3585209
SP   3   1.00
     15.5396160             -0.1107775              0.0708743
      3.5999336             -0.1480263              0.3397528
      1.0137618              1.1307670              0.7271586
SP   1   1.00
      0.2700058              1.0000000              1.0000000
D    1   1.00
      2.5840000              1.0000000
D    1   1.00
      0.6460000              1.0000000
F    1   1.00
      1.4000000              1.0000000
****
F     0
S    6   1.00
   7001.7130900              0.0018196169
   1051.3660900              0.0139160796
    239.2856900              0.0684053245
     67.3974453              0.233185760
     21.5199573              0.471267439
      7.40310130             0.356618546
SP   3   1.00
     20.8479528             -0.108506975            0.0716287243
      4.80830834            -0.146451658            0.3459121030
      1.34406986             1.128688580            0.7224699570
SP   1   1.00
      0.358151393            1.0000000              1.0000000
D    1   1.00
      3.5000000              1.0000000
D    1   1.00
      0.8750000              1.0000000
F    1   1.00
      1.8500000              1.0000000
****
Al     0
S    6   1.00
  13983.1000000              0.00194267
   2098.7500000              0.0148599
    477.7050000              0.0728494
    134.3600000              0.2468300
     42.8709000              0.4872580
     14.5189000              0.3234960
SP   6   1.00
    239.6680000             -0.00292619             0.00460285
     57.4419000             -0.0374080              0.0331990
     18.2859000             -0.1144870              0.1362820
      6.5991400              0.1156350              0.3304760
      2.4904900              0.6125950              0.4491460
      0.9445400              0.3937990              0.2657040
SP   3   1.00
      1.2779000             -0.2276060             -0.0175130
      0.3975900              0.00144583             0.2445330
      0.1600950              1.0927900              0.8049340
SP   1   1.00
      0.0556577              1.0000000              1.0000000
D    1   1.00
      0.6500000              1.0000000
D    1   1.00
      0.1625000              1.0000000
F    1   1.00
      0.2500000              1.0000000
****
Si     0
S    6   1.00
  16115.9000000              0.00195948
   2425.5800000              0.01492880
    553.8670000              0.07284780
    156.3400000              0.24613000
     50.0683000              0.48591400
     17.0178000              0.32500200
SP   6   1.00
    292.7180000             -0.00278094             0.00443826
     69.8731000             -0.03571460             0.03266790
     22.3363000             -0.11498500             0.13472100
      8.1503900              0.09356340             0.32867800
      3.1345800              0.60301700             0.44964000
      1.2254300              0.41895900             0.26137200
SP   3   1.00
      1.7273800             -0.24463000            -0.01779510
      0.5729220              0.00431572             0.25353900
      0.2221920              1.09818000             0.80066900
SP   1   1.00
      0.0778369              1.00000000             1.00000000
D    1   1.00
      0.9000000              1.0000000
D    1   1.00
      0.2250000              1.0000000
F    1   1.00
      0.3200000              1.0000000
****
P     0
S    6   1.00
  19413.3000000              0.0018516
   2909.4200000              0.0142062
    661.3640000              0.0699995
    185.7590000              0.2400790
     59.1943000              0.4847620
     20.0310000              0.3352000
SP   6   1.00
    339.4780000             -0.00278217             0.00456462
     81.0101000             -0.0360499              0.03369360
     25.8780000             -0.1166310              0.13975500
      9.4522100              0.0968328              0.33936200
      3.6656600              0.6144180              0.45092100
      1.4674600              0.4037980              0.23858600
SP   3   1.00
      2.1562300             -0.2529230             -0.01776530
      0.7489970              0.0328517              0.27405800
      0.2831450              1.0812500              0.78542100
SP   1   1.00
      0.0998317              1.0000000              1.00000000
D    1   1.00
      1.1000000              1.0000000
D    1   1.00
      0.2750000              1.0000000
F    1   1.00
      0.4500000              1.0000000
****
S     0
S    6   1.00
  21917.1000000              0.0018690
   3301.4900000              0.0142300
    754.1460000              0.0696960
    212.7110000              0.2384870
     67.9896000              0.4833070
     23.0515000              0.3380740
SP   6   1.00
    423.7350000             -0.0023767              0.0040610
    100.7100000             -0.0316930              0.0306810
     32.1599000             -0.1133170              0.1304520
     11.8079000              0.0560900              0.3272050
      4.6311000              0.5922550              0.4528510
      1.8702500              0.4550060              0.2560420
SP   3   1.00
      2.6158400             -0.2503740             -0.0145110
      0.9221670              0.0669570              0.3102630
      0.3412870              1.0545100              0.7544830
SP   1   1.00
      0.1171670              1.0000000              1.0000000
D    1   1.00
      1.3000000              1.0000000
D    1   1.00
      0.3250000              1.0000000
F    1   1.00
      0.5500000              1.0000000
****
Cl     0
S    6   1.00
  25180.1000000              0.0018330
   3780.3500000              0.0140340
    860.4740000              0.0690970
    242.1450000              0.2374520
     77.3349000              0.4830340
     26.2470000              0.3398560
SP   6   1.00
    491.7650000             -0.0022974              0.0039894
    116.9840000             -0.0307140              0.0303180
     37.4153000             -0.1125280              0.1298800
     13.7834000              0.0450160              0.3279510
      5.4521500              0.5893530              0.4535270
      2.2258800              0.4652060              0.2521540
SP   3   1.00
      3.1864900             -0.2518300             -0.0142990
      1.1442700              0.0615890              0.3235720
      0.4203770              1.0601800              0.7435070
SP   1   1.00
      0.1426570              1.0000000              1.0000000
D    1   1.00
      1.5000000              1.0000000
D    1   1.00
      0.3750000              1.0000000
F    1   1.00
      0.7000000              1.0000000
****
}

set {
reference uhf
freeze_core true
e_convergence 10
d_convergence 10
dft_spherical_points 1202
dft_radial_points 99
}

e = energy('b3lyp')

print_out('Grab this energy {0}'.format(e))
--------------------------------------------------------------------------

    Molecular point group: c1

    Geometry (in Bohr), charge = 0, multiplicity = 2:

       Center              X                  Y                   Z               Mass
    ------------   -----------------  -----------------  -----------------  -----------------
         C           -0.260120719028     0.804044245572     0.003299715711    12.000000000000
         O           -2.190641357028    -0.336632791728    -0.000622500489    15.994914619570
         C            2.410132941072    -0.241474696528    -0.001417417389    12.000000000000
         H            2.386849077772    -2.304828020928    -0.005645027289     1.007825032230
         H            3.396981896572     0.471255397772    -1.667654157389     1.007825032230
         H            3.383409873772     0.477760073372     1.660766515511     1.007825032230

  Charge       = 0
  Multiplicity = 2
  Basis Set: ANONYMOUS735C5F94
    Blend: 6-31G_2DFP_
  Basis Set: (ANONYMOUS735C5F94 AUX)
    Blend: DEF2-UNIVERSAL-JKFIT

    Orbital Energies [Eh]
    ---------------------

    Alpha Occupied:

       1A    -19.186882     2A    -10.271554     3A    -10.210388
       4A     -1.081307     5A     -0.761994     6A     -0.543929
       7A     -0.466582     8A     -0.457574     9A     -0.456131
      10A     -0.387526    11A     -0.386063    12A     -0.192065

    Alpha Virtual:

      13A     -0.018848    14A      0.091741    15A      0.136883
      16A      0.141268    17A      0.217892    18A      0.268213
      19A      0.428034    20A      0.431784    21A      0.443726
      22A      0.493584    23A      0.506263    24A      0.530269
      25A      0.562933    26A      0.577506    27A      0.608554
      28A      0.615885    29A      0.644098    30A      0.717678
      31A      0.766115    32A      0.785328    33A      0.832269
      34A      0.917265    35A      0.927076    36A      0.935711
      37A      1.023214    38A      1.085398    39A      1.107602
      40A      1.153430    41A      1.221769    42A      1.306312
      43A      1.316762    44A      1.327542    45A      1.403526
      46A      1.407489    47A      1.468127    48A      1.559957
      49A      1.630603    50A      1.653872    51A      1.720298
      52A      1.813404    53A      1.834539    54A      1.901343
      55A      2.065410    56A      2.166530    57A      2.495612
      58A      2.680235    59A      2.744114    60A      2.784014
      61A      2.842107    62A      2.894529    63A      2.973480
      64A      3.031215    65A      3.058324    66A      3.104842
      67A      3.115159    68A      3.182284    69A      3.314336
      70A      3.369393    71A      3.393212    72A      3.440323
      73A      3.465656    74A      3.485935    75A      3.570500
      76A      3.739653    77A      3.762130    78A      3.942931
      79A      3.982278    80A      4.055959    81A      4.110138
      82A      4.119686    83A      4.189190    84A      4.388974
      85A      4.434052    86A      4.449001    87A      4.532648
      88A      4.919086    89A      5.037041    90A      5.042262
      91A      5.198279    92A      5.207315    93A      5.473785
      94A      5.482582    95A      5.826674    96A      5.930545
      97A      6.104376    98A      6.770686    99A      6.772854
     100A      7.071040   101A      7.135076   102A      7.529980

    Beta Occupied:

       1A    -19.178816     2A    -10.261493     3A    -10.207011
       4A     -1.065381     5A     -0.750202     6A     -0.524219
       7A     -0.451826     8A     -0.446805     9A     -0.438915
      10A     -0.382340    11A     -0.347883

    Beta Virtual:

      12A     -0.052594    13A     -0.002574    14A      0.094448
      15A      0.142565    16A      0.144409    17A      0.228320
      18A      0.273896    19A      0.433556    20A      0.435423
      21A      0.465771    22A      0.500284    23A      0.527613
      24A      0.539206    25A      0.569306    26A      0.581700
      27A      0.623081    28A      0.627150    29A      0.649809
      30A      0.739656    31A      0.777258    32A      0.795306
      33A      0.833049    34A      0.922109    35A      0.943461
      36A      0.951011    37A      1.027404    38A      1.091536
      39A      1.109684    40A      1.159628    41A      1.231024
      42A      1.311831    43A      1.319644    44A      1.334323
      45A      1.412940    46A      1.413962    47A      1.480444
      48A      1.571122    49A      1.643888    50A      1.668250
      51A      1.726539    52A      1.816564    53A      1.848671
      54A      1.908008    55A      2.072123    56A      2.187943
      57A      2.508289    58A      2.694502    59A      2.758574
      60A      2.805112    61A      2.857480    62A      2.896174
      63A      2.982964    64A      3.047978    65A      3.066911
      66A      3.122378    67A      3.124728    68A      3.216986
      69A      3.357960    70A      3.380879    71A      3.399487
      72A      3.448506    73A      3.481428    74A      3.508964
      75A      3.583756    76A      3.765404    77A      3.771528
      78A      3.951623    79A      3.991580    80A      4.072325
      81A      4.122507    82A      4.124769    83A      4.200910
      84A      4.391240    85A      4.440186    86A      4.453247
      87A      4.543533    88A      4.922963    89A      5.054544
      90A      5.060269    91A      5.200448    92A      5.213038
      93A      5.486428    94A      5.496469    95A      5.839917
      96A      5.936134    97A      6.127575    98A      6.799969
      99A      6.802478   100A      7.075340   101A      7.164452
     102A      7.541645

    Final Occupation by Irrep:
              A
    DOCC [    11 ]
    SOCC [     1 ]

  @DF-UKS Final Energy:  -153.18842902197559

   => Energetics <=

    Nuclear Repulsion Energy =             62.7919218562581491
    One-Electron Energy =                -331.5836121363021221
    Two-Electron Energy =                 132.1838238046012748
    DFT Exchange-Correlation Energy =     -16.5805625465329243
    Empirical Dispersion Energy =           0.0000000000000000
    VV10 Nonlocal Energy =                  0.0000000000000000
    Total Energy =                       -153.1884290219755940

  UHF NO Occupations:
  HONO-2 :   10  A 1.9997847
  HONO-1 :   11  A 1.9992019
  HONO-0 :   12  A 1.0000000
  LUNO+0 :   13  A 0.0007981
  LUNO+1 :   14  A 0.0002153
  LUNO+2 :   15  A 0.0001800
  LUNO+3 :   16  A 0.0000615

Computation Completed

Properties will be evaluated at   0.000000,   0.000000,   0.000000 [a0]

Properties computed using the SCF density matrix

  Nuclear Dipole Moment: [e a0]
     X:     4.5422      Y:    -0.6735      Z:    -0.0062

  Electronic Dipole Moment: [e a0]
     X:    -3.6107      Y:     0.6247      Z:     0.0052

  Dipole Moment: [e a0]
     X:     0.9315      Y:    -0.0488      Z:    -0.0010     Total:     0.9328

  Dipole Moment: [D]
     X:     2.3677      Y:    -0.1240      Z:    -0.0025     Total:     2.3709

*** tstop() called on n049 at Thu Nov  4 14:53:24 2021
Module time:
	user time   =      50.88 seconds =       0.85 minutes
	system time =       0.55 seconds =       0.01 minutes
	total time  =         52 seconds =       0.87 minutes
Total time:
	user time   =      50.88 seconds =       0.85 minutes
	system time =       0.55 seconds =       0.01 minutes
	total time  =         52 seconds =       0.87 minutes
Grab this energy -153.1884290219756
    Psi4 stopped on: Thursday, 04 November 2021 02:53PM
    Psi4 wall time for execution: 0:00:51.47

*** Psi4 exiting successfully. Buy a developer a beer!
