                               Psi4 1.4a2.dev629

  ==> Input File <==

--------------------------------------------------------------------------
import os
memory 14 GB

molecule {
 C   -0.2540029800    0.8063874479    0.0004755925
 O   -2.1942685286   -0.3347964625   -0.0001004638
 C    2.4098998479   -0.2449549397    0.0015402505
 H    2.3829004126   -2.3094541291    0.0043248438
 H    3.3921716675    0.4724593365   -1.6676506174
 H    3.3879375628    0.4647243946    1.6614103944
units bohr
0 2
}

basis {

assign 6-31g_2dfp_

[ 6-31g_2dfp_ ]

spherical

!----------------------------------------------------------------------
! Basis Set Exchange
! Version v0.8.13
! https://www.basissetexchange.org
!----------------------------------------------------------------------
!   Basis set: 6-31G(2df,p)
! Description: 6-31G(2df,p)
!        Role: orbital
!     Version: 0  (Data from the original Basis Set Exchange)
!----------------------------------------------------------------------

****
H     0
S    3   1.00
     18.7311370              0.03349460
      2.8253937              0.23472695
      0.6401217              0.81375733
S    1   1.00
      0.1612778              1.00000000
P    1   1.00
      1.5000000              1.0000000
P    1   1.00
      0.3750000              1.0000000
****
B     0
S    6   1.00
   2068.8823000              0.0018663
    310.6495700              0.0142515
     70.6830330              0.0695516
     19.8610800              0.2325729
      6.2993048              0.4670787
      2.1270270              0.3634314
SP   3   1.00
      4.7279710             -0.1303938              0.0745976
      1.1903377             -0.1307889              0.3078467
      0.3594117              1.1309444              0.7434568
SP   1   1.00
      0.1267512              1.0000000              1.0000000
D    1   1.00
      0.8020000              1.0000000
D    1   1.00
      0.2005000              1.0000000
F    1   1.00
      0.5000000              1.0000000
****
C     0
S    6   1.00
   3047.5249000              0.0018347
    457.3695100              0.0140373
    103.9486900              0.0688426
     29.2101550              0.2321844
      9.2866630              0.4679413
      3.1639270              0.3623120
SP   3   1.00
      7.8682724             -0.1193324              0.0689991
      1.8812885             -0.1608542              0.3164240
      0.5442493              1.1434564              0.7443083
SP   1   1.00
      0.1687144              1.0000000              1.0000000
D    1   1.00
      1.2520000              1.0000000
D    1   1.00
      0.3130000              1.0000000
F    1   1.00
      0.8000000              1.0000000
****
N     0
S    6   1.00
   4173.5110000              0.0018348
    627.4579000              0.0139950
    142.9021000              0.0685870
     40.2343300              0.2322410
     12.8202100              0.4690700
      4.3904370              0.3604550
SP   3   1.00
     11.6263580             -0.1149610              0.0675800
      2.7162800             -0.1691180              0.3239070
      0.7722180              1.1458520              0.7408950
SP   1   1.00
      0.2120313              1.0000000              1.0000000
D    1   1.00
      1.8260000              1.0000000
D    1   1.00
      0.4565000              1.0000000
F    1   1.00
      1.0000000              1.0000000
****
O     0
S    6   1.00
   5484.6717000              0.0018311
    825.2349500              0.0139501
    188.0469600              0.0684451
     52.9645000              0.2327143
     16.8975700              0.4701930
      5.7996353              0.3585209
SP   3   1.00
     15.5396160             -0.1107775              0.0708743
      3.5999336             -0.1480263              0.3397528
      1.0137618              1.1307670              0.7271586
SP   1   1.00
      0.2700058              1.0000000              1.0000000
D    1   1.00
      2.5840000              1.0000000
D    1   1.00
      0.6460000              1.0000000
F    1   1.00
      1.4000000              1.0000000
****
F     0
S    6   1.00
   7001.7130900              0.0018196169
   1051.3660900              0.0139160796
    239.2856900              0.0684053245
     67.3974453              0.233185760
     21.5199573              0.471267439
      7.40310130             0.356618546
SP   3   1.00
     20.8479528             -0.108506975            0.0716287243
      4.80830834            -0.146451658            0.3459121030
      1.34406986             1.128688580            0.7224699570
SP   1   1.00
      0.358151393            1.0000000              1.0000000
D    1   1.00
      3.5000000              1.0000000
D    1   1.00
      0.8750000              1.0000000
F    1   1.00
      1.8500000              1.0000000
****
Al     0
S    6   1.00
  13983.1000000              0.00194267
   2098.7500000              0.0148599
    477.7050000              0.0728494
    134.3600000              0.2468300
     42.8709000              0.4872580
     14.5189000              0.3234960
SP   6   1.00
    239.6680000             -0.00292619             0.00460285
     57.4419000             -0.0374080              0.0331990
     18.2859000             -0.1144870              0.1362820
      6.5991400              0.1156350              0.3304760
      2.4904900              0.6125950              0.4491460
      0.9445400              0.3937990              0.2657040
SP   3   1.00
      1.2779000             -0.2276060             -0.0175130
      0.3975900              0.00144583             0.2445330
      0.1600950              1.0927900              0.8049340
SP   1   1.00
      0.0556577              1.0000000              1.0000000
D    1   1.00
      0.6500000              1.0000000
D    1   1.00
      0.1625000              1.0000000
F    1   1.00
      0.2500000              1.0000000
****
Si     0
S    6   1.00
  16115.9000000              0.00195948
   2425.5800000              0.01492880
    553.8670000              0.07284780
    156.3400000              0.24613000
     50.0683000              0.48591400
     17.0178000              0.32500200
SP   6   1.00
    292.7180000             -0.00278094             0.00443826
     69.8731000             -0.03571460             0.03266790
     22.3363000             -0.11498500             0.13472100
      8.1503900              0.09356340             0.32867800
      3.1345800              0.60301700             0.44964000
      1.2254300              0.41895900             0.26137200
SP   3   1.00
      1.7273800             -0.24463000            -0.01779510
      0.5729220              0.00431572             0.25353900
      0.2221920              1.09818000             0.80066900
SP   1   1.00
      0.0778369              1.00000000             1.00000000
D    1   1.00
      0.9000000              1.0000000
D    1   1.00
      0.2250000              1.0000000
F    1   1.00
      0.3200000              1.0000000
****
P     0
S    6   1.00
  19413.3000000              0.0018516
   2909.4200000              0.0142062
    661.3640000              0.0699995
    185.7590000              0.2400790
     59.1943000              0.4847620
     20.0310000              0.3352000
SP   6   1.00
    339.4780000             -0.00278217             0.00456462
     81.0101000             -0.0360499              0.03369360
     25.8780000             -0.1166310              0.13975500
      9.4522100              0.0968328              0.33936200
      3.6656600              0.6144180              0.45092100
      1.4674600              0.4037980              0.23858600
SP   3   1.00
      2.1562300             -0.2529230             -0.01776530
      0.7489970              0.0328517              0.27405800
      0.2831450              1.0812500              0.78542100
SP   1   1.00
      0.0998317              1.0000000              1.00000000
D    1   1.00
      1.1000000              1.0000000
D    1   1.00
      0.2750000              1.0000000
F    1   1.00
      0.4500000              1.0000000
****
S     0
S    6   1.00
  21917.1000000              0.0018690
   3301.4900000              0.0142300
    754.1460000              0.0696960
    212.7110000              0.2384870
     67.9896000              0.4833070
     23.0515000              0.3380740
SP   6   1.00
    423.7350000             -0.0023767              0.0040610
    100.7100000             -0.0316930              0.0306810
     32.1599000             -0.1133170              0.1304520
     11.8079000              0.0560900              0.3272050
      4.6311000              0.5922550              0.4528510
      1.8702500              0.4550060              0.2560420
SP   3   1.00
      2.6158400             -0.2503740             -0.0145110
      0.9221670              0.0669570              0.3102630
      0.3412870              1.0545100              0.7544830
SP   1   1.00
      0.1171670              1.0000000              1.0000000
D    1   1.00
      1.3000000              1.0000000
D    1   1.00
      0.3250000              1.0000000
F    1   1.00
      0.5500000              1.0000000
****
Cl     0
S    6   1.00
  25180.1000000              0.0018330
   3780.3500000              0.0140340
    860.4740000              0.0690970
    242.1450000              0.2374520
     77.3349000              0.4830340
     26.2470000              0.3398560
SP   6   1.00
    491.7650000             -0.0022974              0.0039894
    116.9840000             -0.0307140              0.0303180
     37.4153000             -0.1125280              0.1298800
     13.7834000              0.0450160              0.3279510
      5.4521500              0.5893530              0.4535270
      2.2258800              0.4652060              0.2521540
SP   3   1.00
      3.1864900             -0.2518300             -0.0142990
      1.1442700              0.0615890              0.3235720
      0.4203770              1.0601800              0.7435070
SP   1   1.00
      0.1426570              1.0000000              1.0000000
D    1   1.00
      1.5000000              1.0000000
D    1   1.00
      0.3750000              1.0000000
F    1   1.00
      0.7000000              1.0000000
****
}

set {
reference uhf
freeze_core true
e_convergence 10
d_convergence 10
dft_spherical_points 1202
dft_radial_points 99
}

e = energy('b3lyp')

print_out('Grab this energy {0}'.format(e))
--------------------------------------------------------------------------

    Molecular point group: c1

    Geometry (in Bohr), charge = 0, multiplicity = 2:

       Center              X                  Y                   Z               Mass
    ------------   -----------------  -----------------  -----------------  -----------------
         C           -0.254196737511     0.806407420575    -0.000004500761    12.000000000000
         O           -2.194462286111    -0.334776489825    -0.000580557061    15.994914619570
         C            2.409706090389    -0.244934967025     0.001060157239    12.000000000000
         H            2.382706655089    -2.309434156425     0.003844750539     1.007825032230
         H            3.391977909989     0.472479309175    -1.668130710661     1.007825032230
         H            3.387743805289     0.464744367275     1.660930301139     1.007825032230

  Charge       = 0
  Multiplicity = 2
  Basis Set: ANONYMOUS043E69D1
    Blend: 6-31G_2DFP_
  Basis Set: (ANONYMOUS043E69D1 AUX)
    Blend: DEF2-UNIVERSAL-JKFIT

    Orbital Energies [Eh]
    ---------------------

    Alpha Occupied:

       1A    -19.186844     2A    -10.272262     3A    -10.210675
       4A     -1.078737     5A     -0.762695     6A     -0.544218
       7A     -0.466023     8A     -0.457220     9A     -0.456305
      10A     -0.386448    11A     -0.385249    12A     -0.193102

    Alpha Virtual:

      13A     -0.020111    14A      0.091542    15A      0.136439
      16A      0.141110    17A      0.217933    18A      0.267996
      19A      0.427931    20A      0.431375    21A      0.443792
      22A      0.493679    23A      0.506171    24A      0.529848
      25A      0.562935    26A      0.577284    27A      0.605886
      28A      0.616022    29A      0.643732    30A      0.716803
      31A      0.765759    32A      0.785023    33A      0.831998
      34A      0.918278    35A      0.928108    36A      0.936120
      37A      1.022949    38A      1.084913    39A      1.106732
      40A      1.153541    41A      1.222112    42A      1.306596
      43A      1.316758    44A      1.327704    45A      1.403062
      46A      1.407161    47A      1.467566    48A      1.560215
      49A      1.628579    50A      1.652435    51A      1.719125
      52A      1.812701    53A      1.834062    54A      1.901082
      55A      2.064136    56A      2.165217    57A      2.489070
      58A      2.680393    59A      2.744204    60A      2.783925
      61A      2.841050    62A      2.894209    63A      2.972876
      64A      3.030435    65A      3.057388    66A      3.105704
      67A      3.115287    68A      3.182401    69A      3.314732
      70A      3.366678    71A      3.392995    72A      3.439122
      73A      3.465946    74A      3.484882    75A      3.570916
      76A      3.734366    77A      3.762425    78A      3.942880
      79A      3.985040    80A      4.054382    81A      4.110990
      82A      4.119402    83A      4.187916    84A      4.390101
      85A      4.435604    86A      4.448553    87A      4.533275
      88A      4.919344    89A      5.036973    90A      5.041989
      91A      5.195830    92A      5.208788    93A      5.467524
      94A      5.476481    95A      5.827967    96A      5.923512
      97A      6.099055    98A      6.770287    99A      6.772305
     100A      7.072023   101A      7.134939   102A      7.526748

    Beta Occupied:

       1A    -19.178755     2A    -10.262172     3A    -10.207341
       4A     -1.062707     5A     -0.750934     6A     -0.524448
       7A     -0.451898     8A     -0.447067     9A     -0.438209
      10A     -0.381198    11A     -0.346719

    Beta Virtual:

      12A     -0.053502    13A     -0.003810    14A      0.094226
      15A      0.142158    16A      0.144208    17A      0.228241
      18A      0.273762    19A      0.433270    20A      0.435063
      21A      0.465950    22A      0.500368    23A      0.527312
      24A      0.538907    25A      0.569262    26A      0.581538
      27A      0.623205    28A      0.624861    29A      0.649154
      30A      0.738525    31A      0.776981    32A      0.795118
      33A      0.832778    34A      0.923114    35A      0.944136
      36A      0.951873    37A      1.027124    38A      1.091048
      39A      1.108832    40A      1.159743    41A      1.231300
      42A      1.312172    43A      1.319581    44A      1.334503
      45A      1.412474    46A      1.413583    47A      1.479885
      48A      1.571544    49A      1.641690    50A      1.666822
      51A      1.725392    52A      1.815897    53A      1.848080
      54A      1.907731    55A      2.070867    56A      2.186700
      57A      2.501712    58A      2.694656    59A      2.758621
      60A      2.805044    61A      2.856431    62A      2.895846
      63A      2.982311    64A      3.047080    65A      3.065971
      66A      3.123140    67A      3.124789    68A      3.217111
      69A      3.358633    70A      3.378160    71A      3.399147
      72A      3.446509    73A      3.482512    74A      3.508021
      75A      3.584075    76A      3.760173    77A      3.771759
      78A      3.951567    79A      3.994280    80A      4.070731
      81A      4.122078    82A      4.125633    83A      4.199818
      84A      4.392339    85A      4.441838    86A      4.452768
      87A      4.544137    88A      4.923225    89A      5.054512
      90A      5.060044    91A      5.198517    92A      5.214029
      93A      5.480229    94A      5.490350    95A      5.841232
      96A      5.929107    97A      6.122315    98A      6.799644
      99A      6.802010   100A      7.076343   101A      7.164417
     102A      7.538463

    Final Occupation by Irrep:
              A
    DOCC [    11 ]
    SOCC [     1 ]

  @DF-UKS Final Energy:  -153.18834075031174

   => Energetics <=

    Nuclear Repulsion Energy =             62.7208580760445074
    One-Electron Energy =                -331.4487503135856628
    Two-Electron Energy =                 132.1175111209354611
    DFT Exchange-Correlation Energy =     -16.5779596337060617
    Empirical Dispersion Energy =           0.0000000000000000
    VV10 Nonlocal Energy =                  0.0000000000000000
    Total Energy =                       -153.1883407503117382

  UHF NO Occupations:
  HONO-2 :   10  A 1.9997883
  HONO-1 :   11  A 1.9991939
  HONO-0 :   12  A 1.0000000
  LUNO+0 :   13  A 0.0008061
  LUNO+1 :   14  A 0.0002117
  LUNO+2 :   15  A 0.0001822
  LUNO+3 :   16  A 0.0000620

Computation Completed

Properties will be evaluated at   0.000000,   0.000000,   0.000000 [a0]

Properties computed using the SCF density matrix

  Nuclear Dipole Moment: [e a0]
     X:     4.5398      Y:    -0.6816      Z:    -0.0017

  Electronic Dipole Moment: [e a0]
     X:    -3.5999      Y:     0.6323      Z:     0.0026

  Dipole Moment: [e a0]
     X:     0.9399      Y:    -0.0493      Z:     0.0010     Total:     0.9412

  Dipole Moment: [D]
     X:     2.3891      Y:    -0.1254      Z:     0.0025     Total:     2.3924

*** tstop() called on n078 at Tue Mar 15 10:32:02 2022
Module time:
	user time   =      44.35 seconds =       0.74 minutes
	system time =       0.56 seconds =       0.01 minutes
	total time  =         45 seconds =       0.75 minutes
Total time:
	user time   =      44.35 seconds =       0.74 minutes
	system time =       0.56 seconds =       0.01 minutes
	total time  =         45 seconds =       0.75 minutes
Grab this energy -153.18834075031174
    Psi4 stopped on: Tuesday, 15 March 2022 10:32AM
    Psi4 wall time for execution: 0:00:44.95

*** Psi4 exiting successfully. Buy a developer a beer!
