                               Psi4 1.4a2.dev629

  ==> Input File <==

--------------------------------------------------------------------------
import os
memory 14 GB

molecule {
 C   -0.2620935090    0.7980855469   -0.0000000002
 O   -2.2024950790   -0.3290426189    0.0000000103
 C    2.4122731494   -0.2445075601    0.0000000085
 H    2.3968291669   -2.3021389853    0.0000000253
 H    3.3910419338    0.4738690294   -1.6694652814
 H    3.3910422880    0.4738692081    1.6694650575
units bohr
0 2
}

basis {

assign 6-31g_2dfp_

[ 6-31g_2dfp_ ]

spherical

!----------------------------------------------------------------------
! Basis Set Exchange
! Version v0.8.13
! https://www.basissetexchange.org
!----------------------------------------------------------------------
!   Basis set: 6-31G(2df,p)
! Description: 6-31G(2df,p)
!        Role: orbital
!     Version: 0  (Data from the original Basis Set Exchange)
!----------------------------------------------------------------------

****
H     0
S    3   1.00
     18.7311370              0.03349460
      2.8253937              0.23472695
      0.6401217              0.81375733
S    1   1.00
      0.1612778              1.00000000
P    1   1.00
      1.5000000              1.0000000
P    1   1.00
      0.3750000              1.0000000
****
B     0
S    6   1.00
   2068.8823000              0.0018663
    310.6495700              0.0142515
     70.6830330              0.0695516
     19.8610800              0.2325729
      6.2993048              0.4670787
      2.1270270              0.3634314
SP   3   1.00
      4.7279710             -0.1303938              0.0745976
      1.1903377             -0.1307889              0.3078467
      0.3594117              1.1309444              0.7434568
SP   1   1.00
      0.1267512              1.0000000              1.0000000
D    1   1.00
      0.8020000              1.0000000
D    1   1.00
      0.2005000              1.0000000
F    1   1.00
      0.5000000              1.0000000
****
C     0
S    6   1.00
   3047.5249000              0.0018347
    457.3695100              0.0140373
    103.9486900              0.0688426
     29.2101550              0.2321844
      9.2866630              0.4679413
      3.1639270              0.3623120
SP   3   1.00
      7.8682724             -0.1193324              0.0689991
      1.8812885             -0.1608542              0.3164240
      0.5442493              1.1434564              0.7443083
SP   1   1.00
      0.1687144              1.0000000              1.0000000
D    1   1.00
      1.2520000              1.0000000
D    1   1.00
      0.3130000              1.0000000
F    1   1.00
      0.8000000              1.0000000
****
N     0
S    6   1.00
   4173.5110000              0.0018348
    627.4579000              0.0139950
    142.9021000              0.0685870
     40.2343300              0.2322410
     12.8202100              0.4690700
      4.3904370              0.3604550
SP   3   1.00
     11.6263580             -0.1149610              0.0675800
      2.7162800             -0.1691180              0.3239070
      0.7722180              1.1458520              0.7408950
SP   1   1.00
      0.2120313              1.0000000              1.0000000
D    1   1.00
      1.8260000              1.0000000
D    1   1.00
      0.4565000              1.0000000
F    1   1.00
      1.0000000              1.0000000
****
O     0
S    6   1.00
   5484.6717000              0.0018311
    825.2349500              0.0139501
    188.0469600              0.0684451
     52.9645000              0.2327143
     16.8975700              0.4701930
      5.7996353              0.3585209
SP   3   1.00
     15.5396160             -0.1107775              0.0708743
      3.5999336             -0.1480263              0.3397528
      1.0137618              1.1307670              0.7271586
SP   1   1.00
      0.2700058              1.0000000              1.0000000
D    1   1.00
      2.5840000              1.0000000
D    1   1.00
      0.6460000              1.0000000
F    1   1.00
      1.4000000              1.0000000
****
F     0
S    6   1.00
   7001.7130900              0.0018196169
   1051.3660900              0.0139160796
    239.2856900              0.0684053245
     67.3974453              0.233185760
     21.5199573              0.471267439
      7.40310130             0.356618546
SP   3   1.00
     20.8479528             -0.108506975            0.0716287243
      4.80830834            -0.146451658            0.3459121030
      1.34406986             1.128688580            0.7224699570
SP   1   1.00
      0.358151393            1.0000000              1.0000000
D    1   1.00
      3.5000000              1.0000000
D    1   1.00
      0.8750000              1.0000000
F    1   1.00
      1.8500000              1.0000000
****
Al     0
S    6   1.00
  13983.1000000              0.00194267
   2098.7500000              0.0148599
    477.7050000              0.0728494
    134.3600000              0.2468300
     42.8709000              0.4872580
     14.5189000              0.3234960
SP   6   1.00
    239.6680000             -0.00292619             0.00460285
     57.4419000             -0.0374080              0.0331990
     18.2859000             -0.1144870              0.1362820
      6.5991400              0.1156350              0.3304760
      2.4904900              0.6125950              0.4491460
      0.9445400              0.3937990              0.2657040
SP   3   1.00
      1.2779000             -0.2276060             -0.0175130
      0.3975900              0.00144583             0.2445330
      0.1600950              1.0927900              0.8049340
SP   1   1.00
      0.0556577              1.0000000              1.0000000
D    1   1.00
      0.6500000              1.0000000
D    1   1.00
      0.1625000              1.0000000
F    1   1.00
      0.2500000              1.0000000
****
Si     0
S    6   1.00
  16115.9000000              0.00195948
   2425.5800000              0.01492880
    553.8670000              0.07284780
    156.3400000              0.24613000
     50.0683000              0.48591400
     17.0178000              0.32500200
SP   6   1.00
    292.7180000             -0.00278094             0.00443826
     69.8731000             -0.03571460             0.03266790
     22.3363000             -0.11498500             0.13472100
      8.1503900              0.09356340             0.32867800
      3.1345800              0.60301700             0.44964000
      1.2254300              0.41895900             0.26137200
SP   3   1.00
      1.7273800             -0.24463000            -0.01779510
      0.5729220              0.00431572             0.25353900
      0.2221920              1.09818000             0.80066900
SP   1   1.00
      0.0778369              1.00000000             1.00000000
D    1   1.00
      0.9000000              1.0000000
D    1   1.00
      0.2250000              1.0000000
F    1   1.00
      0.3200000              1.0000000
****
P     0
S    6   1.00
  19413.3000000              0.0018516
   2909.4200000              0.0142062
    661.3640000              0.0699995
    185.7590000              0.2400790
     59.1943000              0.4847620
     20.0310000              0.3352000
SP   6   1.00
    339.4780000             -0.00278217             0.00456462
     81.0101000             -0.0360499              0.03369360
     25.8780000             -0.1166310              0.13975500
      9.4522100              0.0968328              0.33936200
      3.6656600              0.6144180              0.45092100
      1.4674600              0.4037980              0.23858600
SP   3   1.00
      2.1562300             -0.2529230             -0.01776530
      0.7489970              0.0328517              0.27405800
      0.2831450              1.0812500              0.78542100
SP   1   1.00
      0.0998317              1.0000000              1.00000000
D    1   1.00
      1.1000000              1.0000000
D    1   1.00
      0.2750000              1.0000000
F    1   1.00
      0.4500000              1.0000000
****
S     0
S    6   1.00
  21917.1000000              0.0018690
   3301.4900000              0.0142300
    754.1460000              0.0696960
    212.7110000              0.2384870
     67.9896000              0.4833070
     23.0515000              0.3380740
SP   6   1.00
    423.7350000             -0.0023767              0.0040610
    100.7100000             -0.0316930              0.0306810
     32.1599000             -0.1133170              0.1304520
     11.8079000              0.0560900              0.3272050
      4.6311000              0.5922550              0.4528510
      1.8702500              0.4550060              0.2560420
SP   3   1.00
      2.6158400             -0.2503740             -0.0145110
      0.9221670              0.0669570              0.3102630
      0.3412870              1.0545100              0.7544830
SP   1   1.00
      0.1171670              1.0000000              1.0000000
D    1   1.00
      1.3000000              1.0000000
D    1   1.00
      0.3250000              1.0000000
F    1   1.00
      0.5500000              1.0000000
****
Cl     0
S    6   1.00
  25180.1000000              0.0018330
   3780.3500000              0.0140340
    860.4740000              0.0690970
    242.1450000              0.2374520
     77.3349000              0.4830340
     26.2470000              0.3398560
SP   6   1.00
    491.7650000             -0.0022974              0.0039894
    116.9840000             -0.0307140              0.0303180
     37.4153000             -0.1125280              0.1298800
     13.7834000              0.0450160              0.3279510
      5.4521500              0.5893530              0.4535270
      2.2258800              0.4652060              0.2521540
SP   3   1.00
      3.1864900             -0.2518300             -0.0142990
      1.1442700              0.0615890              0.3235720
      0.4203770              1.0601800              0.7435070
SP   1   1.00
      0.1426570              1.0000000              1.0000000
D    1   1.00
      1.5000000              1.0000000
D    1   1.00
      0.3750000              1.0000000
F    1   1.00
      0.7000000              1.0000000
****
}

set {
reference uhf
freeze_core true
e_convergence 10
d_convergence 10
dft_spherical_points 1202
dft_radial_points 99
}

e = energy('b3lyp')

print_out('Grab this energy {0}'.format(e))
--------------------------------------------------------------------------

    Molecular point group: c1

    Geometry (in Bohr), charge = 0, multiplicity = 2:

       Center              X                  Y                   Z               Mass
    ------------   -----------------  -----------------  -----------------  -----------------
         C           -0.258006271584     0.797738526268    -0.000000001692    12.000000000000
         O           -2.198407841584    -0.329389639532     0.000000008808    15.994914619570
         C            2.416360386816    -0.244854580732     0.000000007008    12.000000000000
         H            2.400916404316    -2.302486005932     0.000000023808     1.007825032230
         H            3.395129171216     0.473522008768    -1.669465282892     1.007825032230
         H            3.395129525416     0.473522187468     1.669465056008     1.007825032230

  Charge       = 0
  Multiplicity = 2
  Basis Set: ANONYMOUS79E96AAE
    Blend: 6-31G_2DFP_
  Basis Set: (ANONYMOUS79E96AAE AUX)
    Blend: DEF2-UNIVERSAL-JKFIT

    Orbital Energies [Eh]
    ---------------------

    Alpha Occupied:

       1A    -19.186892     2A    -10.271800     3A    -10.210878
       4A     -1.080644     5A     -0.761839     6A     -0.543932
       7A     -0.465979     8A     -0.457673     9A     -0.455960
      10A     -0.387341    11A     -0.386271    12A     -0.191471

    Alpha Virtual:

      13A     -0.019147    14A      0.091188    15A      0.137330
      16A      0.140666    17A      0.217011    18A      0.267954
      19A      0.427429    20A      0.431882    21A      0.443523
      22A      0.493124    23A      0.506564    24A      0.530139
      25A      0.562903    26A      0.577268    27A      0.608380
      28A      0.615224    29A      0.644094    30A      0.718016
      31A      0.764642    32A      0.784825    33A      0.831945
      34A      0.917491    35A      0.926016    36A      0.934394
      37A      1.022878    38A      1.086359    39A      1.106003
      40A      1.152105    41A      1.222224    42A      1.306208
      43A      1.316865    44A      1.326729    45A      1.401515
      46A      1.407338    47A      1.468287    48A      1.560366
      49A      1.632438    50A      1.653602    51A      1.720330
      52A      1.811500    53A      1.832261    54A      1.900788
      55A      2.066030    56A      2.169971    57A      2.493344
      58A      2.680307    59A      2.743838    60A      2.784799
      61A      2.839079    62A      2.894790    63A      2.976403
      64A      3.027894    65A      3.056220    66A      3.104630
      67A      3.114059    68A      3.179542    69A      3.313923
      70A      3.365234    71A      3.394052    72A      3.440769
      73A      3.464157    74A      3.483158    75A      3.570052
      76A      3.738122    77A      3.764400    78A      3.941868
      79A      3.979964    80A      4.052871    81A      4.106428
      82A      4.119712    83A      4.186968    84A      4.386450
      85A      4.431675    86A      4.446142    87A      4.534477
      88A      4.917724    89A      5.036945    90A      5.042132
      91A      5.191927    92A      5.210993    93A      5.471729
      94A      5.480597    95A      5.827725    96A      5.929223
      97A      6.104021    98A      6.770504    99A      6.772799
     100A      7.071881   101A      7.134763   102A      7.529361

    Beta Occupied:

       1A    -19.178851     2A    -10.261710     3A    -10.207518
       4A     -1.064740     5A     -0.750062     6A     -0.524138
       7A     -0.451430     8A     -0.447096     9A     -0.438577
      10A     -0.382178    11A     -0.348057

    Beta Virtual:

      12A     -0.051883    13A     -0.002885    14A      0.093818
      15A      0.143074    16A      0.143795    17A      0.227461
      18A      0.273648    19A      0.433878    20A      0.434760
      21A      0.465119    22A      0.499798    23A      0.527814
      24A      0.539366    25A      0.569141    26A      0.581542
      27A      0.622632    28A      0.627024    29A      0.649926
      30A      0.740099    31A      0.775765    32A      0.794844
      33A      0.832724    34A      0.922331    35A      0.940317
      36A      0.951650    37A      1.027058    38A      1.092264
      39A      1.108227    40A      1.158286    41A      1.231593
      42A      1.311669    43A      1.319656    44A      1.333506
      45A      1.411699    46A      1.412834    47A      1.480472
      48A      1.571423    49A      1.645956    50A      1.667866
      51A      1.726542    52A      1.814722    53A      1.846439
      54A      1.907463    55A      2.072718    56A      2.191325
      57A      2.506026    58A      2.694511    59A      2.758368
      60A      2.806060    61A      2.854694    62A      2.896445
      63A      2.985786    64A      3.044726    65A      3.065016
      66A      3.122496    67A      3.123263    68A      3.214381
      69A      3.357743    70A      3.376901    71A      3.400142
      72A      3.449114    73A      3.479673    74A      3.506022
      75A      3.583397    76A      3.763698    77A      3.773900
      78A      3.950460    79A      3.989221    80A      4.069111
      81A      4.120942    82A      4.122495    83A      4.198880
      84A      4.388737    85A      4.437835    86A      4.450320
      87A      4.545425    88A      4.921544    89A      5.054444
      90A      5.060044    91A      5.194039    92A      5.216699
      93A      5.484400    94A      5.494484    95A      5.840945
      96A      5.934815    97A      6.127139    98A      6.799657
      99A      6.802284   100A      7.076183   101A      7.164055
     102A      7.541009

    Final Occupation by Irrep:
              A
    DOCC [    11 ]
    SOCC [     1 ]

  @DF-UKS Final Energy:  -153.18840982435088

   => Energetics <=

    Nuclear Repulsion Energy =             62.7114731520786819
    One-Electron Energy =                -331.4256685416756909
    Two-Electron Energy =                 132.1046738947603387
    DFT Exchange-Correlation Energy =     -16.5788883295142000
    Empirical Dispersion Energy =           0.0000000000000000
    VV10 Nonlocal Energy =                  0.0000000000000000
    Total Energy =                       -153.1884098243508845

  UHF NO Occupations:
  HONO-2 :   10  A 1.9997859
  HONO-1 :   11  A 1.9992031
  HONO-0 :   12  A 1.0000000
  LUNO+0 :   13  A 0.0007969
  LUNO+1 :   14  A 0.0002141
  LUNO+2 :   15  A 0.0001828
  LUNO+3 :   16  A 0.0000613

Computation Completed

Properties will be evaluated at   0.000000,   0.000000,   0.000000 [a0]

Properties computed using the SCF density matrix

  Nuclear Dipole Moment: [e a0]
     X:     4.5540      Y:    -0.6733      Z:    -0.0000

  Electronic Dipole Moment: [e a0]
     X:    -3.6183      Y:     0.6212      Z:     0.0000

  Dipole Moment: [e a0]
     X:     0.9357      Y:    -0.0520      Z:    -0.0000     Total:     0.9371

  Dipole Moment: [D]
     X:     2.3783      Y:    -0.1322      Z:    -0.0000     Total:     2.3820

*** tstop() called on n089 at Thu Nov  4 14:57:47 2021
Module time:
	user time   =      44.53 seconds =       0.74 minutes
	system time =       0.54 seconds =       0.01 minutes
	total time  =         45 seconds =       0.75 minutes
Total time:
	user time   =      44.53 seconds =       0.74 minutes
	system time =       0.54 seconds =       0.01 minutes
	total time  =         45 seconds =       0.75 minutes
Grab this energy -153.18840982435088
    Psi4 stopped on: Thursday, 04 November 2021 02:57PM
    Psi4 wall time for execution: 0:00:45.12

*** Psi4 exiting successfully. Buy a developer a beer!
