                               Psi4 1.4a2.dev629

  ==> Input File <==

--------------------------------------------------------------------------
import os
memory 14 GB

molecule {
 C   -0.2661004345    0.8011541383    0.0000000000
 O   -2.2076186285   -0.3334281182    0.0000000096
 C    2.4145531843   -0.2425842038    0.0000000100
 H    2.3920128039   -2.3053292852    0.0000000303
 H    3.3968753364    0.4751609596   -1.6650553688
 H    3.3968756884    0.4751611293    1.6650551388
units bohr
0 2
}

basis {

assign 6-31g_2dfp_

[ 6-31g_2dfp_ ]

spherical

!----------------------------------------------------------------------
! Basis Set Exchange
! Version v0.8.13
! https://www.basissetexchange.org
!----------------------------------------------------------------------
!   Basis set: 6-31G(2df,p)
! Description: 6-31G(2df,p)
!        Role: orbital
!     Version: 0  (Data from the original Basis Set Exchange)
!----------------------------------------------------------------------

****
H     0
S    3   1.00
     18.7311370              0.03349460
      2.8253937              0.23472695
      0.6401217              0.81375733
S    1   1.00
      0.1612778              1.00000000
P    1   1.00
      1.5000000              1.0000000
P    1   1.00
      0.3750000              1.0000000
****
B     0
S    6   1.00
   2068.8823000              0.0018663
    310.6495700              0.0142515
     70.6830330              0.0695516
     19.8610800              0.2325729
      6.2993048              0.4670787
      2.1270270              0.3634314
SP   3   1.00
      4.7279710             -0.1303938              0.0745976
      1.1903377             -0.1307889              0.3078467
      0.3594117              1.1309444              0.7434568
SP   1   1.00
      0.1267512              1.0000000              1.0000000
D    1   1.00
      0.8020000              1.0000000
D    1   1.00
      0.2005000              1.0000000
F    1   1.00
      0.5000000              1.0000000
****
C     0
S    6   1.00
   3047.5249000              0.0018347
    457.3695100              0.0140373
    103.9486900              0.0688426
     29.2101550              0.2321844
      9.2866630              0.4679413
      3.1639270              0.3623120
SP   3   1.00
      7.8682724             -0.1193324              0.0689991
      1.8812885             -0.1608542              0.3164240
      0.5442493              1.1434564              0.7443083
SP   1   1.00
      0.1687144              1.0000000              1.0000000
D    1   1.00
      1.2520000              1.0000000
D    1   1.00
      0.3130000              1.0000000
F    1   1.00
      0.8000000              1.0000000
****
N     0
S    6   1.00
   4173.5110000              0.0018348
    627.4579000              0.0139950
    142.9021000              0.0685870
     40.2343300              0.2322410
     12.8202100              0.4690700
      4.3904370              0.3604550
SP   3   1.00
     11.6263580             -0.1149610              0.0675800
      2.7162800             -0.1691180              0.3239070
      0.7722180              1.1458520              0.7408950
SP   1   1.00
      0.2120313              1.0000000              1.0000000
D    1   1.00
      1.8260000              1.0000000
D    1   1.00
      0.4565000              1.0000000
F    1   1.00
      1.0000000              1.0000000
****
O     0
S    6   1.00
   5484.6717000              0.0018311
    825.2349500              0.0139501
    188.0469600              0.0684451
     52.9645000              0.2327143
     16.8975700              0.4701930
      5.7996353              0.3585209
SP   3   1.00
     15.5396160             -0.1107775              0.0708743
      3.5999336             -0.1480263              0.3397528
      1.0137618              1.1307670              0.7271586
SP   1   1.00
      0.2700058              1.0000000              1.0000000
D    1   1.00
      2.5840000              1.0000000
D    1   1.00
      0.6460000              1.0000000
F    1   1.00
      1.4000000              1.0000000
****
F     0
S    6   1.00
   7001.7130900              0.0018196169
   1051.3660900              0.0139160796
    239.2856900              0.0684053245
     67.3974453              0.233185760
     21.5199573              0.471267439
      7.40310130             0.356618546
SP   3   1.00
     20.8479528             -0.108506975            0.0716287243
      4.80830834            -0.146451658            0.3459121030
      1.34406986             1.128688580            0.7224699570
SP   1   1.00
      0.358151393            1.0000000              1.0000000
D    1   1.00
      3.5000000              1.0000000
D    1   1.00
      0.8750000              1.0000000
F    1   1.00
      1.8500000              1.0000000
****
Al     0
S    6   1.00
  13983.1000000              0.00194267
   2098.7500000              0.0148599
    477.7050000              0.0728494
    134.3600000              0.2468300
     42.8709000              0.4872580
     14.5189000              0.3234960
SP   6   1.00
    239.6680000             -0.00292619             0.00460285
     57.4419000             -0.0374080              0.0331990
     18.2859000             -0.1144870              0.1362820
      6.5991400              0.1156350              0.3304760
      2.4904900              0.6125950              0.4491460
      0.9445400              0.3937990              0.2657040
SP   3   1.00
      1.2779000             -0.2276060             -0.0175130
      0.3975900              0.00144583             0.2445330
      0.1600950              1.0927900              0.8049340
SP   1   1.00
      0.0556577              1.0000000              1.0000000
D    1   1.00
      0.6500000              1.0000000
D    1   1.00
      0.1625000              1.0000000
F    1   1.00
      0.2500000              1.0000000
****
Si     0
S    6   1.00
  16115.9000000              0.00195948
   2425.5800000              0.01492880
    553.8670000              0.07284780
    156.3400000              0.24613000
     50.0683000              0.48591400
     17.0178000              0.32500200
SP   6   1.00
    292.7180000             -0.00278094             0.00443826
     69.8731000             -0.03571460             0.03266790
     22.3363000             -0.11498500             0.13472100
      8.1503900              0.09356340             0.32867800
      3.1345800              0.60301700             0.44964000
      1.2254300              0.41895900             0.26137200
SP   3   1.00
      1.7273800             -0.24463000            -0.01779510
      0.5729220              0.00431572             0.25353900
      0.2221920              1.09818000             0.80066900
SP   1   1.00
      0.0778369              1.00000000             1.00000000
D    1   1.00
      0.9000000              1.0000000
D    1   1.00
      0.2250000              1.0000000
F    1   1.00
      0.3200000              1.0000000
****
P     0
S    6   1.00
  19413.3000000              0.0018516
   2909.4200000              0.0142062
    661.3640000              0.0699995
    185.7590000              0.2400790
     59.1943000              0.4847620
     20.0310000              0.3352000
SP   6   1.00
    339.4780000             -0.00278217             0.00456462
     81.0101000             -0.0360499              0.03369360
     25.8780000             -0.1166310              0.13975500
      9.4522100              0.0968328              0.33936200
      3.6656600              0.6144180              0.45092100
      1.4674600              0.4037980              0.23858600
SP   3   1.00
      2.1562300             -0.2529230             -0.01776530
      0.7489970              0.0328517              0.27405800
      0.2831450              1.0812500              0.78542100
SP   1   1.00
      0.0998317              1.0000000              1.00000000
D    1   1.00
      1.1000000              1.0000000
D    1   1.00
      0.2750000              1.0000000
F    1   1.00
      0.4500000              1.0000000
****
S     0
S    6   1.00
  21917.1000000              0.0018690
   3301.4900000              0.0142300
    754.1460000              0.0696960
    212.7110000              0.2384870
     67.9896000              0.4833070
     23.0515000              0.3380740
SP   6   1.00
    423.7350000             -0.0023767              0.0040610
    100.7100000             -0.0316930              0.0306810
     32.1599000             -0.1133170              0.1304520
     11.8079000              0.0560900              0.3272050
      4.6311000              0.5922550              0.4528510
      1.8702500              0.4550060              0.2560420
SP   3   1.00
      2.6158400             -0.2503740             -0.0145110
      0.9221670              0.0669570              0.3102630
      0.3412870              1.0545100              0.7544830
SP   1   1.00
      0.1171670              1.0000000              1.0000000
D    1   1.00
      1.3000000              1.0000000
D    1   1.00
      0.3250000              1.0000000
F    1   1.00
      0.5500000              1.0000000
****
Cl     0
S    6   1.00
  25180.1000000              0.0018330
   3780.3500000              0.0140340
    860.4740000              0.0690970
    242.1450000              0.2374520
     77.3349000              0.4830340
     26.2470000              0.3398560
SP   6   1.00
    491.7650000             -0.0022974              0.0039894
    116.9840000             -0.0307140              0.0303180
     37.4153000             -0.1125280              0.1298800
     13.7834000              0.0450160              0.3279510
      5.4521500              0.5893530              0.4535270
      2.2258800              0.4652060              0.2521540
SP   3   1.00
      3.1864900             -0.2518300             -0.0142990
      1.1442700              0.0615890              0.3235720
      0.4203770              1.0601800              0.7435070
SP   1   1.00
      0.1426570              1.0000000              1.0000000
D    1   1.00
      1.5000000              1.0000000
D    1   1.00
      0.3750000              1.0000000
F    1   1.00
      0.7000000              1.0000000
****
}

set {
reference uhf
freeze_core true
e_convergence 10
d_convergence 10
dft_spherical_points 1202
dft_radial_points 99
}

e = energy('b3lyp')

print_out('Grab this energy {0}'.format(e))
--------------------------------------------------------------------------

    Molecular point group: c1

    Geometry (in Bohr), charge = 0, multiplicity = 2:

       Center              X                  Y                   Z               Mass
    ------------   -----------------  -----------------  -----------------  -----------------
         C           -0.259786954314     0.801059416941    -0.000000001680    12.000000000000
         O           -2.201305148314    -0.333522839559     0.000000007920    15.994914619570
         C            2.420866664486    -0.242678925159     0.000000008320    12.000000000000
         H            2.398326284086    -2.305424006559     0.000000028620     1.007825032230
         H            3.403188816586     0.475066238241    -1.665055370480     1.007825032230
         H            3.403189168586     0.475066407941     1.665055137120     1.007825032230

  Charge       = 0
  Multiplicity = 2
  Basis Set: ANONYMOUS13703EF7
    Blend: 6-31G_2DFP_
  Basis Set: (ANONYMOUS13703EF7 AUX)
    Blend: DEF2-UNIVERSAL-JKFIT

    Orbital Energies [Eh]
    ---------------------

    Alpha Occupied:

       1A    -19.187145     2A    -10.272601     3A    -10.211283
       4A     -1.079416     5A     -0.761341     6A     -0.544114
       7A     -0.465753     8A     -0.456960     9A     -0.455367
      10A     -0.386975    11A     -0.386268    12A     -0.192245

    Alpha Virtual:

      13A     -0.020038    14A      0.091310    15A      0.136710
      16A      0.140865    17A      0.215788    18A      0.267486
      19A      0.427291    20A      0.431864    21A      0.443019
      22A      0.493162    23A      0.506509    24A      0.530051
      25A      0.562910    26A      0.576797    27A      0.606229
      28A      0.615310    29A      0.643196    30A      0.717582
      31A      0.764524    32A      0.784252    33A      0.832012
      34A      0.917619    35A      0.926613    36A      0.934112
      37A      1.021123    38A      1.083002    39A      1.107191
      40A      1.152579    41A      1.219445    42A      1.305262
      43A      1.315787    44A      1.326160    45A      1.402421
      46A      1.406378    47A      1.466832    48A      1.560196
      49A      1.630285    50A      1.652519    51A      1.719800
      52A      1.811522    53A      1.829907    54A      1.899167
      55A      2.064591    56A      2.167361    57A      2.489665
      58A      2.679387    59A      2.742364    60A      2.783515
      61A      2.840263    62A      2.894484    63A      2.973779
      64A      3.027505    65A      3.055268    66A      3.106246
      67A      3.112126    68A      3.181449    69A      3.313725
      70A      3.365223    71A      3.392741    72A      3.438592
      73A      3.464064    74A      3.483357    75A      3.569133
      76A      3.733477    77A      3.758772    78A      3.940445
      79A      3.975447    80A      4.048369    81A      4.105387
      82A      4.118015    83A      4.186722    84A      4.385533
      85A      4.427456    86A      4.445544    87A      4.528999
      88A      4.917077    89A      5.036468    90A      5.041741
      91A      5.195066    92A      5.204656    93A      5.467257
      94A      5.476216    95A      5.827665    96A      5.924373
      97A      6.098802    98A      6.769926    99A      6.772181
     100A      7.071371   101A      7.134316   102A      7.527101

    Beta Occupied:

       1A    -19.179109     2A    -10.262508     3A    -10.207910
       4A     -1.063492     5A     -0.749584     6A     -0.524297
       7A     -0.450869     8A     -0.446591     9A     -0.438310
      10A     -0.381793    11A     -0.347821

    Beta Virtual:

      12A     -0.052740    13A     -0.003768    14A      0.093997
      15A      0.142373    16A      0.143987    17A      0.226410
      18A      0.273233    19A      0.433872    20A      0.434802
      21A      0.464368    22A      0.499820    23A      0.527773
      24A      0.539376    25A      0.569215    26A      0.581031
      27A      0.622662    28A      0.625092    29A      0.648759
      30A      0.739491    31A      0.775711    32A      0.794329
      33A      0.832786    34A      0.922445    35A      0.940397
      36A      0.951903    37A      1.025259    38A      1.089006
      39A      1.109350    40A      1.158754    41A      1.228843
      42A      1.310730    43A      1.318590    44A      1.332955
      45A      1.411838    46A      1.412658    47A      1.478928
      48A      1.571400    49A      1.643666    50A      1.666755
      51A      1.725970    52A      1.814769    53A      1.844079
      54A      1.905727    55A      2.071266    56A      2.188680
      57A      2.502328    58A      2.693548    59A      2.756817
      60A      2.804829    61A      2.856129    62A      2.896109
      63A      2.983066    64A      3.044387    65A      3.063875
      66A      3.120673    67A      3.124786    68A      3.216401
      69A      3.357598    70A      3.377188    71A      3.398948
      72A      3.447189    73A      3.479372    74A      3.505680
      75A      3.582545    76A      3.758609    77A      3.768819
      78A      3.949041    79A      3.984709    80A      4.064718
      81A      4.120611    82A      4.120844    83A      4.198050
      84A      4.387795    85A      4.433585    86A      4.449703
      87A      4.539853    88A      4.920899    89A      5.053928
      90A      5.059637    91A      5.197210    92A      5.210332
      93A      5.479959    94A      5.490052    95A      5.840861
      96A      5.929954    97A      6.121914    98A      6.799059
      99A      6.801645   100A      7.075668   101A      7.163595
     102A      7.538755

    Final Occupation by Irrep:
              A
    DOCC [    11 ]
    SOCC [     1 ]

  @DF-UKS Final Energy:  -153.18835704460926

   => Energetics <=

    Nuclear Repulsion Energy =             62.6095251860500355
    One-Electron Energy =                -331.2269989340164784
    Two-Electron Energy =                 132.0050039395503916
    DFT Exchange-Correlation Energy =     -16.5758872361932390
    Empirical Dispersion Energy =           0.0000000000000000
    VV10 Nonlocal Energy =                  0.0000000000000000
    Total Energy =                       -153.1883570446092619

  UHF NO Occupations:
  HONO-2 :   10  A 1.9997829
  HONO-1 :   11  A 1.9992010
  HONO-0 :   12  A 1.0000000
  LUNO+0 :   13  A 0.0007990
  LUNO+1 :   14  A 0.0002171
  LUNO+2 :   15  A 0.0001843
  LUNO+3 :   16  A 0.0000614

Computation Completed

Properties will be evaluated at   0.000000,   0.000000,   0.000000 [a0]

Properties computed using the SCF density matrix

  Nuclear Dipole Moment: [e a0]
     X:     4.5607      Y:    -0.6732      Z:    -0.0000

  Electronic Dipole Moment: [e a0]
     X:    -3.6218      Y:     0.6234      Z:     0.0000

  Dipole Moment: [e a0]
     X:     0.9389      Y:    -0.0498      Z:    -0.0000     Total:     0.9402

  Dipole Moment: [D]
     X:     2.3865      Y:    -0.1266      Z:    -0.0000     Total:     2.3899

*** tstop() called on n036 at Thu Nov  4 15:01:05 2021
Module time:
	user time   =      62.37 seconds =       1.04 minutes
	system time =       0.42 seconds =       0.01 minutes
	total time  =         63 seconds =       1.05 minutes
Total time:
	user time   =      62.37 seconds =       1.04 minutes
	system time =       0.42 seconds =       0.01 minutes
	total time  =         63 seconds =       1.05 minutes
Grab this energy -153.18835704460926
    Psi4 stopped on: Thursday, 04 November 2021 03:01PM
    Psi4 wall time for execution: 0:01:02.83

*** Psi4 exiting successfully. Buy a developer a beer!
