                               Psi4 1.4a2.dev629

  ==> Input File <==

--------------------------------------------------------------------------
import os
memory 14 GB

molecule {
 C   -0.2584197042    0.8045437127    0.0009981052
 O   -2.1912406714   -0.3328791637   -0.0002807563
 C    2.4070717118   -0.2452489881   -0.0025949685
 H    2.3837119477   -2.3089987180    0.0010227312
 H    3.3919256656    0.4686026724   -1.6635777224
 H    3.3915890327    0.4683461325    1.6644326108
units bohr
0 2
}

basis {

assign 6-31g_2dfp_

[ 6-31g_2dfp_ ]

spherical

!----------------------------------------------------------------------
! Basis Set Exchange
! Version v0.8.13
! https://www.basissetexchange.org
!----------------------------------------------------------------------
!   Basis set: 6-31G(2df,p)
! Description: 6-31G(2df,p)
!        Role: orbital
!     Version: 0  (Data from the original Basis Set Exchange)
!----------------------------------------------------------------------

****
H     0
S    3   1.00
     18.7311370              0.03349460
      2.8253937              0.23472695
      0.6401217              0.81375733
S    1   1.00
      0.1612778              1.00000000
P    1   1.00
      1.5000000              1.0000000
P    1   1.00
      0.3750000              1.0000000
****
B     0
S    6   1.00
   2068.8823000              0.0018663
    310.6495700              0.0142515
     70.6830330              0.0695516
     19.8610800              0.2325729
      6.2993048              0.4670787
      2.1270270              0.3634314
SP   3   1.00
      4.7279710             -0.1303938              0.0745976
      1.1903377             -0.1307889              0.3078467
      0.3594117              1.1309444              0.7434568
SP   1   1.00
      0.1267512              1.0000000              1.0000000
D    1   1.00
      0.8020000              1.0000000
D    1   1.00
      0.2005000              1.0000000
F    1   1.00
      0.5000000              1.0000000
****
C     0
S    6   1.00
   3047.5249000              0.0018347
    457.3695100              0.0140373
    103.9486900              0.0688426
     29.2101550              0.2321844
      9.2866630              0.4679413
      3.1639270              0.3623120
SP   3   1.00
      7.8682724             -0.1193324              0.0689991
      1.8812885             -0.1608542              0.3164240
      0.5442493              1.1434564              0.7443083
SP   1   1.00
      0.1687144              1.0000000              1.0000000
D    1   1.00
      1.2520000              1.0000000
D    1   1.00
      0.3130000              1.0000000
F    1   1.00
      0.8000000              1.0000000
****
N     0
S    6   1.00
   4173.5110000              0.0018348
    627.4579000              0.0139950
    142.9021000              0.0685870
     40.2343300              0.2322410
     12.8202100              0.4690700
      4.3904370              0.3604550
SP   3   1.00
     11.6263580             -0.1149610              0.0675800
      2.7162800             -0.1691180              0.3239070
      0.7722180              1.1458520              0.7408950
SP   1   1.00
      0.2120313              1.0000000              1.0000000
D    1   1.00
      1.8260000              1.0000000
D    1   1.00
      0.4565000              1.0000000
F    1   1.00
      1.0000000              1.0000000
****
O     0
S    6   1.00
   5484.6717000              0.0018311
    825.2349500              0.0139501
    188.0469600              0.0684451
     52.9645000              0.2327143
     16.8975700              0.4701930
      5.7996353              0.3585209
SP   3   1.00
     15.5396160             -0.1107775              0.0708743
      3.5999336             -0.1480263              0.3397528
      1.0137618              1.1307670              0.7271586
SP   1   1.00
      0.2700058              1.0000000              1.0000000
D    1   1.00
      2.5840000              1.0000000
D    1   1.00
      0.6460000              1.0000000
F    1   1.00
      1.4000000              1.0000000
****
F     0
S    6   1.00
   7001.7130900              0.0018196169
   1051.3660900              0.0139160796
    239.2856900              0.0684053245
     67.3974453              0.233185760
     21.5199573              0.471267439
      7.40310130             0.356618546
SP   3   1.00
     20.8479528             -0.108506975            0.0716287243
      4.80830834            -0.146451658            0.3459121030
      1.34406986             1.128688580            0.7224699570
SP   1   1.00
      0.358151393            1.0000000              1.0000000
D    1   1.00
      3.5000000              1.0000000
D    1   1.00
      0.8750000              1.0000000
F    1   1.00
      1.8500000              1.0000000
****
Al     0
S    6   1.00
  13983.1000000              0.00194267
   2098.7500000              0.0148599
    477.7050000              0.0728494
    134.3600000              0.2468300
     42.8709000              0.4872580
     14.5189000              0.3234960
SP   6   1.00
    239.6680000             -0.00292619             0.00460285
     57.4419000             -0.0374080              0.0331990
     18.2859000             -0.1144870              0.1362820
      6.5991400              0.1156350              0.3304760
      2.4904900              0.6125950              0.4491460
      0.9445400              0.3937990              0.2657040
SP   3   1.00
      1.2779000             -0.2276060             -0.0175130
      0.3975900              0.00144583             0.2445330
      0.1600950              1.0927900              0.8049340
SP   1   1.00
      0.0556577              1.0000000              1.0000000
D    1   1.00
      0.6500000              1.0000000
D    1   1.00
      0.1625000              1.0000000
F    1   1.00
      0.2500000              1.0000000
****
Si     0
S    6   1.00
  16115.9000000              0.00195948
   2425.5800000              0.01492880
    553.8670000              0.07284780
    156.3400000              0.24613000
     50.0683000              0.48591400
     17.0178000              0.32500200
SP   6   1.00
    292.7180000             -0.00278094             0.00443826
     69.8731000             -0.03571460             0.03266790
     22.3363000             -0.11498500             0.13472100
      8.1503900              0.09356340             0.32867800
      3.1345800              0.60301700             0.44964000
      1.2254300              0.41895900             0.26137200
SP   3   1.00
      1.7273800             -0.24463000            -0.01779510
      0.5729220              0.00431572             0.25353900
      0.2221920              1.09818000             0.80066900
SP   1   1.00
      0.0778369              1.00000000             1.00000000
D    1   1.00
      0.9000000              1.0000000
D    1   1.00
      0.2250000              1.0000000
F    1   1.00
      0.3200000              1.0000000
****
P     0
S    6   1.00
  19413.3000000              0.0018516
   2909.4200000              0.0142062
    661.3640000              0.0699995
    185.7590000              0.2400790
     59.1943000              0.4847620
     20.0310000              0.3352000
SP   6   1.00
    339.4780000             -0.00278217             0.00456462
     81.0101000             -0.0360499              0.03369360
     25.8780000             -0.1166310              0.13975500
      9.4522100              0.0968328              0.33936200
      3.6656600              0.6144180              0.45092100
      1.4674600              0.4037980              0.23858600
SP   3   1.00
      2.1562300             -0.2529230             -0.01776530
      0.7489970              0.0328517              0.27405800
      0.2831450              1.0812500              0.78542100
SP   1   1.00
      0.0998317              1.0000000              1.00000000
D    1   1.00
      1.1000000              1.0000000
D    1   1.00
      0.2750000              1.0000000
F    1   1.00
      0.4500000              1.0000000
****
S     0
S    6   1.00
  21917.1000000              0.0018690
   3301.4900000              0.0142300
    754.1460000              0.0696960
    212.7110000              0.2384870
     67.9896000              0.4833070
     23.0515000              0.3380740
SP   6   1.00
    423.7350000             -0.0023767              0.0040610
    100.7100000             -0.0316930              0.0306810
     32.1599000             -0.1133170              0.1304520
     11.8079000              0.0560900              0.3272050
      4.6311000              0.5922550              0.4528510
      1.8702500              0.4550060              0.2560420
SP   3   1.00
      2.6158400             -0.2503740             -0.0145110
      0.9221670              0.0669570              0.3102630
      0.3412870              1.0545100              0.7544830
SP   1   1.00
      0.1171670              1.0000000              1.0000000
D    1   1.00
      1.3000000              1.0000000
D    1   1.00
      0.3250000              1.0000000
F    1   1.00
      0.5500000              1.0000000
****
Cl     0
S    6   1.00
  25180.1000000              0.0018330
   3780.3500000              0.0140340
    860.4740000              0.0690970
    242.1450000              0.2374520
     77.3349000              0.4830340
     26.2470000              0.3398560
SP   6   1.00
    491.7650000             -0.0022974              0.0039894
    116.9840000             -0.0307140              0.0303180
     37.4153000             -0.1125280              0.1298800
     13.7834000              0.0450160              0.3279510
      5.4521500              0.5893530              0.4535270
      2.2258800              0.4652060              0.2521540
SP   3   1.00
      3.1864900             -0.2518300             -0.0142990
      1.1442700              0.0615890              0.3235720
      0.4203770              1.0601800              0.7435070
SP   1   1.00
      0.1426570              1.0000000              1.0000000
D    1   1.00
      1.5000000              1.0000000
D    1   1.00
      0.3750000              1.0000000
F    1   1.00
      0.7000000              1.0000000
****
}

set {
reference uhf
freeze_core true
e_convergence 10
d_convergence 10
dft_spherical_points 1202
dft_radial_points 99
}

e = energy('b3lyp')

print_out('Grab this energy {0}'.format(e))
--------------------------------------------------------------------------

    Molecular point group: c1

    Geometry (in Bohr), charge = 0, multiplicity = 2:

       Center              X                  Y                   Z               Mass
    ------------   -----------------  -----------------  -----------------  -----------------
         C           -0.257817104498     0.804441973762     0.001503952136    12.000000000000
         O           -2.190638071698    -0.332980902638     0.000225090636    15.994914619570
         C            2.407674311502    -0.245350727038    -0.002089121564    12.000000000000
         H            2.384314547402    -2.309100456938     0.001528578136     1.007825032230
         H            3.392528265302     0.468500933462    -1.663071875464     1.007825032230
         H            3.392191632402     0.468244393562     1.664938457736     1.007825032230

  Charge       = 0
  Multiplicity = 2
  Basis Set: ANONYMOUSDD65AF9A
    Blend: 6-31G_2DFP_
  Basis Set: (ANONYMOUSDD65AF9A AUX)
    Blend: DEF2-UNIVERSAL-JKFIT

    Orbital Energies [Eh]
    ---------------------

    Alpha Occupied:

       1A    -19.186854     2A    -10.271536     3A    -10.210449
       4A     -1.081217     5A     -0.762133     6A     -0.544075
       7A     -0.466589     8A     -0.457568     9A     -0.456184
      10A     -0.387339    11A     -0.385920    12A     -0.192156

    Alpha Virtual:

      13A     -0.018950    14A      0.091653    15A      0.136797
      16A      0.141138    17A      0.218457    18A      0.268278
      19A      0.428158    20A      0.431771    21A      0.443827
      22A      0.493549    23A      0.506144    24A      0.530108
      25A      0.562557    26A      0.577321    27A      0.608557
      28A      0.615901    29A      0.644196    30A      0.717629
      31A      0.766052    32A      0.785292    33A      0.832353
      34A      0.917304    35A      0.927068    36A      0.935703
      37A      1.023159    38A      1.085427    39A      1.108407
      40A      1.153307    41A      1.221711    42A      1.306945
      43A      1.317029    44A      1.328067    45A      1.402673
      46A      1.406781    47A      1.467905    48A      1.560141
      49A      1.630547    50A      1.653782    51A      1.719241
      52A      1.813186    53A      1.834776    54A      1.902325
      55A      2.065144    56A      2.166454    57A      2.495425
      58A      2.680196    59A      2.744540    60A      2.783678
      61A      2.841906    62A      2.894406    63A      2.973656
      64A      3.031081    65A      3.058349    66A      3.104939
      67A      3.115853    68A      3.182354    69A      3.314723
      70A      3.368896    71A      3.393333    72A      3.440222
      73A      3.465965    74A      3.486083    75A      3.569084
      76A      3.739617    77A      3.763765    78A      3.944084
      79A      3.982400    80A      4.056262    81A      4.110430
      82A      4.120466    83A      4.190130    84A      4.386836
      85A      4.433990    86A      4.447895    87A      4.534795
      88A      4.916638    89A      5.036990    90A      5.042306
      91A      5.197481    92A      5.207339    93A      5.473685
      94A      5.482730    95A      5.826844    96A      5.930386
      97A      6.104693    98A      6.770743    99A      6.772894
     100A      7.071282   101A      7.135147   102A      7.529970

    Beta Occupied:

       1A    -19.178780     2A    -10.261469     3A    -10.207083
       4A     -1.065273     5A     -0.750343     6A     -0.524383
       7A     -0.451648     8A     -0.446861     9A     -0.439049
      10A     -0.382157    11A     -0.347751

    Beta Virtual:

      12A     -0.052628    13A     -0.002681    14A      0.094347
      15A      0.142525    16A      0.144292    17A      0.228803
      18A      0.273960    19A      0.433744    20A      0.435198
      21A      0.466061    22A      0.500245    23A      0.527454
      24A      0.538996    25A      0.568886    26A      0.581520
      27A      0.623124    28A      0.627203    29A      0.649911
      30A      0.739603    31A      0.777188    32A      0.795279
      33A      0.833139    34A      0.922150    35A      0.943432
      36A      0.951035    37A      1.027348    38A      1.091505
      39A      1.110490    40A      1.159511    41A      1.230949
      42A      1.312550    43A      1.319885    44A      1.334845
      45A      1.411312    46A      1.414044    47A      1.480257
      48A      1.571286    49A      1.643795    50A      1.668174
      51A      1.725481    52A      1.816358    53A      1.848941
      54A      1.909007    55A      2.071859    56A      2.187888
      57A      2.508099    58A      2.694446    59A      2.759009
      60A      2.804773    61A      2.857279    62A      2.896057
      63A      2.983185    64A      3.047753    65A      3.066892
      66A      3.123302    67A      3.124649    68A      3.217070
      69A      3.358407    70A      3.380325    71A      3.399487
      72A      3.448254    73A      3.481884    74A      3.509009
      75A      3.582481    76A      3.765377    77A      3.773136
      78A      3.952766    79A      3.991670    80A      4.072631
      81A      4.123148    82A      4.125327    83A      4.201740
      84A      4.389022    85A      4.440195    86A      4.452186
      87A      4.545721    88A      4.920480    89A      5.054521
      90A      5.060333    91A      5.199655    92A      5.213093
      93A      5.486337    94A      5.496626    95A      5.840100
      96A      5.935978    97A      6.127916    98A      6.800057
      99A      6.802551   100A      7.075588   101A      7.164554
     102A      7.541645

    Final Occupation by Irrep:
              A
    DOCC [    11 ]
    SOCC [     1 ]

  @DF-UKS Final Energy:  -153.18844820132506

   => Energetics <=

    Nuclear Repulsion Energy =             62.8023474153676133
    One-Electron Energy =                -331.6046592244122735
    Two-Electron Energy =                 132.1943111259725754
    DFT Exchange-Correlation Energy =     -16.5804475182529423
    Empirical Dispersion Energy =           0.0000000000000000
    VV10 Nonlocal Energy =                  0.0000000000000000
    Total Energy =                       -153.1884482013250590

  UHF NO Occupations:
  HONO-2 :   10  A 1.9997863
  HONO-1 :   11  A 1.9992003
  HONO-0 :   12  A 1.0000000
  LUNO+0 :   13  A 0.0007997
  LUNO+1 :   14  A 0.0002137
  LUNO+2 :   15  A 0.0001800
  LUNO+3 :   16  A 0.0000616

Computation Completed

Properties will be evaluated at   0.000000,   0.000000,   0.000000 [a0]

Properties computed using the SCF density matrix

  Nuclear Dipole Moment: [e a0]
     X:     4.5431      Y:    -0.6817      Z:     0.0017

  Electronic Dipole Moment: [e a0]
     X:    -3.6106      Y:     0.6314      Z:    -0.0020

  Dipole Moment: [e a0]
     X:     0.9325      Y:    -0.0503      Z:    -0.0004     Total:     0.9338

  Dipole Moment: [D]
     X:     2.3701      Y:    -0.1278      Z:    -0.0009     Total:     2.3735

*** tstop() called on n027 at Tue Mar 15 10:26:22 2022
Module time:
	user time   =      63.08 seconds =       1.05 minutes
	system time =       0.43 seconds =       0.01 minutes
	total time  =         64 seconds =       1.07 minutes
Total time:
	user time   =      63.08 seconds =       1.05 minutes
	system time =       0.43 seconds =       0.01 minutes
	total time  =         64 seconds =       1.07 minutes
Grab this energy -153.18844820132506
    Psi4 stopped on: Tuesday, 15 March 2022 10:26AM
    Psi4 wall time for execution: 0:01:03.55

*** Psi4 exiting successfully. Buy a developer a beer!
