                               Psi4 1.4a2.dev629

  ==> Input File <==

--------------------------------------------------------------------------
import os
memory 14 GB

molecule {
 C   -0.2622526041    0.8102730540   -0.0000000000
 O   -2.1907752477   -0.3344849884    0.0000000000
 C    2.4130192012   -0.2461273385   -0.0000000000
 H    2.3856744770   -2.3087258577    0.0000000000
 H    3.3894860779    0.4667153892   -1.6649396083
 H    3.3894860779    0.4667153892    1.6649396083
units bohr
0 2
}

basis {

assign 6-31g_2dfp_

[ 6-31g_2dfp_ ]

spherical

!----------------------------------------------------------------------
! Basis Set Exchange
! Version v0.8.13
! https://www.basissetexchange.org
!----------------------------------------------------------------------
!   Basis set: 6-31G(2df,p)
! Description: 6-31G(2df,p)
!        Role: orbital
!     Version: 0  (Data from the original Basis Set Exchange)
!----------------------------------------------------------------------

****
H     0
S    3   1.00
     18.7311370              0.03349460
      2.8253937              0.23472695
      0.6401217              0.81375733
S    1   1.00
      0.1612778              1.00000000
P    1   1.00
      1.5000000              1.0000000
P    1   1.00
      0.3750000              1.0000000
****
B     0
S    6   1.00
   2068.8823000              0.0018663
    310.6495700              0.0142515
     70.6830330              0.0695516
     19.8610800              0.2325729
      6.2993048              0.4670787
      2.1270270              0.3634314
SP   3   1.00
      4.7279710             -0.1303938              0.0745976
      1.1903377             -0.1307889              0.3078467
      0.3594117              1.1309444              0.7434568
SP   1   1.00
      0.1267512              1.0000000              1.0000000
D    1   1.00
      0.8020000              1.0000000
D    1   1.00
      0.2005000              1.0000000
F    1   1.00
      0.5000000              1.0000000
****
C     0
S    6   1.00
   3047.5249000              0.0018347
    457.3695100              0.0140373
    103.9486900              0.0688426
     29.2101550              0.2321844
      9.2866630              0.4679413
      3.1639270              0.3623120
SP   3   1.00
      7.8682724             -0.1193324              0.0689991
      1.8812885             -0.1608542              0.3164240
      0.5442493              1.1434564              0.7443083
SP   1   1.00
      0.1687144              1.0000000              1.0000000
D    1   1.00
      1.2520000              1.0000000
D    1   1.00
      0.3130000              1.0000000
F    1   1.00
      0.8000000              1.0000000
****
N     0
S    6   1.00
   4173.5110000              0.0018348
    627.4579000              0.0139950
    142.9021000              0.0685870
     40.2343300              0.2322410
     12.8202100              0.4690700
      4.3904370              0.3604550
SP   3   1.00
     11.6263580             -0.1149610              0.0675800
      2.7162800             -0.1691180              0.3239070
      0.7722180              1.1458520              0.7408950
SP   1   1.00
      0.2120313              1.0000000              1.0000000
D    1   1.00
      1.8260000              1.0000000
D    1   1.00
      0.4565000              1.0000000
F    1   1.00
      1.0000000              1.0000000
****
O     0
S    6   1.00
   5484.6717000              0.0018311
    825.2349500              0.0139501
    188.0469600              0.0684451
     52.9645000              0.2327143
     16.8975700              0.4701930
      5.7996353              0.3585209
SP   3   1.00
     15.5396160             -0.1107775              0.0708743
      3.5999336             -0.1480263              0.3397528
      1.0137618              1.1307670              0.7271586
SP   1   1.00
      0.2700058              1.0000000              1.0000000
D    1   1.00
      2.5840000              1.0000000
D    1   1.00
      0.6460000              1.0000000
F    1   1.00
      1.4000000              1.0000000
****
F     0
S    6   1.00
   7001.7130900              0.0018196169
   1051.3660900              0.0139160796
    239.2856900              0.0684053245
     67.3974453              0.233185760
     21.5199573              0.471267439
      7.40310130             0.356618546
SP   3   1.00
     20.8479528             -0.108506975            0.0716287243
      4.80830834            -0.146451658            0.3459121030
      1.34406986             1.128688580            0.7224699570
SP   1   1.00
      0.358151393            1.0000000              1.0000000
D    1   1.00
      3.5000000              1.0000000
D    1   1.00
      0.8750000              1.0000000
F    1   1.00
      1.8500000              1.0000000
****
Al     0
S    6   1.00
  13983.1000000              0.00194267
   2098.7500000              0.0148599
    477.7050000              0.0728494
    134.3600000              0.2468300
     42.8709000              0.4872580
     14.5189000              0.3234960
SP   6   1.00
    239.6680000             -0.00292619             0.00460285
     57.4419000             -0.0374080              0.0331990
     18.2859000             -0.1144870              0.1362820
      6.5991400              0.1156350              0.3304760
      2.4904900              0.6125950              0.4491460
      0.9445400              0.3937990              0.2657040
SP   3   1.00
      1.2779000             -0.2276060             -0.0175130
      0.3975900              0.00144583             0.2445330
      0.1600950              1.0927900              0.8049340
SP   1   1.00
      0.0556577              1.0000000              1.0000000
D    1   1.00
      0.6500000              1.0000000
D    1   1.00
      0.1625000              1.0000000
F    1   1.00
      0.2500000              1.0000000
****
Si     0
S    6   1.00
  16115.9000000              0.00195948
   2425.5800000              0.01492880
    553.8670000              0.07284780
    156.3400000              0.24613000
     50.0683000              0.48591400
     17.0178000              0.32500200
SP   6   1.00
    292.7180000             -0.00278094             0.00443826
     69.8731000             -0.03571460             0.03266790
     22.3363000             -0.11498500             0.13472100
      8.1503900              0.09356340             0.32867800
      3.1345800              0.60301700             0.44964000
      1.2254300              0.41895900             0.26137200
SP   3   1.00
      1.7273800             -0.24463000            -0.01779510
      0.5729220              0.00431572             0.25353900
      0.2221920              1.09818000             0.80066900
SP   1   1.00
      0.0778369              1.00000000             1.00000000
D    1   1.00
      0.9000000              1.0000000
D    1   1.00
      0.2250000              1.0000000
F    1   1.00
      0.3200000              1.0000000
****
P     0
S    6   1.00
  19413.3000000              0.0018516
   2909.4200000              0.0142062
    661.3640000              0.0699995
    185.7590000              0.2400790
     59.1943000              0.4847620
     20.0310000              0.3352000
SP   6   1.00
    339.4780000             -0.00278217             0.00456462
     81.0101000             -0.0360499              0.03369360
     25.8780000             -0.1166310              0.13975500
      9.4522100              0.0968328              0.33936200
      3.6656600              0.6144180              0.45092100
      1.4674600              0.4037980              0.23858600
SP   3   1.00
      2.1562300             -0.2529230             -0.01776530
      0.7489970              0.0328517              0.27405800
      0.2831450              1.0812500              0.78542100
SP   1   1.00
      0.0998317              1.0000000              1.00000000
D    1   1.00
      1.1000000              1.0000000
D    1   1.00
      0.2750000              1.0000000
F    1   1.00
      0.4500000              1.0000000
****
S     0
S    6   1.00
  21917.1000000              0.0018690
   3301.4900000              0.0142300
    754.1460000              0.0696960
    212.7110000              0.2384870
     67.9896000              0.4833070
     23.0515000              0.3380740
SP   6   1.00
    423.7350000             -0.0023767              0.0040610
    100.7100000             -0.0316930              0.0306810
     32.1599000             -0.1133170              0.1304520
     11.8079000              0.0560900              0.3272050
      4.6311000              0.5922550              0.4528510
      1.8702500              0.4550060              0.2560420
SP   3   1.00
      2.6158400             -0.2503740             -0.0145110
      0.9221670              0.0669570              0.3102630
      0.3412870              1.0545100              0.7544830
SP   1   1.00
      0.1171670              1.0000000              1.0000000
D    1   1.00
      1.3000000              1.0000000
D    1   1.00
      0.3250000              1.0000000
F    1   1.00
      0.5500000              1.0000000
****
Cl     0
S    6   1.00
  25180.1000000              0.0018330
   3780.3500000              0.0140340
    860.4740000              0.0690970
    242.1450000              0.2374520
     77.3349000              0.4830340
     26.2470000              0.3398560
SP   6   1.00
    491.7650000             -0.0022974              0.0039894
    116.9840000             -0.0307140              0.0303180
     37.4153000             -0.1125280              0.1298800
     13.7834000              0.0450160              0.3279510
      5.4521500              0.5893530              0.4535270
      2.2258800              0.4652060              0.2521540
SP   3   1.00
      3.1864900             -0.2518300             -0.0142990
      1.1442700              0.0615890              0.3235720
      0.4203770              1.0601800              0.7435070
SP   1   1.00
      0.1426570              1.0000000              1.0000000
D    1   1.00
      1.5000000              1.0000000
D    1   1.00
      0.3750000              1.0000000
F    1   1.00
      0.7000000              1.0000000
****
}

set {
reference uhf
freeze_core true
e_convergence 10
d_convergence 10
dft_spherical_points 1202
dft_radial_points 99
}

e = energy('b3lyp')

print_out('Grab this energy {0}'.format(e))
--------------------------------------------------------------------------

    Molecular point group: cs

    Geometry (in Bohr), charge = 0, multiplicity = 2:

       Center              X                  Y                   Z               Mass
    ------------   -----------------  -----------------  -----------------  -----------------
         C           -0.262352478030     0.809491226795     0.000000000000    12.000000000000
         O           -2.190875121630    -0.335266815605     0.000000000000    15.994914619570
         C            2.412919327270    -0.246909165705     0.000000000000    12.000000000000
         H            2.385574603070    -2.309507684905     0.000000000000     1.007825032230
         H            3.389386203970     0.465933561995    -1.664939608300     1.007825032230
         H            3.389386203970     0.465933561995     1.664939608300     1.007825032230

  Charge       = 0
  Multiplicity = 2
  Basis Set: ANONYMOUSD7D2ACEC
    Blend: 6-31G_2DFP_
  Basis Set: (ANONYMOUSD7D2ACEC AUX)
    Blend: DEF2-UNIVERSAL-JKFIT

    Orbital Energies [Eh]
    ---------------------

    Alpha Occupied:

       1Ap   -19.187169     2Ap   -10.271951     3Ap   -10.210274
       4Ap    -1.081434     5Ap    -0.761261     6Ap    -0.543914
       7Ap    -0.466155     8Ap    -0.457152     1App   -0.456321
       2App   -0.387909     9Ap    -0.386076    10Ap    -0.192719

    Alpha Virtual:

       3App   -0.018921    11Ap     0.092026    12Ap     0.137128
       4App    0.141559    13Ap     0.216396    14Ap     0.268114
      15Ap     0.428155     5App    0.431905    16Ap     0.443338
       6App    0.493481    17Ap     0.506426    18Ap     0.530434
       7App    0.563593    19Ap     0.577724    20Ap     0.607602
       8App    0.615375    21Ap     0.643847    22Ap     0.717801
       9App    0.766629    23Ap     0.785326    10App    0.832585
      11App    0.917064    24Ap     0.926899    25Ap     0.935760
      12App    1.022496    26Ap     1.085937    27Ap     1.106875
      13App    1.152714    28Ap     1.220726    29Ap     1.304990
      14App    1.316999    30Ap     1.326483    31Ap     1.404073
      15App    1.407777    32Ap     1.467252    33Ap     1.559061
      34Ap     1.628861    16App    1.653563    35Ap     1.721594
      17App    1.813842    36Ap     1.833498    37Ap     1.900768
      18App    2.064182    38Ap     2.163540    39Ap     2.495551
      19App    2.679784    40Ap     2.742603    41Ap     2.783917
      20App    2.842943    21App    2.895265    42Ap     2.971755
      43Ap     3.033121    22App    3.058562    23App    3.105657
      44Ap     3.112371    45Ap     3.183426    24App    3.313737
      46Ap     3.370211    25App    3.394337    26App    3.438770
      27App    3.464394    47Ap     3.486074    48Ap     3.572907
      49Ap     3.737761    50Ap     3.756959    51Ap     3.940907
      28App    3.980010    52Ap     4.052079    53Ap     4.107174
      29App    4.120689    54Ap     4.187714    30App    4.392174
      55Ap     4.431051    31App    4.448201    56Ap     4.529476
      57Ap     4.921439    58Ap     5.037025    32App    5.041902
      33App    5.199539    59Ap     5.208501    60Ap     5.472855
      34App    5.480670    61Ap     5.825431    35App    5.929300
      62Ap     6.101330    63Ap     6.770226    36App    6.772369
      37App    7.069893    64Ap     7.134907    65Ap     7.529264

    Beta Occupied:

       1Ap   -19.179095     2Ap   -10.261920     3Ap   -10.206852
       4Ap    -1.065505     5Ap    -0.749457     6Ap    -0.524128
       1App   -0.451789     7Ap    -0.446548     8Ap    -0.438448
       2App   -0.382708     9Ap    -0.347928

    Beta Virtual:

      10Ap    -0.053424     3App   -0.002619    11Ap     0.094746
      12Ap     0.142752     4App    0.144642    13Ap     0.227063
      14Ap     0.273809     5App    0.433882    15Ap     0.435917
      16Ap     0.464798     6App    0.500161    17Ap     0.527909
      18Ap     0.539323     7App    0.570111    19Ap     0.581887
       8App    0.622453    20Ap     0.626211    21Ap     0.649430
      22Ap     0.739640     9App    0.777754    23Ap     0.795307
      10App    0.833336    11App    0.921895    24Ap     0.943698
      25Ap     0.950721    12App    1.026687    26Ap     1.092095
      27Ap     1.108978    13App    1.158976    28Ap     1.229966
      29Ap     1.310555    14App    1.319837    30Ap     1.333283
      15App    1.413331    31Ap     1.414419    32Ap     1.479583
      33Ap     1.570390    34Ap     1.642057    16App    1.667958
      35Ap     1.727800    17App    1.816932    36Ap     1.847550
      37Ap     1.907421    18App    2.070897    38Ap     2.184908
      39Ap     2.508247    19App    2.694087    40Ap     2.757002
      41Ap     2.805036    20App    2.858164    21App    2.896904
      42Ap     2.981279    43Ap     3.049837    22App    3.067154
      44Ap     3.120842    23App    3.124197    45Ap     3.218046
      24App    3.357364    46Ap     3.381677    25App    3.400703
      26App    3.447482    27App    3.479778    47Ap     3.509326
      48Ap     3.585985    49Ap     3.762978    50Ap     3.766924
      51Ap     3.949651    28App    3.989362    52Ap     4.068613
      53Ap     4.122208    29App    4.123491    54Ap     4.199061
      30App    4.394511    55Ap     4.437224    31App    4.452269
      56Ap     4.540276    57Ap     4.925374    58Ap     5.054539
      32App    5.059942    33App    5.201702    59Ap     5.214139
      60Ap     5.485497    34App    5.494571    61Ap     5.838659
      35App    5.934883    62Ap     6.124532    63Ap     6.799560
      36App    6.802040    37App    7.074191    64Ap     7.164302
      65Ap     7.540934

    Final Occupation by Irrep:
             Ap   App
    DOCC [     9,    2 ]
    SOCC [     1,    0 ]

  @DF-UKS Final Energy:  -153.18839872589692

   => Energetics <=

    Nuclear Repulsion Energy =             62.7471192054601303
    One-Electron Energy =                -331.4945934959533815
    Two-Electron Energy =                 132.1389165649760855
    DFT Exchange-Correlation Energy =     -16.5798410003797549
    Empirical Dispersion Energy =           0.0000000000000000
    VV10 Nonlocal Energy =                  0.0000000000000000
    Total Energy =                       -153.1883987258969171

  UHF NO Occupations:
  HONO-2 :    8 Ap 1.9997786
  HONO-1 :    9 Ap 1.9992019
  HONO-0 :   10 Ap 1.0000000
  LUNO+0 :   11 Ap 0.0007981
  LUNO+1 :   12 Ap 0.0002214
  LUNO+2 :    3App 0.0001785
  LUNO+3 :   13 Ap 0.0000617

Computation Completed

Properties will be evaluated at   0.000000,   0.000000,   0.000000 [a0]

Properties computed using the SCF density matrix

  Nuclear Dipole Moment: [e a0]
     X:     4.5407      Y:    -0.6843      Z:     0.0000

  Electronic Dipole Moment: [e a0]
     X:    -3.6134      Y:     0.6339      Z:     0.0000

  Dipole Moment: [e a0]
     X:     0.9273      Y:    -0.0504      Z:     0.0000     Total:     0.9287

  Dipole Moment: [D]
     X:     2.3570      Y:    -0.1281      Z:     0.0000     Total:     2.3605

*** tstop() called on n082 at Tue Mar 15 10:26:04 2022
Module time:
	user time   =      46.58 seconds =       0.78 minutes
	system time =       0.53 seconds =       0.01 minutes
	total time  =         47 seconds =       0.78 minutes
Total time:
	user time   =      46.58 seconds =       0.78 minutes
	system time =       0.53 seconds =       0.01 minutes
	total time  =         47 seconds =       0.78 minutes
Grab this energy -153.18839872589692
    Psi4 stopped on: Tuesday, 15 March 2022 10:26AM
    Psi4 wall time for execution: 0:00:47.16

*** Psi4 exiting successfully. Buy a developer a beer!
