                               Psi4 1.4a2.dev629

  ==> Input File <==

--------------------------------------------------------------------------
import os
memory 14 GB

molecule {
 C   -0.2616387533    0.7963546715    0.0000000002
 O   -2.1879768210   -0.3330452493    0.0000000098
 C    2.4092870011   -0.2420619902    0.0000000103
 H    2.3831036495   -2.3045309167    0.0000000307
 H    3.3919112620    0.4767089678   -1.6634150626
 H    3.3919116116    0.4767091369    1.6634148317
units bohr
0 2
}

basis {

assign 6-31g_2dfp_

[ 6-31g_2dfp_ ]

spherical

!----------------------------------------------------------------------
! Basis Set Exchange
! Version v0.8.13
! https://www.basissetexchange.org
!----------------------------------------------------------------------
!   Basis set: 6-31G(2df,p)
! Description: 6-31G(2df,p)
!        Role: orbital
!     Version: 0  (Data from the original Basis Set Exchange)
!----------------------------------------------------------------------

****
H     0
S    3   1.00
     18.7311370              0.03349460
      2.8253937              0.23472695
      0.6401217              0.81375733
S    1   1.00
      0.1612778              1.00000000
P    1   1.00
      1.5000000              1.0000000
P    1   1.00
      0.3750000              1.0000000
****
B     0
S    6   1.00
   2068.8823000              0.0018663
    310.6495700              0.0142515
     70.6830330              0.0695516
     19.8610800              0.2325729
      6.2993048              0.4670787
      2.1270270              0.3634314
SP   3   1.00
      4.7279710             -0.1303938              0.0745976
      1.1903377             -0.1307889              0.3078467
      0.3594117              1.1309444              0.7434568
SP   1   1.00
      0.1267512              1.0000000              1.0000000
D    1   1.00
      0.8020000              1.0000000
D    1   1.00
      0.2005000              1.0000000
F    1   1.00
      0.5000000              1.0000000
****
C     0
S    6   1.00
   3047.5249000              0.0018347
    457.3695100              0.0140373
    103.9486900              0.0688426
     29.2101550              0.2321844
      9.2866630              0.4679413
      3.1639270              0.3623120
SP   3   1.00
      7.8682724             -0.1193324              0.0689991
      1.8812885             -0.1608542              0.3164240
      0.5442493              1.1434564              0.7443083
SP   1   1.00
      0.1687144              1.0000000              1.0000000
D    1   1.00
      1.2520000              1.0000000
D    1   1.00
      0.3130000              1.0000000
F    1   1.00
      0.8000000              1.0000000
****
N     0
S    6   1.00
   4173.5110000              0.0018348
    627.4579000              0.0139950
    142.9021000              0.0685870
     40.2343300              0.2322410
     12.8202100              0.4690700
      4.3904370              0.3604550
SP   3   1.00
     11.6263580             -0.1149610              0.0675800
      2.7162800             -0.1691180              0.3239070
      0.7722180              1.1458520              0.7408950
SP   1   1.00
      0.2120313              1.0000000              1.0000000
D    1   1.00
      1.8260000              1.0000000
D    1   1.00
      0.4565000              1.0000000
F    1   1.00
      1.0000000              1.0000000
****
O     0
S    6   1.00
   5484.6717000              0.0018311
    825.2349500              0.0139501
    188.0469600              0.0684451
     52.9645000              0.2327143
     16.8975700              0.4701930
      5.7996353              0.3585209
SP   3   1.00
     15.5396160             -0.1107775              0.0708743
      3.5999336             -0.1480263              0.3397528
      1.0137618              1.1307670              0.7271586
SP   1   1.00
      0.2700058              1.0000000              1.0000000
D    1   1.00
      2.5840000              1.0000000
D    1   1.00
      0.6460000              1.0000000
F    1   1.00
      1.4000000              1.0000000
****
F     0
S    6   1.00
   7001.7130900              0.0018196169
   1051.3660900              0.0139160796
    239.2856900              0.0684053245
     67.3974453              0.233185760
     21.5199573              0.471267439
      7.40310130             0.356618546
SP   3   1.00
     20.8479528             -0.108506975            0.0716287243
      4.80830834            -0.146451658            0.3459121030
      1.34406986             1.128688580            0.7224699570
SP   1   1.00
      0.358151393            1.0000000              1.0000000
D    1   1.00
      3.5000000              1.0000000
D    1   1.00
      0.8750000              1.0000000
F    1   1.00
      1.8500000              1.0000000
****
Al     0
S    6   1.00
  13983.1000000              0.00194267
   2098.7500000              0.0148599
    477.7050000              0.0728494
    134.3600000              0.2468300
     42.8709000              0.4872580
     14.5189000              0.3234960
SP   6   1.00
    239.6680000             -0.00292619             0.00460285
     57.4419000             -0.0374080              0.0331990
     18.2859000             -0.1144870              0.1362820
      6.5991400              0.1156350              0.3304760
      2.4904900              0.6125950              0.4491460
      0.9445400              0.3937990              0.2657040
SP   3   1.00
      1.2779000             -0.2276060             -0.0175130
      0.3975900              0.00144583             0.2445330
      0.1600950              1.0927900              0.8049340
SP   1   1.00
      0.0556577              1.0000000              1.0000000
D    1   1.00
      0.6500000              1.0000000
D    1   1.00
      0.1625000              1.0000000
F    1   1.00
      0.2500000              1.0000000
****
Si     0
S    6   1.00
  16115.9000000              0.00195948
   2425.5800000              0.01492880
    553.8670000              0.07284780
    156.3400000              0.24613000
     50.0683000              0.48591400
     17.0178000              0.32500200
SP   6   1.00
    292.7180000             -0.00278094             0.00443826
     69.8731000             -0.03571460             0.03266790
     22.3363000             -0.11498500             0.13472100
      8.1503900              0.09356340             0.32867800
      3.1345800              0.60301700             0.44964000
      1.2254300              0.41895900             0.26137200
SP   3   1.00
      1.7273800             -0.24463000            -0.01779510
      0.5729220              0.00431572             0.25353900
      0.2221920              1.09818000             0.80066900
SP   1   1.00
      0.0778369              1.00000000             1.00000000
D    1   1.00
      0.9000000              1.0000000
D    1   1.00
      0.2250000              1.0000000
F    1   1.00
      0.3200000              1.0000000
****
P     0
S    6   1.00
  19413.3000000              0.0018516
   2909.4200000              0.0142062
    661.3640000              0.0699995
    185.7590000              0.2400790
     59.1943000              0.4847620
     20.0310000              0.3352000
SP   6   1.00
    339.4780000             -0.00278217             0.00456462
     81.0101000             -0.0360499              0.03369360
     25.8780000             -0.1166310              0.13975500
      9.4522100              0.0968328              0.33936200
      3.6656600              0.6144180              0.45092100
      1.4674600              0.4037980              0.23858600
SP   3   1.00
      2.1562300             -0.2529230             -0.01776530
      0.7489970              0.0328517              0.27405800
      0.2831450              1.0812500              0.78542100
SP   1   1.00
      0.0998317              1.0000000              1.00000000
D    1   1.00
      1.1000000              1.0000000
D    1   1.00
      0.2750000              1.0000000
F    1   1.00
      0.4500000              1.0000000
****
S     0
S    6   1.00
  21917.1000000              0.0018690
   3301.4900000              0.0142300
    754.1460000              0.0696960
    212.7110000              0.2384870
     67.9896000              0.4833070
     23.0515000              0.3380740
SP   6   1.00
    423.7350000             -0.0023767              0.0040610
    100.7100000             -0.0316930              0.0306810
     32.1599000             -0.1133170              0.1304520
     11.8079000              0.0560900              0.3272050
      4.6311000              0.5922550              0.4528510
      1.8702500              0.4550060              0.2560420
SP   3   1.00
      2.6158400             -0.2503740             -0.0145110
      0.9221670              0.0669570              0.3102630
      0.3412870              1.0545100              0.7544830
SP   1   1.00
      0.1171670              1.0000000              1.0000000
D    1   1.00
      1.3000000              1.0000000
D    1   1.00
      0.3250000              1.0000000
F    1   1.00
      0.5500000              1.0000000
****
Cl     0
S    6   1.00
  25180.1000000              0.0018330
   3780.3500000              0.0140340
    860.4740000              0.0690970
    242.1450000              0.2374520
     77.3349000              0.4830340
     26.2470000              0.3398560
SP   6   1.00
    491.7650000             -0.0022974              0.0039894
    116.9840000             -0.0307140              0.0303180
     37.4153000             -0.1125280              0.1298800
     13.7834000              0.0450160              0.3279510
      5.4521500              0.5893530              0.4535270
      2.2258800              0.4652060              0.2521540
SP   3   1.00
      3.1864900             -0.2518300             -0.0142990
      1.1442700              0.0615890              0.3235720
      0.4203770              1.0601800              0.7435070
SP   1   1.00
      0.1426570              1.0000000              1.0000000
D    1   1.00
      1.5000000              1.0000000
D    1   1.00
      0.3750000              1.0000000
F    1   1.00
      0.7000000              1.0000000
****
}

set {
reference uhf
freeze_core true
e_convergence 10
d_convergence 10
dft_spherical_points 1202
dft_radial_points 99
}

e = energy('b3lyp')

print_out('Grab this energy {0}'.format(e))
--------------------------------------------------------------------------

    Molecular point group: c1

    Geometry (in Bohr), charge = 0, multiplicity = 2:

       Center              X                  Y                   Z               Mass
    ------------   -----------------  -----------------  -----------------  -----------------
         C           -0.261962674088     0.797219498495    -0.000000001683    12.000000000000
         O           -2.188300741788    -0.332180422305     0.000000007917    15.994914619570
         C            2.408963080312    -0.241197163205     0.000000008417    12.000000000000
         H            2.382779728712    -2.303666089705     0.000000028817     1.007825032230
         H            3.391587341212     0.477573794795    -1.663415064483     1.007825032230
         H            3.391587690812     0.477573963895     1.663414829817     1.007825032230

  Charge       = 0
  Multiplicity = 2
  Basis Set: ANONYMOUS00BFCC91
    Blend: 6-31G_2DFP_
  Basis Set: (ANONYMOUS00BFCC91 AUX)
    Blend: DEF2-UNIVERSAL-JKFIT

    Orbital Energies [Eh]
    ---------------------

    Alpha Occupied:

       1A    -19.186661     2A    -10.270462     3A    -10.210154
       4A     -1.083860     5A     -0.761883     6A     -0.543518
       7A     -0.467566     8A     -0.457729     9A     -0.456375
      10A     -0.388373    11A     -0.387036    12A     -0.190266

    Alpha Virtual:

      13A     -0.017395    14A      0.091727    15A      0.137211
      16A      0.141235    17A      0.218760    18A      0.268444
      19A      0.428028    20A      0.431887    21A      0.444009
      22A      0.493688    23A      0.506239    24A      0.530680
      25A      0.562666    26A      0.577573    27A      0.612067
      28A      0.616267    29A      0.644718    30A      0.718550
      31A      0.766011    32A      0.785710    33A      0.832129
      34A      0.916461    35A      0.926208    36A      0.935243
      37A      1.024359    38A      1.085244    39A      1.108531
      40A      1.153915    41A      1.222601    42A      1.307163
      43A      1.315954    44A      1.327874    45A      1.404001
      46A      1.408451    47A      1.469821    48A      1.560203
      49A      1.634474    50A      1.655705    51A      1.721439
      52A      1.813577    53A      1.835916    54A      1.901285
      55A      2.068169    56A      2.170900    57A      2.502433
      58A      2.680620    59A      2.745134    60A      2.784442
      61A      2.842563    62A      2.894248    63A      2.975679
      64A      3.030169    65A      3.058940    66A      3.103498
      67A      3.116781    68A      3.180980    69A      3.314133
      70A      3.371615    71A      3.392000    72A      3.442971
      73A      3.466927    74A      3.486530    75A      3.569059
      76A      3.746892    77A      3.765313    78A      3.943826
      79A      3.982300    80A      4.060425    81A      4.111889
      82A      4.118360    83A      4.191058    84A      4.387229
      85A      4.436149    86A      4.450270    87A      4.533230
      88A      4.918973    89A      5.037205    90A      5.042863
      91A      5.197876    92A      5.206851    93A      5.481178
      94A      5.490492    95A      5.826120    96A      5.938942
      97A      6.112258    98A      6.771489    99A      6.773842
     100A      7.071004   101A      7.135413   102A      7.533834

    Beta Occupied:

       1A    -19.178635     2A    -10.260407     3A    -10.206766
       4A     -1.068056     5A     -0.750067     6A     -0.523928
       7A     -0.451743     8A     -0.447002     9A     -0.439938
      10A     -0.383295    11A     -0.349138

    Beta Virtual:

      12A     -0.050811    13A     -0.001172    14A      0.094454
      15A      0.142929    16A      0.144406    17A      0.229156
      18A      0.274037    19A      0.433894    20A      0.434934
      21A      0.466286    22A      0.500395    23A      0.527722
      24A      0.539612    25A      0.568962    26A      0.581768
      27A      0.623572    28A      0.630048    29A      0.650982
      30A      0.740939    31A      0.777097    32A      0.795562
      33A      0.832931    34A      0.921323    35A      0.942516
      36A      0.950442    37A      1.028570    38A      1.091424
      39A      1.110546    40A      1.160069    41A      1.231952
      42A      1.312712    43A      1.318732    44A      1.334649
      45A      1.413979    46A      1.414370    47A      1.482093
      48A      1.571083    49A      1.648009    50A      1.670051
      51A      1.727704    52A      1.816817    53A      1.850159
      54A      1.907965    55A      2.074862    56A      2.192263
      57A      2.515127    58A      2.694874    59A      2.759694
      60A      2.805496    61A      2.858083    62A      2.895896
      63A      2.985115    64A      3.047187    65A      3.067573
      66A      3.122317    67A      3.125259    68A      3.215757
      69A      3.357491    70A      3.383132    71A      3.398352
      72A      3.451746    73A      3.481967    74A      3.509382
      75A      3.582452    76A      3.772414    77A      3.774925
      78A      3.952497    79A      3.991603    80A      4.076660
      81A      4.121183    82A      4.126131    83A      4.203090
      84A      4.389491    85A      4.442320    86A      4.454474
      87A      4.544185    88A      4.922826    89A      5.054632
      90A      5.060769    91A      5.200010    92A      5.212630
      93A      5.493737    94A      5.504382    95A      5.839349
      96A      5.944526    97A      6.135372    98A      6.800616
      99A      6.803308   100A      7.075282   101A      7.164638
     102A      7.545435

    Final Occupation by Irrep:
              A
    DOCC [    11 ]
    SOCC [     1 ]

  @DF-UKS Final Energy:  -153.18845281359563

   => Energetics <=

    Nuclear Repulsion Energy =             62.8980360378279784
    One-Electron Energy =                -331.7875550999356165
    Two-Electron Energy =                 132.2851039916543812
    DFT Exchange-Correlation Energy =     -16.5840377431423676
    Empirical Dispersion Energy =           0.0000000000000000
    VV10 Nonlocal Energy =                  0.0000000000000000
    Total Energy =                       -153.1884528135956316

  UHF NO Occupations:
  HONO-2 :   10  A 1.9997852
  HONO-1 :   11  A 1.9992112
  HONO-0 :   12  A 1.0000000
  LUNO+0 :   13  A 0.0007888
  LUNO+1 :   14  A 0.0002148
  LUNO+2 :   15  A 0.0001790
  LUNO+3 :   16  A 0.0000609

Computation Completed

Properties will be evaluated at   0.000000,   0.000000,   0.000000 [a0]

Properties computed using the SCF density matrix

  Nuclear Dipole Moment: [e a0]
     X:     4.5416      Y:    -0.6698      Z:    -0.0000

  Electronic Dipole Moment: [e a0]
     X:    -3.6156      Y:     0.6198      Z:     0.0000

  Dipole Moment: [e a0]
     X:     0.9260      Y:    -0.0500      Z:    -0.0000     Total:     0.9273

  Dipole Moment: [D]
     X:     2.3536      Y:    -0.1270      Z:    -0.0000     Total:     2.3570

*** tstop() called on n077 at Thu Nov  4 14:53:47 2021
Module time:
	user time   =      44.20 seconds =       0.74 minutes
	system time =       0.53 seconds =       0.01 minutes
	total time  =         45 seconds =       0.75 minutes
Total time:
	user time   =      44.20 seconds =       0.74 minutes
	system time =       0.53 seconds =       0.01 minutes
	total time  =         45 seconds =       0.75 minutes
Grab this energy -153.18845281359563
    Psi4 stopped on: Thursday, 04 November 2021 02:53PM
    Psi4 wall time for execution: 0:00:44.77

*** Psi4 exiting successfully. Buy a developer a beer!
