                               Psi4 1.4a2.dev629

  ==> Input File <==

--------------------------------------------------------------------------
import os
memory 14 GB

molecule {
 C   -0.2609541079    0.8055822843   -0.0004743029
 O   -2.1906978477   -0.3369730488    0.0000961988
 C    2.4109656597   -0.2401146382   -0.0015355916
 H    2.3865117045   -2.3099432560   -0.0043262568
 H    3.3882708892    0.4719190451   -1.6564335594
 H    3.3925016523    0.4796642337    1.6626733319
units bohr
0 2
}

basis {

assign 6-31g_2dfp_

[ 6-31g_2dfp_ ]

spherical

!----------------------------------------------------------------------
! Basis Set Exchange
! Version v0.8.13
! https://www.basissetexchange.org
!----------------------------------------------------------------------
!   Basis set: 6-31G(2df,p)
! Description: 6-31G(2df,p)
!        Role: orbital
!     Version: 0  (Data from the original Basis Set Exchange)
!----------------------------------------------------------------------

****
H     0
S    3   1.00
     18.7311370              0.03349460
      2.8253937              0.23472695
      0.6401217              0.81375733
S    1   1.00
      0.1612778              1.00000000
P    1   1.00
      1.5000000              1.0000000
P    1   1.00
      0.3750000              1.0000000
****
B     0
S    6   1.00
   2068.8823000              0.0018663
    310.6495700              0.0142515
     70.6830330              0.0695516
     19.8610800              0.2325729
      6.2993048              0.4670787
      2.1270270              0.3634314
SP   3   1.00
      4.7279710             -0.1303938              0.0745976
      1.1903377             -0.1307889              0.3078467
      0.3594117              1.1309444              0.7434568
SP   1   1.00
      0.1267512              1.0000000              1.0000000
D    1   1.00
      0.8020000              1.0000000
D    1   1.00
      0.2005000              1.0000000
F    1   1.00
      0.5000000              1.0000000
****
C     0
S    6   1.00
   3047.5249000              0.0018347
    457.3695100              0.0140373
    103.9486900              0.0688426
     29.2101550              0.2321844
      9.2866630              0.4679413
      3.1639270              0.3623120
SP   3   1.00
      7.8682724             -0.1193324              0.0689991
      1.8812885             -0.1608542              0.3164240
      0.5442493              1.1434564              0.7443083
SP   1   1.00
      0.1687144              1.0000000              1.0000000
D    1   1.00
      1.2520000              1.0000000
D    1   1.00
      0.3130000              1.0000000
F    1   1.00
      0.8000000              1.0000000
****
N     0
S    6   1.00
   4173.5110000              0.0018348
    627.4579000              0.0139950
    142.9021000              0.0685870
     40.2343300              0.2322410
     12.8202100              0.4690700
      4.3904370              0.3604550
SP   3   1.00
     11.6263580             -0.1149610              0.0675800
      2.7162800             -0.1691180              0.3239070
      0.7722180              1.1458520              0.7408950
SP   1   1.00
      0.2120313              1.0000000              1.0000000
D    1   1.00
      1.8260000              1.0000000
D    1   1.00
      0.4565000              1.0000000
F    1   1.00
      1.0000000              1.0000000
****
O     0
S    6   1.00
   5484.6717000              0.0018311
    825.2349500              0.0139501
    188.0469600              0.0684451
     52.9645000              0.2327143
     16.8975700              0.4701930
      5.7996353              0.3585209
SP   3   1.00
     15.5396160             -0.1107775              0.0708743
      3.5999336             -0.1480263              0.3397528
      1.0137618              1.1307670              0.7271586
SP   1   1.00
      0.2700058              1.0000000              1.0000000
D    1   1.00
      2.5840000              1.0000000
D    1   1.00
      0.6460000              1.0000000
F    1   1.00
      1.4000000              1.0000000
****
F     0
S    6   1.00
   7001.7130900              0.0018196169
   1051.3660900              0.0139160796
    239.2856900              0.0684053245
     67.3974453              0.233185760
     21.5199573              0.471267439
      7.40310130             0.356618546
SP   3   1.00
     20.8479528             -0.108506975            0.0716287243
      4.80830834            -0.146451658            0.3459121030
      1.34406986             1.128688580            0.7224699570
SP   1   1.00
      0.358151393            1.0000000              1.0000000
D    1   1.00
      3.5000000              1.0000000
D    1   1.00
      0.8750000              1.0000000
F    1   1.00
      1.8500000              1.0000000
****
Al     0
S    6   1.00
  13983.1000000              0.00194267
   2098.7500000              0.0148599
    477.7050000              0.0728494
    134.3600000              0.2468300
     42.8709000              0.4872580
     14.5189000              0.3234960
SP   6   1.00
    239.6680000             -0.00292619             0.00460285
     57.4419000             -0.0374080              0.0331990
     18.2859000             -0.1144870              0.1362820
      6.5991400              0.1156350              0.3304760
      2.4904900              0.6125950              0.4491460
      0.9445400              0.3937990              0.2657040
SP   3   1.00
      1.2779000             -0.2276060             -0.0175130
      0.3975900              0.00144583             0.2445330
      0.1600950              1.0927900              0.8049340
SP   1   1.00
      0.0556577              1.0000000              1.0000000
D    1   1.00
      0.6500000              1.0000000
D    1   1.00
      0.1625000              1.0000000
F    1   1.00
      0.2500000              1.0000000
****
Si     0
S    6   1.00
  16115.9000000              0.00195948
   2425.5800000              0.01492880
    553.8670000              0.07284780
    156.3400000              0.24613000
     50.0683000              0.48591400
     17.0178000              0.32500200
SP   6   1.00
    292.7180000             -0.00278094             0.00443826
     69.8731000             -0.03571460             0.03266790
     22.3363000             -0.11498500             0.13472100
      8.1503900              0.09356340             0.32867800
      3.1345800              0.60301700             0.44964000
      1.2254300              0.41895900             0.26137200
SP   3   1.00
      1.7273800             -0.24463000            -0.01779510
      0.5729220              0.00431572             0.25353900
      0.2221920              1.09818000             0.80066900
SP   1   1.00
      0.0778369              1.00000000             1.00000000
D    1   1.00
      0.9000000              1.0000000
D    1   1.00
      0.2250000              1.0000000
F    1   1.00
      0.3200000              1.0000000
****
P     0
S    6   1.00
  19413.3000000              0.0018516
   2909.4200000              0.0142062
    661.3640000              0.0699995
    185.7590000              0.2400790
     59.1943000              0.4847620
     20.0310000              0.3352000
SP   6   1.00
    339.4780000             -0.00278217             0.00456462
     81.0101000             -0.0360499              0.03369360
     25.8780000             -0.1166310              0.13975500
      9.4522100              0.0968328              0.33936200
      3.6656600              0.6144180              0.45092100
      1.4674600              0.4037980              0.23858600
SP   3   1.00
      2.1562300             -0.2529230             -0.01776530
      0.7489970              0.0328517              0.27405800
      0.2831450              1.0812500              0.78542100
SP   1   1.00
      0.0998317              1.0000000              1.00000000
D    1   1.00
      1.1000000              1.0000000
D    1   1.00
      0.2750000              1.0000000
F    1   1.00
      0.4500000              1.0000000
****
S     0
S    6   1.00
  21917.1000000              0.0018690
   3301.4900000              0.0142300
    754.1460000              0.0696960
    212.7110000              0.2384870
     67.9896000              0.4833070
     23.0515000              0.3380740
SP   6   1.00
    423.7350000             -0.0023767              0.0040610
    100.7100000             -0.0316930              0.0306810
     32.1599000             -0.1133170              0.1304520
     11.8079000              0.0560900              0.3272050
      4.6311000              0.5922550              0.4528510
      1.8702500              0.4550060              0.2560420
SP   3   1.00
      2.6158400             -0.2503740             -0.0145110
      0.9221670              0.0669570              0.3102630
      0.3412870              1.0545100              0.7544830
SP   1   1.00
      0.1171670              1.0000000              1.0000000
D    1   1.00
      1.3000000              1.0000000
D    1   1.00
      0.3250000              1.0000000
F    1   1.00
      0.5500000              1.0000000
****
Cl     0
S    6   1.00
  25180.1000000              0.0018330
   3780.3500000              0.0140340
    860.4740000              0.0690970
    242.1450000              0.2374520
     77.3349000              0.4830340
     26.2470000              0.3398560
SP   6   1.00
    491.7650000             -0.0022974              0.0039894
    116.9840000             -0.0307140              0.0303180
     37.4153000             -0.1125280              0.1298800
     13.7834000              0.0450160              0.3279510
      5.4521500              0.5893530              0.4535270
      2.2258800              0.4652060              0.2521540
SP   3   1.00
      3.1864900             -0.2518300             -0.0142990
      1.1442700              0.0615890              0.3235720
      0.4203770              1.0601800              0.7435070
SP   1   1.00
      0.1426570              1.0000000              1.0000000
D    1   1.00
      1.5000000              1.0000000
D    1   1.00
      0.3750000              1.0000000
F    1   1.00
      0.7000000              1.0000000
****
}

set {
reference uhf
freeze_core true
e_convergence 10
d_convergence 10
dft_spherical_points 1202
dft_radial_points 99
}

e = energy('b3lyp')

print_out('Grab this energy {0}'.format(e))
--------------------------------------------------------------------------

    Molecular point group: c1

    Geometry (in Bohr), charge = 0, multiplicity = 2:

       Center              X                  Y                   Z               Mass
    ------------   -----------------  -----------------  -----------------  -----------------
         C           -0.260933933529     0.804960052252     0.000005760476    12.000000000000
         O           -2.190677673329    -0.337595280848     0.000576262176    15.994914619570
         C            2.410985834071    -0.240736870248    -0.001055528224    12.000000000000
         H            2.386531878871    -2.310565488048    -0.003846193424     1.007825032230
         H            3.388291063571     0.471296813052    -1.655953496024     1.007825032230
         H            3.392521826671     0.479042001652     1.663153395276     1.007825032230

  Charge       = 0
  Multiplicity = 2
  Basis Set: ANONYMOUS467744A7
    Blend: 6-31G_2DFP_
  Basis Set: (ANONYMOUS467744A7 AUX)
    Blend: DEF2-UNIVERSAL-JKFIT

    Orbital Energies [Eh]
    ---------------------

    Alpha Occupied:

       1A    -19.186961     2A    -10.271683     3A    -10.210341
       4A     -1.081279     5A     -0.761920     6A     -0.543966
       7A     -0.466642     8A     -0.457119     9A     -0.456333
      10A     -0.387630    11A     -0.386115    12A     -0.192210

    Alpha Virtual:

      13A     -0.018888    14A      0.092019    15A      0.136270
      16A      0.141774    17A      0.217672    18A      0.268117
      19A      0.428250    20A      0.431443    21A      0.443789
      22A      0.493896    23A      0.506114    24A      0.530185
      25A      0.563291    26A      0.577317    27A      0.608310
      28A      0.616351    29A      0.643783    30A      0.717618
      31A      0.766086    32A      0.785277    33A      0.832559
      34A      0.917319    35A      0.927248    36A      0.935281
      37A      1.023317    38A      1.084370    39A      1.108684
      40A      1.153421    41A      1.220808    42A      1.306308
      43A      1.316463    44A      1.327166    45A      1.404101
      46A      1.407874    47A      1.467757    48A      1.559760
      49A      1.630283    50A      1.653872    51A      1.720671
      52A      1.814784    53A      1.833621    54A      1.901019
      55A      2.065620    56A      2.165870    57A      2.495429
      58A      2.680322    59A      2.743742    60A      2.783223
      61A      2.844232    62A      2.894348    63A      2.972395
      64A      3.030917    65A      3.058080    66A      3.105088
      67A      3.114790    68A      3.183377    69A      3.313886
      70A      3.370325    71A      3.392637    72A      3.439318
      73A      3.465797    74A      3.486639    75A      3.569992
      76A      3.739321    77A      3.760157    78A      3.942532
      79A      3.982392    80A      4.055749    81A      4.110201
      82A      4.119264    83A      4.189075    84A      4.390693
      85A      4.433150    86A      4.449621    87A      4.530976
      88A      4.919859    89A      5.036976    90A      5.042215
      91A      5.198159    92A      5.207962    93A      5.473394
      94A      5.482707    95A      5.826502    96A      5.930197
      97A      6.103599    98A      6.770577    99A      6.772745
     100A      7.070745   101A      7.134934   102A      7.529739

    Beta Occupied:

       1A    -19.178895     2A    -10.261630     3A    -10.206958
       4A     -1.065354     5A     -0.750143     6A     -0.524290
       7A     -0.451853     8A     -0.446448     9A     -0.439001
      10A     -0.382440    11A     -0.347919

    Beta Virtual:

      12A     -0.052827    13A     -0.002606    14A      0.094795
      15A      0.141937    16A      0.144882    17A      0.228158
      18A      0.273799    19A      0.433373    20A      0.435633
      21A      0.465695    22A      0.500600    23A      0.527497
      24A      0.539182    25A      0.569721    26A      0.581498
      27A      0.623470    28A      0.626847    29A      0.649439
      30A      0.739587    31A      0.777235    32A      0.795246
      33A      0.833345    34A      0.922158    35A      0.943280
      36A      0.950960    37A      1.027507    38A      1.090573
      39A      1.110715    40A      1.159624    41A      1.230046
      42A      1.311930    43A      1.319318    44A      1.333959
      45A      1.413213    46A      1.414653    47A      1.480035
      48A      1.570991    49A      1.643494    50A      1.668255
      51A      1.726914    52A      1.817997    53A      1.847719
      54A      1.907645    55A      2.072333    56A      2.187266
      57A      2.508101    58A      2.694594    59A      2.758108
      60A      2.804329    61A      2.859707    62A      2.895995
      63A      2.981901    64A      3.047768    65A      3.066551
      66A      3.122638    67A      3.124240    68A      3.218074
      69A      3.357470    70A      3.381847    71A      3.399036
      72A      3.447770    73A      3.481271    74A      3.509646
      75A      3.583118    76A      3.765100    77A      3.769598
      78A      3.951217    79A      3.991707    80A      4.072197
      81A      4.122010    82A      4.125651    83A      4.200137
      84A      4.392917    85A      4.439319    86A      4.453827
      87A      4.541815    88A      4.923784    89A      5.054433
      90A      5.060223    91A      5.202057    92A      5.211996
      93A      5.486032    94A      5.496555    95A      5.839738
      96A      5.935782    97A      6.126797    98A      6.799861
      99A      6.802371   100A      7.075043   101A      7.164305
     102A      7.541403

    Final Occupation by Irrep:
              A
    DOCC [    11 ]
    SOCC [     1 ]

  @DF-UKS Final Energy:  -153.18840561230775

   => Energetics <=

    Nuclear Repulsion Energy =             62.7815576926180796
    One-Electron Energy =                -331.5626769379403527
    Two-Electron Energy =                 132.1731453830392127
    DFT Exchange-Correlation Energy =     -16.5804317500247009
    Empirical Dispersion Energy =           0.0000000000000000
    VV10 Nonlocal Energy =                  0.0000000000000000
    Total Energy =                       -153.1884056123077471

  UHF NO Occupations:
  HONO-2 :   10  A 1.9997832
  HONO-1 :   11  A 1.9992018
  HONO-0 :   12  A 1.0000000
  LUNO+0 :   13  A 0.0007982
  LUNO+1 :   14  A 0.0002168
  LUNO+2 :   15  A 0.0001797
  LUNO+3 :   16  A 0.0000616

Computation Completed

Properties will be evaluated at   0.000000,   0.000000,   0.000000 [a0]

Properties computed using the SCF density matrix

  Nuclear Dipole Moment: [e a0]
     X:     4.5422      Y:    -0.6756      Z:     0.0017

  Electronic Dipole Moment: [e a0]
     X:    -3.6110      Y:     0.6282      Z:    -0.0026

  Dipole Moment: [e a0]
     X:     0.9313      Y:    -0.0475      Z:    -0.0010     Total:     0.9325

  Dipole Moment: [D]
     X:     2.3671      Y:    -0.1206      Z:    -0.0025     Total:     2.3701

*** tstop() called on n082 at Thu Nov  4 14:56:47 2021
Module time:
	user time   =      44.22 seconds =       0.74 minutes
	system time =       0.49 seconds =       0.01 minutes
	total time  =         45 seconds =       0.75 minutes
Total time:
	user time   =      44.22 seconds =       0.74 minutes
	system time =       0.49 seconds =       0.01 minutes
	total time  =         45 seconds =       0.75 minutes
Grab this energy -153.18840561230775
    Psi4 stopped on: Thursday, 04 November 2021 02:56PM
    Psi4 wall time for execution: 0:00:44.74

*** Psi4 exiting successfully. Buy a developer a beer!
