                               Psi4 1.4a2.dev629

  ==> Input File <==

--------------------------------------------------------------------------
import os
memory 14 GB

molecule {
 C   -0.2616759852    0.8006232237    0.0000000003
 O   -2.1825649061   -0.3306426927    0.0000000105
 C    2.4085023608   -0.2427203409    0.0000000099
 H    2.3912947980   -2.3062632850    0.0000000294
 H    3.3855206675    0.4745687720   -1.6636537973
 H    3.3855210150    0.4745689429    1.6636535673
units bohr
0 2
}

basis {

assign 6-31g_2dfp_

[ 6-31g_2dfp_ ]

spherical

!----------------------------------------------------------------------
! Basis Set Exchange
! Version v0.8.13
! https://www.basissetexchange.org
!----------------------------------------------------------------------
!   Basis set: 6-31G(2df,p)
! Description: 6-31G(2df,p)
!        Role: orbital
!     Version: 0  (Data from the original Basis Set Exchange)
!----------------------------------------------------------------------

****
H     0
S    3   1.00
     18.7311370              0.03349460
      2.8253937              0.23472695
      0.6401217              0.81375733
S    1   1.00
      0.1612778              1.00000000
P    1   1.00
      1.5000000              1.0000000
P    1   1.00
      0.3750000              1.0000000
****
B     0
S    6   1.00
   2068.8823000              0.0018663
    310.6495700              0.0142515
     70.6830330              0.0695516
     19.8610800              0.2325729
      6.2993048              0.4670787
      2.1270270              0.3634314
SP   3   1.00
      4.7279710             -0.1303938              0.0745976
      1.1903377             -0.1307889              0.3078467
      0.3594117              1.1309444              0.7434568
SP   1   1.00
      0.1267512              1.0000000              1.0000000
D    1   1.00
      0.8020000              1.0000000
D    1   1.00
      0.2005000              1.0000000
F    1   1.00
      0.5000000              1.0000000
****
C     0
S    6   1.00
   3047.5249000              0.0018347
    457.3695100              0.0140373
    103.9486900              0.0688426
     29.2101550              0.2321844
      9.2866630              0.4679413
      3.1639270              0.3623120
SP   3   1.00
      7.8682724             -0.1193324              0.0689991
      1.8812885             -0.1608542              0.3164240
      0.5442493              1.1434564              0.7443083
SP   1   1.00
      0.1687144              1.0000000              1.0000000
D    1   1.00
      1.2520000              1.0000000
D    1   1.00
      0.3130000              1.0000000
F    1   1.00
      0.8000000              1.0000000
****
N     0
S    6   1.00
   4173.5110000              0.0018348
    627.4579000              0.0139950
    142.9021000              0.0685870
     40.2343300              0.2322410
     12.8202100              0.4690700
      4.3904370              0.3604550
SP   3   1.00
     11.6263580             -0.1149610              0.0675800
      2.7162800             -0.1691180              0.3239070
      0.7722180              1.1458520              0.7408950
SP   1   1.00
      0.2120313              1.0000000              1.0000000
D    1   1.00
      1.8260000              1.0000000
D    1   1.00
      0.4565000              1.0000000
F    1   1.00
      1.0000000              1.0000000
****
O     0
S    6   1.00
   5484.6717000              0.0018311
    825.2349500              0.0139501
    188.0469600              0.0684451
     52.9645000              0.2327143
     16.8975700              0.4701930
      5.7996353              0.3585209
SP   3   1.00
     15.5396160             -0.1107775              0.0708743
      3.5999336             -0.1480263              0.3397528
      1.0137618              1.1307670              0.7271586
SP   1   1.00
      0.2700058              1.0000000              1.0000000
D    1   1.00
      2.5840000              1.0000000
D    1   1.00
      0.6460000              1.0000000
F    1   1.00
      1.4000000              1.0000000
****
F     0
S    6   1.00
   7001.7130900              0.0018196169
   1051.3660900              0.0139160796
    239.2856900              0.0684053245
     67.3974453              0.233185760
     21.5199573              0.471267439
      7.40310130             0.356618546
SP   3   1.00
     20.8479528             -0.108506975            0.0716287243
      4.80830834            -0.146451658            0.3459121030
      1.34406986             1.128688580            0.7224699570
SP   1   1.00
      0.358151393            1.0000000              1.0000000
D    1   1.00
      3.5000000              1.0000000
D    1   1.00
      0.8750000              1.0000000
F    1   1.00
      1.8500000              1.0000000
****
Al     0
S    6   1.00
  13983.1000000              0.00194267
   2098.7500000              0.0148599
    477.7050000              0.0728494
    134.3600000              0.2468300
     42.8709000              0.4872580
     14.5189000              0.3234960
SP   6   1.00
    239.6680000             -0.00292619             0.00460285
     57.4419000             -0.0374080              0.0331990
     18.2859000             -0.1144870              0.1362820
      6.5991400              0.1156350              0.3304760
      2.4904900              0.6125950              0.4491460
      0.9445400              0.3937990              0.2657040
SP   3   1.00
      1.2779000             -0.2276060             -0.0175130
      0.3975900              0.00144583             0.2445330
      0.1600950              1.0927900              0.8049340
SP   1   1.00
      0.0556577              1.0000000              1.0000000
D    1   1.00
      0.6500000              1.0000000
D    1   1.00
      0.1625000              1.0000000
F    1   1.00
      0.2500000              1.0000000
****
Si     0
S    6   1.00
  16115.9000000              0.00195948
   2425.5800000              0.01492880
    553.8670000              0.07284780
    156.3400000              0.24613000
     50.0683000              0.48591400
     17.0178000              0.32500200
SP   6   1.00
    292.7180000             -0.00278094             0.00443826
     69.8731000             -0.03571460             0.03266790
     22.3363000             -0.11498500             0.13472100
      8.1503900              0.09356340             0.32867800
      3.1345800              0.60301700             0.44964000
      1.2254300              0.41895900             0.26137200
SP   3   1.00
      1.7273800             -0.24463000            -0.01779510
      0.5729220              0.00431572             0.25353900
      0.2221920              1.09818000             0.80066900
SP   1   1.00
      0.0778369              1.00000000             1.00000000
D    1   1.00
      0.9000000              1.0000000
D    1   1.00
      0.2250000              1.0000000
F    1   1.00
      0.3200000              1.0000000
****
P     0
S    6   1.00
  19413.3000000              0.0018516
   2909.4200000              0.0142062
    661.3640000              0.0699995
    185.7590000              0.2400790
     59.1943000              0.4847620
     20.0310000              0.3352000
SP   6   1.00
    339.4780000             -0.00278217             0.00456462
     81.0101000             -0.0360499              0.03369360
     25.8780000             -0.1166310              0.13975500
      9.4522100              0.0968328              0.33936200
      3.6656600              0.6144180              0.45092100
      1.4674600              0.4037980              0.23858600
SP   3   1.00
      2.1562300             -0.2529230             -0.01776530
      0.7489970              0.0328517              0.27405800
      0.2831450              1.0812500              0.78542100
SP   1   1.00
      0.0998317              1.0000000              1.00000000
D    1   1.00
      1.1000000              1.0000000
D    1   1.00
      0.2750000              1.0000000
F    1   1.00
      0.4500000              1.0000000
****
S     0
S    6   1.00
  21917.1000000              0.0018690
   3301.4900000              0.0142300
    754.1460000              0.0696960
    212.7110000              0.2384870
     67.9896000              0.4833070
     23.0515000              0.3380740
SP   6   1.00
    423.7350000             -0.0023767              0.0040610
    100.7100000             -0.0316930              0.0306810
     32.1599000             -0.1133170              0.1304520
     11.8079000              0.0560900              0.3272050
      4.6311000              0.5922550              0.4528510
      1.8702500              0.4550060              0.2560420
SP   3   1.00
      2.6158400             -0.2503740             -0.0145110
      0.9221670              0.0669570              0.3102630
      0.3412870              1.0545100              0.7544830
SP   1   1.00
      0.1171670              1.0000000              1.0000000
D    1   1.00
      1.3000000              1.0000000
D    1   1.00
      0.3250000              1.0000000
F    1   1.00
      0.5500000              1.0000000
****
Cl     0
S    6   1.00
  25180.1000000              0.0018330
   3780.3500000              0.0140340
    860.4740000              0.0690970
    242.1450000              0.2374520
     77.3349000              0.4830340
     26.2470000              0.3398560
SP   6   1.00
    491.7650000             -0.0022974              0.0039894
    116.9840000             -0.0307140              0.0303180
     37.4153000             -0.1125280              0.1298800
     13.7834000              0.0450160              0.3279510
      5.4521500              0.5893530              0.4535270
      2.2258800              0.4652060              0.2521540
SP   3   1.00
      3.1864900             -0.2518300             -0.0142990
      1.1442700              0.0615890              0.3235720
      0.4203770              1.0601800              0.7435070
SP   1   1.00
      0.1426570              1.0000000              1.0000000
D    1   1.00
      1.5000000              1.0000000
D    1   1.00
      0.3750000              1.0000000
F    1   1.00
      0.7000000              1.0000000
****
}

set {
reference uhf
freeze_core true
e_convergence 10
d_convergence 10
dft_spherical_points 1202
dft_radial_points 99
}

e = energy('b3lyp')

print_out('Grab this energy {0}'.format(e))
--------------------------------------------------------------------------

    Molecular point group: c1

    Geometry (in Bohr), charge = 0, multiplicity = 2:

       Center              X                  Y                   Z               Mass
    ------------   -----------------  -----------------  -----------------  -----------------
         C           -0.263675345050     0.799728540447    -0.000000001750    12.000000000000
         O           -2.184564265950    -0.331537375953     0.000000008450    15.994914619570
         C            2.406503000950    -0.243615024153     0.000000007850    12.000000000000
         H            2.389295438150    -2.307157968253     0.000000027350     1.007825032230
         H            3.383521307650     0.473674088747    -1.663653799350     1.007825032230
         H            3.383521655150     0.473674259647     1.663653565250     1.007825032230

  Charge       = 0
  Multiplicity = 2
  Basis Set: ANONYMOUS6EA010A4
    Blend: 6-31G_2DFP_
  Basis Set: (ANONYMOUS6EA010A4 AUX)
    Blend: DEF2-UNIVERSAL-JKFIT

    Orbital Energies [Eh]
    ---------------------

    Alpha Occupied:

       1A    -19.186741     2A    -10.270168     3A    -10.209644
       4A     -1.085106     5A     -0.761713     6A     -0.543491
       7A     -0.467489     8A     -0.457992     9A     -0.456968
      10A     -0.389045    11A     -0.386925    12A     -0.190386

    Alpha Virtual:

      13A     -0.016710    14A      0.092112    15A      0.137329
      16A      0.141715    17A      0.218845    18A      0.268765
      19A      0.428536    20A      0.431815    21A      0.444246
      22A      0.493766    23A      0.506223    24A      0.530724
      25A      0.563310    26A      0.577930    27A      0.612921
      28A      0.616119    29A      0.645212    30A      0.719000
      31A      0.766561    32A      0.786191    33A      0.832748
      34A      0.916172    35A      0.925596    36A      0.935164
      37A      1.025402    38A      1.088351    39A      1.108304
      40A      1.152756    41A      1.223303    42A      1.307050
      43A      1.317498    44A      1.327598    45A      1.403667
      46A      1.409107    47A      1.469812    48A      1.559629
      49A      1.634441    50A      1.656408    51A      1.722476
      52A      1.815427    53A      1.836579    54A      1.902831
      55A      2.068301    56A      2.169715    57A      2.505764
      58A      2.681091    59A      2.745165    60A      2.784566
      61A      2.844086    62A      2.894931    63A      2.975604
      64A      3.032025    65A      3.060067    66A      3.102724
      67A      3.116468    68A      3.181442    69A      3.313667
      70A      3.372841    71A      3.393837    72A      3.442354
      73A      3.466261    74A      3.487495    75A      3.570511
      76A      3.749124    77A      3.765722    78A      3.944127
      79A      3.984362    80A      4.061748    81A      4.110369
      82A      4.121356    83A      4.190505    84A      4.390725
      85A      4.436054    86A      4.450288    87A      4.535661
      88A      4.920268    89A      5.037569    90A      5.042927
      91A      5.200791    92A      5.209375    93A      5.484235
      94A      5.493313    95A      5.824634    96A      5.942028
      97A      6.113972    98A      6.771566    99A      6.773914
     100A      7.070322   101A      7.135668   102A      7.535031

    Beta Occupied:

       1A    -19.178695     2A    -10.260148     3A    -10.206230
       4A     -1.069306     5A     -0.749881     6A     -0.523903
       7A     -0.452316     8A     -0.446752     9A     -0.440006
      10A     -0.383956    11A     -0.349311

    Beta Virtual:

      12A     -0.051056    13A     -0.000464    14A      0.094851
      15A      0.143062    16A      0.144858    17A      0.229279
      18A      0.274318    19A      0.433809    20A      0.435799
      21A      0.466289    22A      0.500489    23A      0.527751
      24A      0.539553    25A      0.569719    26A      0.582104
      27A      0.623309    28A      0.630621    29A      0.651632
      30A      0.741415    31A      0.777567    32A      0.795983
      33A      0.833537    34A      0.921035    35A      0.942470
      36A      0.949890    37A      1.029653    38A      1.094523
      39A      1.110311    40A      1.158970    41A      1.232582
      42A      1.312667    43A      1.320340    44A      1.334360
      45A      1.414022    46A      1.414667    47A      1.482188
      48A      1.570557    49A      1.647945    50A      1.670812
      51A      1.728743    52A      1.818577    53A      1.850781
      54A      1.909605    55A      2.075010    56A      2.191077
      57A      2.518492    58A      2.695410    59A      2.759654
      60A      2.805594    61A      2.859303    62A      2.896613
      63A      2.985255    64A      3.048962    65A      3.068713
      66A      3.121510    67A      3.124842    68A      3.216006
      69A      3.356954    70A      3.384062    71A      3.400188
      72A      3.451617    73A      3.480902    74A      3.510960
      75A      3.583640    76A      3.773603    77A      3.776377
      78A      3.952821    79A      3.993723    80A      4.078134
      81A      4.124182    82A      4.125059    83A      4.201983
      84A      4.392986    85A      4.442223    86A      4.454492
      87A      4.546627    88A      4.924187    89A      5.055027
      90A      5.060900    91A      5.202937    92A      5.215123
      93A      5.496764    94A      5.507233    95A      5.837879
      96A      5.947618    97A      6.137115    98A      6.800790
      99A      6.803477   100A      7.074607   101A      7.164951
     102A      7.546643

    Final Occupation by Irrep:
              A
    DOCC [    11 ]
    SOCC [     1 ]

  @DF-UKS Final Energy:  -153.18843336997725

   => Energetics <=

    Nuclear Repulsion Energy =             62.9558220175656587
    One-Electron Energy =                -331.8983507298605105
    Two-Electron Energy =                 132.3401935313927709
    DFT Exchange-Correlation Energy =     -16.5860981890751589
    Empirical Dispersion Energy =           0.0000000000000000
    VV10 Nonlocal Energy =                  0.0000000000000000
    Total Energy =                       -153.1884333699772469

  UHF NO Occupations:
  HONO-2 :   10  A 1.9997824
  HONO-1 :   11  A 1.9992118
  HONO-0 :   12  A 1.0000000
  LUNO+0 :   13  A 0.0007882
  LUNO+1 :   14  A 0.0002176
  LUNO+2 :   15  A 0.0001760
  LUNO+3 :   16  A 0.0000610

Computation Completed

Properties will be evaluated at   0.000000,   0.000000,   0.000000 [a0]

Properties computed using the SCF density matrix

  Nuclear Dipole Moment: [e a0]
     X:     4.5368      Y:    -0.6754      Z:    -0.0000

  Electronic Dipole Moment: [e a0]
     X:    -3.6173      Y:     0.6247      Z:     0.0000

  Dipole Moment: [e a0]
     X:     0.9195      Y:    -0.0508      Z:    -0.0000     Total:     0.9209

  Dipole Moment: [D]
     X:     2.3370      Y:    -0.1290      Z:    -0.0000     Total:     2.3406

*** tstop() called on n081 at Thu Nov  4 14:54:47 2021
Module time:
	user time   =      44.29 seconds =       0.74 minutes
	system time =       0.56 seconds =       0.01 minutes
	total time  =         45 seconds =       0.75 minutes
Total time:
	user time   =      44.29 seconds =       0.74 minutes
	system time =       0.56 seconds =       0.01 minutes
	total time  =         45 seconds =       0.75 minutes
Grab this energy -153.18843336997725
    Psi4 stopped on: Thursday, 04 November 2021 02:54PM
    Psi4 wall time for execution: 0:00:44.89

*** Psi4 exiting successfully. Buy a developer a beer!
