                               Psi4 1.4a2.dev629

  ==> Input File <==

--------------------------------------------------------------------------
import os
memory 14 GB

molecule {
 C   -0.2632947694    0.8055867910    0.0004759592
 O   -2.1956556813   -0.3406903295   -0.0000930913
 C    2.4115818060   -0.2409196010    0.0015371815
 H    2.3823257939   -2.3028921321    0.0043206356
 H    3.3979411750    0.4783935523   -1.6675986516
 H    3.3936996257    0.4706563393    1.6613577866
units bohr
0 2
}

basis {

assign 6-31g_2dfp_

[ 6-31g_2dfp_ ]

spherical

!----------------------------------------------------------------------
! Basis Set Exchange
! Version v0.8.13
! https://www.basissetexchange.org
!----------------------------------------------------------------------
!   Basis set: 6-31G(2df,p)
! Description: 6-31G(2df,p)
!        Role: orbital
!     Version: 0  (Data from the original Basis Set Exchange)
!----------------------------------------------------------------------

****
H     0
S    3   1.00
     18.7311370              0.03349460
      2.8253937              0.23472695
      0.6401217              0.81375733
S    1   1.00
      0.1612778              1.00000000
P    1   1.00
      1.5000000              1.0000000
P    1   1.00
      0.3750000              1.0000000
****
B     0
S    6   1.00
   2068.8823000              0.0018663
    310.6495700              0.0142515
     70.6830330              0.0695516
     19.8610800              0.2325729
      6.2993048              0.4670787
      2.1270270              0.3634314
SP   3   1.00
      4.7279710             -0.1303938              0.0745976
      1.1903377             -0.1307889              0.3078467
      0.3594117              1.1309444              0.7434568
SP   1   1.00
      0.1267512              1.0000000              1.0000000
D    1   1.00
      0.8020000              1.0000000
D    1   1.00
      0.2005000              1.0000000
F    1   1.00
      0.5000000              1.0000000
****
C     0
S    6   1.00
   3047.5249000              0.0018347
    457.3695100              0.0140373
    103.9486900              0.0688426
     29.2101550              0.2321844
      9.2866630              0.4679413
      3.1639270              0.3623120
SP   3   1.00
      7.8682724             -0.1193324              0.0689991
      1.8812885             -0.1608542              0.3164240
      0.5442493              1.1434564              0.7443083
SP   1   1.00
      0.1687144              1.0000000              1.0000000
D    1   1.00
      1.2520000              1.0000000
D    1   1.00
      0.3130000              1.0000000
F    1   1.00
      0.8000000              1.0000000
****
N     0
S    6   1.00
   4173.5110000              0.0018348
    627.4579000              0.0139950
    142.9021000              0.0685870
     40.2343300              0.2322410
     12.8202100              0.4690700
      4.3904370              0.3604550
SP   3   1.00
     11.6263580             -0.1149610              0.0675800
      2.7162800             -0.1691180              0.3239070
      0.7722180              1.1458520              0.7408950
SP   1   1.00
      0.2120313              1.0000000              1.0000000
D    1   1.00
      1.8260000              1.0000000
D    1   1.00
      0.4565000              1.0000000
F    1   1.00
      1.0000000              1.0000000
****
O     0
S    6   1.00
   5484.6717000              0.0018311
    825.2349500              0.0139501
    188.0469600              0.0684451
     52.9645000              0.2327143
     16.8975700              0.4701930
      5.7996353              0.3585209
SP   3   1.00
     15.5396160             -0.1107775              0.0708743
      3.5999336             -0.1480263              0.3397528
      1.0137618              1.1307670              0.7271586
SP   1   1.00
      0.2700058              1.0000000              1.0000000
D    1   1.00
      2.5840000              1.0000000
D    1   1.00
      0.6460000              1.0000000
F    1   1.00
      1.4000000              1.0000000
****
F     0
S    6   1.00
   7001.7130900              0.0018196169
   1051.3660900              0.0139160796
    239.2856900              0.0684053245
     67.3974453              0.233185760
     21.5199573              0.471267439
      7.40310130             0.356618546
SP   3   1.00
     20.8479528             -0.108506975            0.0716287243
      4.80830834            -0.146451658            0.3459121030
      1.34406986             1.128688580            0.7224699570
SP   1   1.00
      0.358151393            1.0000000              1.0000000
D    1   1.00
      3.5000000              1.0000000
D    1   1.00
      0.8750000              1.0000000
F    1   1.00
      1.8500000              1.0000000
****
Al     0
S    6   1.00
  13983.1000000              0.00194267
   2098.7500000              0.0148599
    477.7050000              0.0728494
    134.3600000              0.2468300
     42.8709000              0.4872580
     14.5189000              0.3234960
SP   6   1.00
    239.6680000             -0.00292619             0.00460285
     57.4419000             -0.0374080              0.0331990
     18.2859000             -0.1144870              0.1362820
      6.5991400              0.1156350              0.3304760
      2.4904900              0.6125950              0.4491460
      0.9445400              0.3937990              0.2657040
SP   3   1.00
      1.2779000             -0.2276060             -0.0175130
      0.3975900              0.00144583             0.2445330
      0.1600950              1.0927900              0.8049340
SP   1   1.00
      0.0556577              1.0000000              1.0000000
D    1   1.00
      0.6500000              1.0000000
D    1   1.00
      0.1625000              1.0000000
F    1   1.00
      0.2500000              1.0000000
****
Si     0
S    6   1.00
  16115.9000000              0.00195948
   2425.5800000              0.01492880
    553.8670000              0.07284780
    156.3400000              0.24613000
     50.0683000              0.48591400
     17.0178000              0.32500200
SP   6   1.00
    292.7180000             -0.00278094             0.00443826
     69.8731000             -0.03571460             0.03266790
     22.3363000             -0.11498500             0.13472100
      8.1503900              0.09356340             0.32867800
      3.1345800              0.60301700             0.44964000
      1.2254300              0.41895900             0.26137200
SP   3   1.00
      1.7273800             -0.24463000            -0.01779510
      0.5729220              0.00431572             0.25353900
      0.2221920              1.09818000             0.80066900
SP   1   1.00
      0.0778369              1.00000000             1.00000000
D    1   1.00
      0.9000000              1.0000000
D    1   1.00
      0.2250000              1.0000000
F    1   1.00
      0.3200000              1.0000000
****
P     0
S    6   1.00
  19413.3000000              0.0018516
   2909.4200000              0.0142062
    661.3640000              0.0699995
    185.7590000              0.2400790
     59.1943000              0.4847620
     20.0310000              0.3352000
SP   6   1.00
    339.4780000             -0.00278217             0.00456462
     81.0101000             -0.0360499              0.03369360
     25.8780000             -0.1166310              0.13975500
      9.4522100              0.0968328              0.33936200
      3.6656600              0.6144180              0.45092100
      1.4674600              0.4037980              0.23858600
SP   3   1.00
      2.1562300             -0.2529230             -0.01776530
      0.7489970              0.0328517              0.27405800
      0.2831450              1.0812500              0.78542100
SP   1   1.00
      0.0998317              1.0000000              1.00000000
D    1   1.00
      1.1000000              1.0000000
D    1   1.00
      0.2750000              1.0000000
F    1   1.00
      0.4500000              1.0000000
****
S     0
S    6   1.00
  21917.1000000              0.0018690
   3301.4900000              0.0142300
    754.1460000              0.0696960
    212.7110000              0.2384870
     67.9896000              0.4833070
     23.0515000              0.3380740
SP   6   1.00
    423.7350000             -0.0023767              0.0040610
    100.7100000             -0.0316930              0.0306810
     32.1599000             -0.1133170              0.1304520
     11.8079000              0.0560900              0.3272050
      4.6311000              0.5922550              0.4528510
      1.8702500              0.4550060              0.2560420
SP   3   1.00
      2.6158400             -0.2503740             -0.0145110
      0.9221670              0.0669570              0.3102630
      0.3412870              1.0545100              0.7544830
SP   1   1.00
      0.1171670              1.0000000              1.0000000
D    1   1.00
      1.3000000              1.0000000
D    1   1.00
      0.3250000              1.0000000
F    1   1.00
      0.5500000              1.0000000
****
Cl     0
S    6   1.00
  25180.1000000              0.0018330
   3780.3500000              0.0140340
    860.4740000              0.0690970
    242.1450000              0.2374520
     77.3349000              0.4830340
     26.2470000              0.3398560
SP   6   1.00
    491.7650000             -0.0022974              0.0039894
    116.9840000             -0.0307140              0.0303180
     37.4153000             -0.1125280              0.1298800
     13.7834000              0.0450160              0.3279510
      5.4521500              0.5893530              0.4535270
      2.2258800              0.4652060              0.2521540
SP   3   1.00
      3.1864900             -0.2518300             -0.0142990
      1.1442700              0.0615890              0.3235720
      0.4203770              1.0601800              0.7435070
SP   1   1.00
      0.1426570              1.0000000              1.0000000
D    1   1.00
      1.5000000              1.0000000
D    1   1.00
      0.3750000              1.0000000
F    1   1.00
      0.7000000              1.0000000
****
}

set {
reference uhf
freeze_core true
e_convergence 10
d_convergence 10
dft_spherical_points 1202
dft_radial_points 99
}

e = energy('b3lyp')

print_out('Grab this energy {0}'.format(e))
--------------------------------------------------------------------------

    Molecular point group: c1

    Geometry (in Bohr), charge = 0, multiplicity = 2:

       Center              X                  Y                   Z               Mass
    ------------   -----------------  -----------------  -----------------  -----------------
         C           -0.261106692652     0.806464149543    -0.000006007835    12.000000000000
         O           -2.193467604552    -0.339812970957    -0.000575058335    15.994914619570
         C            2.413769882748    -0.240042242457     0.001055214465    12.000000000000
         H            2.384513870648    -2.302014773557     0.003838668565     1.007825032230
         H            3.400129251748     0.479270910843    -1.668080618635     1.007825032230
         H            3.395887702448     0.471533697843     1.660875819565     1.007825032230

  Charge       = 0
  Multiplicity = 2
  Basis Set: ANONYMOUS829505FB
    Blend: 6-31G_2DFP_
  Basis Set: (ANONYMOUS829505FB AUX)
    Blend: DEF2-UNIVERSAL-JKFIT

    Orbital Energies [Eh]
    ---------------------

    Alpha Occupied:

       1A    -19.187058     2A    -10.272228     3A    -10.210839
       4A     -1.080106     5A     -0.761573     6A     -0.544088
       7A     -0.466291     8A     -0.457052     9A     -0.455591
      10A     -0.387053    11A     -0.386020    12A     -0.192692

    Alpha Virtual:

      13A     -0.019698    14A      0.091549    15A      0.136899
      16A      0.140969    17A      0.216896    18A      0.267845
      19A      0.427759    20A      0.432036    21A      0.443131
      22A      0.493347    23A      0.506331    24A      0.530227
      25A      0.562558    26A      0.577238    27A      0.606647
      28A      0.615533    29A      0.643545    30A      0.717326
      31A      0.766019    32A      0.784820    33A      0.832053
      34A      0.917358    35A      0.927522    36A      0.935834
      37A      1.021405    38A      1.082925    39A      1.107853
      40A      1.153846    41A      1.219890    42A      1.305591
      43A      1.315853    44A      1.327313    45A      1.403780
      46A      1.406164    47A      1.467061    48A      1.559904
      49A      1.628837    50A      1.652788    51A      1.719374
      52A      1.811771    53A      1.833110    54A      1.900313
      55A      2.063799    56A      2.164622    57A      2.492091
      58A      2.679243    59A      2.742984    60A      2.783495
      61A      2.841248    62A      2.894460    63A      2.971957
      64A      3.031127    65A      3.057532    66A      3.106368
      67A      3.113522    68A      3.183104    69A      3.314579
      70A      3.368410    71A      3.392572    72A      3.439115
      73A      3.465417    74A      3.485403    75A      3.570178
      76A      3.735558    77A      3.758329    78A      3.941643
      79A      3.977943    80A      4.051266    81A      4.108935
      82A      4.118563    83A      4.189090    84A      4.386582
      85A      4.431015    86A      4.447352    87A      4.529122
      88A      4.917689    89A      5.036614    90A      5.041909
      91A      5.194050    92A      5.207945    93A      5.469708
      94A      5.478092    95A      5.826832    96A      5.926039
      97A      6.099925    98A      6.770207    99A      6.772342
     100A      7.070832   101A      7.134776   102A      7.527980

    Beta Occupied:

       1A    -19.178996     2A    -10.262156     3A    -10.207455
       4A     -1.064157     5A     -0.749787     6A     -0.524318
       7A     -0.451104     8A     -0.446801     9A     -0.438530
      10A     -0.381862    11A     -0.347615

    Beta Virtual:

      12A     -0.053215    13A     -0.003423    14A      0.094246
      15A      0.142532    16A      0.144114    17A      0.227440
      18A      0.273581    19A      0.433923    20A      0.435070
      21A      0.465062    22A      0.500014    23A      0.527693
      24A      0.539188    25A      0.568910    26A      0.581446
      27A      0.622750    28A      0.625520    29A      0.649042
      30A      0.739140    31A      0.777218    32A      0.794866
      33A      0.832824    34A      0.922193    35A      0.943709
      36A      0.951321    37A      1.025555    38A      1.089036
      39A      1.109966    40A      1.160040    41A      1.229184
      42A      1.311117    43A      1.318655    44A      1.334124
      45A      1.411565    46A      1.414284    47A      1.479319
      48A      1.571158    49A      1.642049    50A      1.667138
      51A      1.725556    52A      1.815009    53A      1.847186
      54A      1.906898    55A      2.070499    56A      2.186015
      57A      2.504752    58A      2.693465    59A      2.757461
      60A      2.804632    61A      2.856775    62A      2.896078
      63A      2.981330    64A      3.047823    65A      3.066075
      66A      3.121810    67A      3.125279    68A      3.217941
      69A      3.358310    70A      3.380138    71A      3.398847
      72A      3.447260    73A      3.481287    74A      3.507927
      75A      3.583636    76A      3.761027    77A      3.768034
      78A      3.950343    79A      3.987214    80A      4.067674
      81A      4.121161    82A      4.123825    83A      4.200871
      84A      4.388848    85A      4.437187    86A      4.451544
      87A      4.539948    88A      4.921519    89A      5.054121
      90A      5.059900    91A      5.196620    92A      5.213236
      93A      5.482387    94A      5.491965    95A      5.840059
      96A      5.931621    97A      6.123121    98A      6.799471
      99A      6.801944   100A      7.075129   101A      7.164142
     102A      7.539651

    Final Occupation by Irrep:
              A
    DOCC [    11 ]
    SOCC [     1 ]

  @DF-UKS Final Energy:  -153.18837966354982

   => Energetics <=

    Nuclear Repulsion Energy =             62.7003395454860808
    One-Electron Energy =                -331.4058185878509448
    Two-Electron Energy =                 132.0947985032916279
    DFT Exchange-Correlation Energy =     -16.5776991244765846
    Empirical Dispersion Energy =           0.0000000000000000
    VV10 Nonlocal Energy =                  0.0000000000000000
    Total Energy =                       -153.1883796635498243

  UHF NO Occupations:
  HONO-2 :   10  A 1.9997832
  HONO-1 :   11  A 1.9991998
  HONO-0 :   12  A 1.0000000
  LUNO+0 :   13  A 0.0008002
  LUNO+1 :   14  A 0.0002168
  LUNO+2 :   15  A 0.0001817
  LUNO+3 :   16  A 0.0000617

Computation Completed

Properties will be evaluated at   0.000000,   0.000000,   0.000000 [a0]

Properties computed using the SCF density matrix

  Nuclear Dipole Moment: [e a0]
     X:     4.5488      Y:    -0.6712      Z:    -0.0017

  Electronic Dipole Moment: [e a0]
     X:    -3.6138      Y:     0.6233      Z:     0.0027

  Dipole Moment: [e a0]
     X:     0.9349      Y:    -0.0479      Z:     0.0010     Total:     0.9362

  Dipole Moment: [D]
     X:     2.3764      Y:    -0.1217      Z:     0.0025     Total:     2.3795

*** tstop() called on n073 at Thu Nov  4 14:58:55 2021
Module time:
	user time   =      52.00 seconds =       0.87 minutes
	system time =       0.56 seconds =       0.01 minutes
	total time  =         52 seconds =       0.87 minutes
Total time:
	user time   =      52.00 seconds =       0.87 minutes
	system time =       0.56 seconds =       0.01 minutes
	total time  =         52 seconds =       0.87 minutes
Grab this energy -153.18837966354982
    Psi4 stopped on: Thursday, 04 November 2021 02:58PM
    Psi4 wall time for execution: 0:00:52.61

*** Psi4 exiting successfully. Buy a developer a beer!
