                               Psi4 1.4a2.dev629

  ==> Input File <==

--------------------------------------------------------------------------
import os
memory 14 GB

molecule {
 C   -0.2619098333    0.8060461173   -0.0000000000
 O   -2.1962426269   -0.3369025078    0.0000000000
 C    2.4111663590   -0.2450808582    0.0000000000
 H    2.3783503147   -2.3070088635    0.0000000000
 H    3.3966368844    0.4686558800   -1.6644868855
 H    3.3966368844    0.4686558800    1.6644868855
units bohr
0 2
}

basis {

assign 6-31g_2dfp_

[ 6-31g_2dfp_ ]

spherical

!----------------------------------------------------------------------
! Basis Set Exchange
! Version v0.8.13
! https://www.basissetexchange.org
!----------------------------------------------------------------------
!   Basis set: 6-31G(2df,p)
! Description: 6-31G(2df,p)
!        Role: orbital
!     Version: 0  (Data from the original Basis Set Exchange)
!----------------------------------------------------------------------

****
H     0
S    3   1.00
     18.7311370              0.03349460
      2.8253937              0.23472695
      0.6401217              0.81375733
S    1   1.00
      0.1612778              1.00000000
P    1   1.00
      1.5000000              1.0000000
P    1   1.00
      0.3750000              1.0000000
****
B     0
S    6   1.00
   2068.8823000              0.0018663
    310.6495700              0.0142515
     70.6830330              0.0695516
     19.8610800              0.2325729
      6.2993048              0.4670787
      2.1270270              0.3634314
SP   3   1.00
      4.7279710             -0.1303938              0.0745976
      1.1903377             -0.1307889              0.3078467
      0.3594117              1.1309444              0.7434568
SP   1   1.00
      0.1267512              1.0000000              1.0000000
D    1   1.00
      0.8020000              1.0000000
D    1   1.00
      0.2005000              1.0000000
F    1   1.00
      0.5000000              1.0000000
****
C     0
S    6   1.00
   3047.5249000              0.0018347
    457.3695100              0.0140373
    103.9486900              0.0688426
     29.2101550              0.2321844
      9.2866630              0.4679413
      3.1639270              0.3623120
SP   3   1.00
      7.8682724             -0.1193324              0.0689991
      1.8812885             -0.1608542              0.3164240
      0.5442493              1.1434564              0.7443083
SP   1   1.00
      0.1687144              1.0000000              1.0000000
D    1   1.00
      1.2520000              1.0000000
D    1   1.00
      0.3130000              1.0000000
F    1   1.00
      0.8000000              1.0000000
****
N     0
S    6   1.00
   4173.5110000              0.0018348
    627.4579000              0.0139950
    142.9021000              0.0685870
     40.2343300              0.2322410
     12.8202100              0.4690700
      4.3904370              0.3604550
SP   3   1.00
     11.6263580             -0.1149610              0.0675800
      2.7162800             -0.1691180              0.3239070
      0.7722180              1.1458520              0.7408950
SP   1   1.00
      0.2120313              1.0000000              1.0000000
D    1   1.00
      1.8260000              1.0000000
D    1   1.00
      0.4565000              1.0000000
F    1   1.00
      1.0000000              1.0000000
****
O     0
S    6   1.00
   5484.6717000              0.0018311
    825.2349500              0.0139501
    188.0469600              0.0684451
     52.9645000              0.2327143
     16.8975700              0.4701930
      5.7996353              0.3585209
SP   3   1.00
     15.5396160             -0.1107775              0.0708743
      3.5999336             -0.1480263              0.3397528
      1.0137618              1.1307670              0.7271586
SP   1   1.00
      0.2700058              1.0000000              1.0000000
D    1   1.00
      2.5840000              1.0000000
D    1   1.00
      0.6460000              1.0000000
F    1   1.00
      1.4000000              1.0000000
****
F     0
S    6   1.00
   7001.7130900              0.0018196169
   1051.3660900              0.0139160796
    239.2856900              0.0684053245
     67.3974453              0.233185760
     21.5199573              0.471267439
      7.40310130             0.356618546
SP   3   1.00
     20.8479528             -0.108506975            0.0716287243
      4.80830834            -0.146451658            0.3459121030
      1.34406986             1.128688580            0.7224699570
SP   1   1.00
      0.358151393            1.0000000              1.0000000
D    1   1.00
      3.5000000              1.0000000
D    1   1.00
      0.8750000              1.0000000
F    1   1.00
      1.8500000              1.0000000
****
Al     0
S    6   1.00
  13983.1000000              0.00194267
   2098.7500000              0.0148599
    477.7050000              0.0728494
    134.3600000              0.2468300
     42.8709000              0.4872580
     14.5189000              0.3234960
SP   6   1.00
    239.6680000             -0.00292619             0.00460285
     57.4419000             -0.0374080              0.0331990
     18.2859000             -0.1144870              0.1362820
      6.5991400              0.1156350              0.3304760
      2.4904900              0.6125950              0.4491460
      0.9445400              0.3937990              0.2657040
SP   3   1.00
      1.2779000             -0.2276060             -0.0175130
      0.3975900              0.00144583             0.2445330
      0.1600950              1.0927900              0.8049340
SP   1   1.00
      0.0556577              1.0000000              1.0000000
D    1   1.00
      0.6500000              1.0000000
D    1   1.00
      0.1625000              1.0000000
F    1   1.00
      0.2500000              1.0000000
****
Si     0
S    6   1.00
  16115.9000000              0.00195948
   2425.5800000              0.01492880
    553.8670000              0.07284780
    156.3400000              0.24613000
     50.0683000              0.48591400
     17.0178000              0.32500200
SP   6   1.00
    292.7180000             -0.00278094             0.00443826
     69.8731000             -0.03571460             0.03266790
     22.3363000             -0.11498500             0.13472100
      8.1503900              0.09356340             0.32867800
      3.1345800              0.60301700             0.44964000
      1.2254300              0.41895900             0.26137200
SP   3   1.00
      1.7273800             -0.24463000            -0.01779510
      0.5729220              0.00431572             0.25353900
      0.2221920              1.09818000             0.80066900
SP   1   1.00
      0.0778369              1.00000000             1.00000000
D    1   1.00
      0.9000000              1.0000000
D    1   1.00
      0.2250000              1.0000000
F    1   1.00
      0.3200000              1.0000000
****
P     0
S    6   1.00
  19413.3000000              0.0018516
   2909.4200000              0.0142062
    661.3640000              0.0699995
    185.7590000              0.2400790
     59.1943000              0.4847620
     20.0310000              0.3352000
SP   6   1.00
    339.4780000             -0.00278217             0.00456462
     81.0101000             -0.0360499              0.03369360
     25.8780000             -0.1166310              0.13975500
      9.4522100              0.0968328              0.33936200
      3.6656600              0.6144180              0.45092100
      1.4674600              0.4037980              0.23858600
SP   3   1.00
      2.1562300             -0.2529230             -0.01776530
      0.7489970              0.0328517              0.27405800
      0.2831450              1.0812500              0.78542100
SP   1   1.00
      0.0998317              1.0000000              1.00000000
D    1   1.00
      1.1000000              1.0000000
D    1   1.00
      0.2750000              1.0000000
F    1   1.00
      0.4500000              1.0000000
****
S     0
S    6   1.00
  21917.1000000              0.0018690
   3301.4900000              0.0142300
    754.1460000              0.0696960
    212.7110000              0.2384870
     67.9896000              0.4833070
     23.0515000              0.3380740
SP   6   1.00
    423.7350000             -0.0023767              0.0040610
    100.7100000             -0.0316930              0.0306810
     32.1599000             -0.1133170              0.1304520
     11.8079000              0.0560900              0.3272050
      4.6311000              0.5922550              0.4528510
      1.8702500              0.4550060              0.2560420
SP   3   1.00
      2.6158400             -0.2503740             -0.0145110
      0.9221670              0.0669570              0.3102630
      0.3412870              1.0545100              0.7544830
SP   1   1.00
      0.1171670              1.0000000              1.0000000
D    1   1.00
      1.3000000              1.0000000
D    1   1.00
      0.3250000              1.0000000
F    1   1.00
      0.5500000              1.0000000
****
Cl     0
S    6   1.00
  25180.1000000              0.0018330
   3780.3500000              0.0140340
    860.4740000              0.0690970
    242.1450000              0.2374520
     77.3349000              0.4830340
     26.2470000              0.3398560
SP   6   1.00
    491.7650000             -0.0022974              0.0039894
    116.9840000             -0.0307140              0.0303180
     37.4153000             -0.1125280              0.1298800
     13.7834000              0.0450160              0.3279510
      5.4521500              0.5893530              0.4535270
      2.2258800              0.4652060              0.2521540
SP   3   1.00
      3.1864900             -0.2518300             -0.0142990
      1.1442700              0.0615890              0.3235720
      0.4203770              1.0601800              0.7435070
SP   1   1.00
      0.1426570              1.0000000              1.0000000
D    1   1.00
      1.5000000              1.0000000
D    1   1.00
      0.3750000              1.0000000
F    1   1.00
      0.7000000              1.0000000
****
}

set {
reference uhf
freeze_core true
e_convergence 10
d_convergence 10
dft_spherical_points 1202
dft_radial_points 99
}

e = energy('b3lyp')

print_out('Grab this energy {0}'.format(e))
--------------------------------------------------------------------------

    Molecular point group: cs

    Geometry (in Bohr), charge = 0, multiplicity = 2:

       Center              X                  Y                   Z               Mass
    ------------   -----------------  -----------------  -----------------  -----------------
         C           -0.259719080559     0.806919203576     0.000000000000    12.000000000000
         O           -2.194051874159    -0.336029421524     0.000000000000    15.994914619570
         C            2.413357111741    -0.244207771924     0.000000000000    12.000000000000
         H            2.380541067441    -2.306135777224     0.000000000000     1.007825032230
         H            3.398827637141     0.469528966276    -1.664486885500     1.007825032230
         H            3.398827637141     0.469528966276     1.664486885500     1.007825032230

  Charge       = 0
  Multiplicity = 2
  Basis Set: ANONYMOUSDAB5C57B
    Blend: 6-31G_2DFP_
  Basis Set: (ANONYMOUSDAB5C57B AUX)
    Blend: DEF2-UNIVERSAL-JKFIT

    Orbital Energies [Eh]
    ---------------------

    Alpha Occupied:

       1Ap   -19.187058     2Ap   -10.272228     3Ap   -10.210840
       4Ap    -1.080106     5Ap    -0.761569     6Ap    -0.544084
       7Ap    -0.466284     8Ap    -0.457027     1App   -0.455621
       2App   -0.387043     9Ap    -0.386032    10Ap    -0.192693

    Alpha Virtual:

       3App   -0.019697    11Ap     0.091558    12Ap     0.136916
       4App    0.140946    13Ap     0.216893    14Ap     0.267845
      15Ap     0.427774     5App    0.432022    16Ap     0.443133
       6App    0.493346    17Ap     0.506332    18Ap     0.530230
       7App    0.562580    19Ap     0.577218    20Ap     0.606646
       8App    0.615521    21Ap     0.643530    22Ap     0.717325
       9App    0.766021    23Ap     0.784819    10App    0.832052
      11App    0.917361    24Ap     0.927520    25Ap     0.935831
      12App    1.021406    26Ap     1.082923    27Ap     1.107880
      13App    1.153811    28Ap     1.219912    29Ap     1.305599
      14App    1.315833    30Ap     1.327317    31Ap     1.403837
      15App    1.406114    32Ap     1.467046    33Ap     1.559902
      34Ap     1.628837    16App    1.652785    35Ap     1.719418
      17App    1.811829    36Ap     1.833008    37Ap     1.900281
      18App    2.063784    38Ap     2.164617    39Ap     2.492090
      19App    2.679245    40Ap     2.742977    41Ap     2.783513
      20App    2.841227    21App    2.894445    42Ap     2.971940
      43Ap     3.031136    22App    3.057518    23App    3.106452
      44Ap     3.113430    45Ap     3.183098    24App    3.314580
      46Ap     3.368407    25App    3.392572    26App    3.439135
      27App    3.465471    47Ap     3.485334    48Ap     3.570146
      49Ap     3.735552    50Ap     3.758312    51Ap     3.941729
      28App    3.977936    52Ap     4.051263    53Ap     4.108988
      29App    4.118437    54Ap     4.189111    30App    4.386557
      55Ap     4.431026    31App    4.447337    56Ap     4.529029
      57Ap     4.917698    58Ap     5.036625    32App    5.041908
      33App    5.195895    59Ap     5.205997    60Ap     5.469710
      34App    5.478074    61Ap     5.826832    35App    5.926037
      62Ap     6.099921    63Ap     6.770207    36App    6.772342
      37App    7.070831    64Ap     7.134775    65Ap     7.527979

    Beta Occupied:

       1Ap   -19.178996     2Ap   -10.262156     3Ap   -10.207456
       4Ap    -1.064157     5Ap    -0.749783     6Ap    -0.524315
       1App   -0.451099     7Ap    -0.446800     8Ap    -0.438535
       2App   -0.381863     9Ap    -0.347615

    Beta Virtual:

      10Ap    -0.053216     3App   -0.003422    11Ap     0.094254
      12Ap     0.142567     4App    0.144074    13Ap     0.227437
      14Ap     0.273581     5App    0.434006    15Ap     0.434987
      16Ap     0.465067     6App    0.500012    17Ap     0.527695
      18Ap     0.539191     7App    0.568942    19Ap     0.581409
       8App    0.622742    20Ap     0.625517    21Ap     0.649029
      22Ap     0.739138     9App    0.777220    23Ap     0.794865
      10App    0.832822    11App    0.922195    24Ap     0.943706
      25Ap     0.951321    12App    1.025555    26Ap     1.089034
      27Ap     1.109990    13App    1.160008    28Ap     1.229210
      29Ap     1.311125    14App    1.318632    30Ap     1.334128
      15App    1.411613    31Ap     1.414240    32Ap     1.479307
      33Ap     1.571156    34Ap     1.642048    16App    1.667137
      35Ap     1.725607    17App    1.815015    36Ap     1.847128
      37Ap     1.906869    18App    2.070484    38Ap     2.186010
      39Ap     2.504752    19App    2.693466    40Ap     2.757454
      41Ap     2.804656    20App    2.856751    21App    2.896058
      42Ap     2.981313    43Ap     3.047838    22App    3.066056
      44Ap     3.121975    23App    3.125105    45Ap     3.217935
      24App    3.358318    46Ap     3.380131    25App    3.398847
      26App    3.447271    27App    3.481340    47Ap     3.507864
      48Ap     3.583608    49Ap     3.761020    50Ap     3.768019
      51Ap     3.950433    28App    3.987207    52Ap     4.067673
      29App    4.121239    53Ap     4.123675    54Ap     4.200884
      30App    4.388815    55Ap     4.437218    31App    4.451508
      56Ap     4.539862    57Ap     4.921530    58Ap     5.054133
      32App    5.059899    33App    5.198052    59Ap     5.211697
      60Ap     5.482388    34App    5.491950    61Ap     5.840058
      35App    5.931618    62Ap     6.123116    63Ap     6.799470
      36App    6.801944    37App    7.075128    64Ap     7.164142
      65Ap     7.539650

    Final Occupation by Irrep:
             Ap   App
    DOCC [     9,    2 ]
    SOCC [     1,    0 ]

  @DF-UKS Final Energy:  -153.18839339657185

   => Energetics <=

    Nuclear Repulsion Energy =             62.7001772792992327
    One-Electron Energy =                -331.4055386021336176
    Two-Electron Energy =                 132.0946583065620530
    DFT Exchange-Correlation Energy =     -16.5776903802995257
    Empirical Dispersion Energy =           0.0000000000000000
    VV10 Nonlocal Energy =                  0.0000000000000000
    Total Energy =                       -153.1883933965718541

  UHF NO Occupations:
  HONO-2 :    8 Ap 1.9997832
  HONO-1 :    9 Ap 1.9991998
  HONO-0 :   10 Ap 1.0000000
  LUNO+0 :   11 Ap 0.0008002
  LUNO+1 :   12 Ap 0.0002168
  LUNO+2 :    3App 0.0001817
  LUNO+3 :   13 Ap 0.0000617

Computation Completed

Properties will be evaluated at   0.000000,   0.000000,   0.000000 [a0]

Properties computed using the SCF density matrix

  Nuclear Dipole Moment: [e a0]
     X:     4.5476      Y:    -0.6790      Z:     0.0000

  Electronic Dipole Moment: [e a0]
     X:    -3.6128      Y:     0.6295      Z:     0.0000

  Dipole Moment: [e a0]
     X:     0.9349      Y:    -0.0495      Z:     0.0000     Total:     0.9362

  Dipole Moment: [D]
     X:     2.3762      Y:    -0.1258      Z:     0.0000     Total:     2.3795

*** tstop() called on n036 at Tue Mar 15 10:37:07 2022
Module time:
	user time   =      62.44 seconds =       1.04 minutes
	system time =       0.44 seconds =       0.01 minutes
	total time  =         63 seconds =       1.05 minutes
Total time:
	user time   =      62.44 seconds =       1.04 minutes
	system time =       0.44 seconds =       0.01 minutes
	total time  =         63 seconds =       1.05 minutes
Grab this energy -153.18839339657185
    Psi4 stopped on: Tuesday, 15 March 2022 10:37AM
    Psi4 wall time for execution: 0:01:02.92

*** Psi4 exiting successfully. Buy a developer a beer!
