                               Psi4 1.4a2.dev629

  ==> Input File <==

--------------------------------------------------------------------------
import os
memory 14 GB

molecule {
 C   -0.2567661929    0.8102079998   -0.0000000000
 O   -2.1782772446   -0.3401557397   -0.0000000000
 C    2.4059382336   -0.2436074612   -0.0000000000
 H    2.3724823705   -2.3127983223   -0.0000000000
 H    3.3906304078    0.4703595856   -1.6680556775
 H    3.3906304078    0.4703595856    1.6680556775
units bohr
0 2
}

basis {

assign 6-31g_2dfp_

[ 6-31g_2dfp_ ]

spherical

!----------------------------------------------------------------------
! Basis Set Exchange
! Version v0.8.13
! https://www.basissetexchange.org
!----------------------------------------------------------------------
!   Basis set: 6-31G(2df,p)
! Description: 6-31G(2df,p)
!        Role: orbital
!     Version: 0  (Data from the original Basis Set Exchange)
!----------------------------------------------------------------------

****
H     0
S    3   1.00
     18.7311370              0.03349460
      2.8253937              0.23472695
      0.6401217              0.81375733
S    1   1.00
      0.1612778              1.00000000
P    1   1.00
      1.5000000              1.0000000
P    1   1.00
      0.3750000              1.0000000
****
B     0
S    6   1.00
   2068.8823000              0.0018663
    310.6495700              0.0142515
     70.6830330              0.0695516
     19.8610800              0.2325729
      6.2993048              0.4670787
      2.1270270              0.3634314
SP   3   1.00
      4.7279710             -0.1303938              0.0745976
      1.1903377             -0.1307889              0.3078467
      0.3594117              1.1309444              0.7434568
SP   1   1.00
      0.1267512              1.0000000              1.0000000
D    1   1.00
      0.8020000              1.0000000
D    1   1.00
      0.2005000              1.0000000
F    1   1.00
      0.5000000              1.0000000
****
C     0
S    6   1.00
   3047.5249000              0.0018347
    457.3695100              0.0140373
    103.9486900              0.0688426
     29.2101550              0.2321844
      9.2866630              0.4679413
      3.1639270              0.3623120
SP   3   1.00
      7.8682724             -0.1193324              0.0689991
      1.8812885             -0.1608542              0.3164240
      0.5442493              1.1434564              0.7443083
SP   1   1.00
      0.1687144              1.0000000              1.0000000
D    1   1.00
      1.2520000              1.0000000
D    1   1.00
      0.3130000              1.0000000
F    1   1.00
      0.8000000              1.0000000
****
N     0
S    6   1.00
   4173.5110000              0.0018348
    627.4579000              0.0139950
    142.9021000              0.0685870
     40.2343300              0.2322410
     12.8202100              0.4690700
      4.3904370              0.3604550
SP   3   1.00
     11.6263580             -0.1149610              0.0675800
      2.7162800             -0.1691180              0.3239070
      0.7722180              1.1458520              0.7408950
SP   1   1.00
      0.2120313              1.0000000              1.0000000
D    1   1.00
      1.8260000              1.0000000
D    1   1.00
      0.4565000              1.0000000
F    1   1.00
      1.0000000              1.0000000
****
O     0
S    6   1.00
   5484.6717000              0.0018311
    825.2349500              0.0139501
    188.0469600              0.0684451
     52.9645000              0.2327143
     16.8975700              0.4701930
      5.7996353              0.3585209
SP   3   1.00
     15.5396160             -0.1107775              0.0708743
      3.5999336             -0.1480263              0.3397528
      1.0137618              1.1307670              0.7271586
SP   1   1.00
      0.2700058              1.0000000              1.0000000
D    1   1.00
      2.5840000              1.0000000
D    1   1.00
      0.6460000              1.0000000
F    1   1.00
      1.4000000              1.0000000
****
F     0
S    6   1.00
   7001.7130900              0.0018196169
   1051.3660900              0.0139160796
    239.2856900              0.0684053245
     67.3974453              0.233185760
     21.5199573              0.471267439
      7.40310130             0.356618546
SP   3   1.00
     20.8479528             -0.108506975            0.0716287243
      4.80830834            -0.146451658            0.3459121030
      1.34406986             1.128688580            0.7224699570
SP   1   1.00
      0.358151393            1.0000000              1.0000000
D    1   1.00
      3.5000000              1.0000000
D    1   1.00
      0.8750000              1.0000000
F    1   1.00
      1.8500000              1.0000000
****
Al     0
S    6   1.00
  13983.1000000              0.00194267
   2098.7500000              0.0148599
    477.7050000              0.0728494
    134.3600000              0.2468300
     42.8709000              0.4872580
     14.5189000              0.3234960
SP   6   1.00
    239.6680000             -0.00292619             0.00460285
     57.4419000             -0.0374080              0.0331990
     18.2859000             -0.1144870              0.1362820
      6.5991400              0.1156350              0.3304760
      2.4904900              0.6125950              0.4491460
      0.9445400              0.3937990              0.2657040
SP   3   1.00
      1.2779000             -0.2276060             -0.0175130
      0.3975900              0.00144583             0.2445330
      0.1600950              1.0927900              0.8049340
SP   1   1.00
      0.0556577              1.0000000              1.0000000
D    1   1.00
      0.6500000              1.0000000
D    1   1.00
      0.1625000              1.0000000
F    1   1.00
      0.2500000              1.0000000
****
Si     0
S    6   1.00
  16115.9000000              0.00195948
   2425.5800000              0.01492880
    553.8670000              0.07284780
    156.3400000              0.24613000
     50.0683000              0.48591400
     17.0178000              0.32500200
SP   6   1.00
    292.7180000             -0.00278094             0.00443826
     69.8731000             -0.03571460             0.03266790
     22.3363000             -0.11498500             0.13472100
      8.1503900              0.09356340             0.32867800
      3.1345800              0.60301700             0.44964000
      1.2254300              0.41895900             0.26137200
SP   3   1.00
      1.7273800             -0.24463000            -0.01779510
      0.5729220              0.00431572             0.25353900
      0.2221920              1.09818000             0.80066900
SP   1   1.00
      0.0778369              1.00000000             1.00000000
D    1   1.00
      0.9000000              1.0000000
D    1   1.00
      0.2250000              1.0000000
F    1   1.00
      0.3200000              1.0000000
****
P     0
S    6   1.00
  19413.3000000              0.0018516
   2909.4200000              0.0142062
    661.3640000              0.0699995
    185.7590000              0.2400790
     59.1943000              0.4847620
     20.0310000              0.3352000
SP   6   1.00
    339.4780000             -0.00278217             0.00456462
     81.0101000             -0.0360499              0.03369360
     25.8780000             -0.1166310              0.13975500
      9.4522100              0.0968328              0.33936200
      3.6656600              0.6144180              0.45092100
      1.4674600              0.4037980              0.23858600
SP   3   1.00
      2.1562300             -0.2529230             -0.01776530
      0.7489970              0.0328517              0.27405800
      0.2831450              1.0812500              0.78542100
SP   1   1.00
      0.0998317              1.0000000              1.00000000
D    1   1.00
      1.1000000              1.0000000
D    1   1.00
      0.2750000              1.0000000
F    1   1.00
      0.4500000              1.0000000
****
S     0
S    6   1.00
  21917.1000000              0.0018690
   3301.4900000              0.0142300
    754.1460000              0.0696960
    212.7110000              0.2384870
     67.9896000              0.4833070
     23.0515000              0.3380740
SP   6   1.00
    423.7350000             -0.0023767              0.0040610
    100.7100000             -0.0316930              0.0306810
     32.1599000             -0.1133170              0.1304520
     11.8079000              0.0560900              0.3272050
      4.6311000              0.5922550              0.4528510
      1.8702500              0.4550060              0.2560420
SP   3   1.00
      2.6158400             -0.2503740             -0.0145110
      0.9221670              0.0669570              0.3102630
      0.3412870              1.0545100              0.7544830
SP   1   1.00
      0.1171670              1.0000000              1.0000000
D    1   1.00
      1.3000000              1.0000000
D    1   1.00
      0.3250000              1.0000000
F    1   1.00
      0.5500000              1.0000000
****
Cl     0
S    6   1.00
  25180.1000000              0.0018330
   3780.3500000              0.0140340
    860.4740000              0.0690970
    242.1450000              0.2374520
     77.3349000              0.4830340
     26.2470000              0.3398560
SP   6   1.00
    491.7650000             -0.0022974              0.0039894
    116.9840000             -0.0307140              0.0303180
     37.4153000             -0.1125280              0.1298800
     13.7834000              0.0450160              0.3279510
      5.4521500              0.5893530              0.4535270
      2.2258800              0.4652060              0.2521540
SP   3   1.00
      3.1864900             -0.2518300             -0.0142990
      1.1442700              0.0615890              0.3235720
      0.4203770              1.0601800              0.7435070
SP   1   1.00
      0.1426570              1.0000000              1.0000000
D    1   1.00
      1.5000000              1.0000000
D    1   1.00
      0.3750000              1.0000000
F    1   1.00
      0.7000000              1.0000000
****
}

set {
reference uhf
freeze_core true
e_convergence 10
d_convergence 10
dft_spherical_points 1202
dft_radial_points 99
}

e = energy('b3lyp')

print_out('Grab this energy {0}'.format(e))
--------------------------------------------------------------------------

    Molecular point group: cs

    Geometry (in Bohr), charge = 0, multiplicity = 2:

       Center              X                  Y                   Z               Mass
    ------------   -----------------  -----------------  -----------------  -----------------
         C           -0.260812775442     0.810774531125     0.000000000000    12.000000000000
         O           -2.182323827142    -0.339589208375     0.000000000000    15.994914619570
         C            2.401891651058    -0.243040929875     0.000000000000    12.000000000000
         H            2.368435787958    -2.312231790975     0.000000000000     1.007825032230
         H            3.386583825258     0.470926116925    -1.668055677500     1.007825032230
         H            3.386583825258     0.470926116925     1.668055677500     1.007825032230

  Charge       = 0
  Multiplicity = 2
  Basis Set: ANONYMOUSCD9D5802
    Blend: 6-31G_2DFP_
  Basis Set: (ANONYMOUSCD9D5802 AUX)
    Blend: DEF2-UNIVERSAL-JKFIT

    Orbital Energies [Eh]
    ---------------------

    Alpha Occupied:

       1Ap   -19.186844     2Ap   -10.271167     3Ap   -10.210716
       4Ap    -1.082316     5Ap    -0.761580     6Ap    -0.543640
       7Ap    -0.466891     8Ap    -0.457272     1App   -0.456290
       2App   -0.387555     9Ap    -0.385596    10Ap    -0.192611

    Alpha Virtual:

       3App   -0.018447    11Ap     0.091504    12Ap     0.136262
       4App    0.140719    13Ap     0.219005    14Ap     0.268711
      15Ap     0.428544     5App    0.431828    16Ap     0.443715
       6App    0.493443    17Ap     0.505860    18Ap     0.529908
       7App    0.562079    19Ap     0.576309    20Ap     0.608913
       8App    0.615618    21Ap     0.643788    22Ap     0.717099
       9App    0.767388    23Ap     0.785908    10App    0.830840
      11App    0.916788    24Ap     0.927029    25Ap     0.937640
      12App    1.023056    26Ap     1.084868    27Ap     1.107332
      13App    1.154051    28Ap     1.221319    29Ap     1.306752
      14App    1.315271    30Ap     1.328228    31Ap     1.403858
      15App    1.405754    32Ap     1.467040    33Ap     1.559286
      34Ap     1.628185    16App    1.653986    35Ap     1.716441
      17App    1.811795    36Ap     1.836208    37Ap     1.900472
      18App    2.063564    38Ap     2.163059    39Ap     2.498662
      19App    2.679501    40Ap     2.744395    41Ap     2.781778
      20App    2.841311    21App    2.893322    42Ap     2.970473
      43Ap     3.035425    22App    3.061405    23App    3.105206
      44Ap     3.115817    45Ap     3.184669    24App    3.314968
      46Ap     3.374550    25App    3.395392    26App    3.440777
      27App    3.467169    47Ap     3.488474    48Ap     3.569664
      49Ap     3.741620    50Ap     3.760594    51Ap     3.940367
      28App    3.983246    52Ap     4.057814    53Ap     4.109982
      29App    4.114722    54Ap     4.187750    30App    4.385999
      55Ap     4.435860    31App    4.445130    56Ap     4.527937
      57Ap     4.917037    58Ap     5.036879    32App    5.042342
      33App    5.191394    59Ap     5.199561    60Ap     5.476833
      34App    5.484184    61Ap     5.825404    35App    5.932700
      62Ap     6.105491    63Ap     6.770970    36App    6.772976
      37App    7.070112    64Ap     7.135486    65Ap     7.531083

    Beta Occupied:

       1Ap   -19.178749     2Ap   -10.261137     3Ap   -10.207320
       4Ap    -1.066368     5Ap    -0.749706     6Ap    -0.524024
       1App   -0.451697     7Ap    -0.446510     8Ap    -0.439086
       2App   -0.382411     9Ap    -0.347622

    Beta Virtual:

      10Ap    -0.053242     3App   -0.002184    11Ap     0.094232
      12Ap     0.141996     4App    0.143872    13Ap     0.229371
      14Ap     0.274384     5App    0.433774    15Ap     0.435397
      16Ap     0.466410     6App    0.500126    17Ap     0.527194
      18Ap     0.538484     7App    0.568458    19Ap     0.580436
       8App    0.622738    20Ap     0.627449    21Ap     0.649504
      22Ap     0.739009     9App    0.778531    23Ap     0.795832
      10App    0.831614    11App    0.921649    24Ap     0.946377
      25Ap     0.950115    12App    1.027266    26Ap     1.091145
      27Ap     1.109363    13App    1.160296    28Ap     1.230435
      29Ap     1.312294    14App    1.318108    30Ap     1.335070
      15App    1.411272    31Ap     1.414419    32Ap     1.479566
      33Ap     1.570537    34Ap     1.641176    16App    1.668515
      35Ap     1.722624    17App    1.814871    36Ap     1.850389
      37Ap     1.907281    18App    2.070288    38Ap     2.184527
      39Ap     2.511326    19App    2.693825    40Ap     2.758828
      41Ap     2.802678    20App    2.856257    21App    2.894958
      42Ap     2.980135    43Ap     3.052039    22App    3.069976
      23App    3.124035    44Ap     3.124222    45Ap     3.219281
      24App    3.358422    46Ap     3.385807    25App    3.401757
      26App    3.448542    27App    3.483433    47Ap     3.511442
      48Ap     3.583122    49Ap     3.766798    50Ap     3.770342
      51Ap     3.949316    28App    3.992530    52Ap     4.074241
      29App    4.117536    53Ap     4.123638    54Ap     4.200383
      30App    4.388231    55Ap     4.442160    31App    4.449341
      56Ap     4.538860    57Ap     4.920911    58Ap     5.054389
      32App    5.060460    33App    5.193518    59Ap     5.205398
      60Ap     5.489444    34App    5.498170    61Ap     5.838683
      35App    5.938289    62Ap     6.128779    63Ap     6.800404
      36App    6.802759    37App    7.074412    64Ap     7.164955
      65Ap     7.542764

    Final Occupation by Irrep:
             Ap   App
    DOCC [     9,    2 ]
    SOCC [     1,    0 ]

  @DF-UKS Final Energy:  -153.18844751121242

   => Energetics <=

    Nuclear Repulsion Energy =             62.8625331982724020
    One-Electron Energy =                -331.7249911187285534
    Two-Electron Energy =                 132.2541404707507979
    DFT Exchange-Correlation Energy =     -16.5801300615070595
    Empirical Dispersion Energy =           0.0000000000000000
    VV10 Nonlocal Energy =                  0.0000000000000000
    Total Energy =                       -153.1884475112124164

  UHF NO Occupations:
  HONO-2 :    8 Ap 1.9997838
  HONO-1 :    9 Ap 1.9992007
  HONO-0 :   10 Ap 1.0000000
  LUNO+0 :   11 Ap 0.0007993
  LUNO+1 :   12 Ap 0.0002162
  LUNO+2 :    3App 0.0001767
  LUNO+3 :   13 Ap 0.0000618

Computation Completed

Properties will be evaluated at   0.000000,   0.000000,   0.000000 [a0]

Properties computed using the SCF density matrix

  Nuclear Dipole Moment: [e a0]
     X:     4.5295      Y:    -0.6807      Z:     0.0000

  Electronic Dipole Moment: [e a0]
     X:    -3.6042      Y:     0.6328      Z:     0.0000

  Dipole Moment: [e a0]
     X:     0.9253      Y:    -0.0479      Z:     0.0000     Total:     0.9266

  Dipole Moment: [D]
     X:     2.3519      Y:    -0.1218      Z:     0.0000     Total:     2.3551

*** tstop() called on n051 at Tue Mar 15 10:36:12 2022
Module time:
	user time   =      53.47 seconds =       0.89 minutes
	system time =       0.52 seconds =       0.01 minutes
	total time  =         54 seconds =       0.90 minutes
Total time:
	user time   =      53.47 seconds =       0.89 minutes
	system time =       0.52 seconds =       0.01 minutes
	total time  =         54 seconds =       0.90 minutes
Grab this energy -153.18844751121242
    Psi4 stopped on: Tuesday, 15 March 2022 10:36AM
    Psi4 wall time for execution: 0:00:54.05

*** Psi4 exiting successfully. Buy a developer a beer!
