                               Psi4 1.4a2.dev629

  ==> Input File <==

--------------------------------------------------------------------------
import os
memory 14 GB

molecule {
 C   -0.2634649842    0.8026114242   -0.0009994563
 O   -2.1881694202   -0.3309129594    0.0002751980
 C    2.4095393906   -0.2463224971    0.0025992051
 H    2.3828095589   -2.3084608726   -0.0010208698
 H    3.3917844114    0.4685982667   -1.6643524272
 H    3.3921390257    0.4688522859    1.6634983502
units bohr
0 2
}

basis {

assign 6-31g_2dfp_

[ 6-31g_2dfp_ ]

spherical

!----------------------------------------------------------------------
! Basis Set Exchange
! Version v0.8.13
! https://www.basissetexchange.org
!----------------------------------------------------------------------
!   Basis set: 6-31G(2df,p)
! Description: 6-31G(2df,p)
!        Role: orbital
!     Version: 0  (Data from the original Basis Set Exchange)
!----------------------------------------------------------------------

****
H     0
S    3   1.00
     18.7311370              0.03349460
      2.8253937              0.23472695
      0.6401217              0.81375733
S    1   1.00
      0.1612778              1.00000000
P    1   1.00
      1.5000000              1.0000000
P    1   1.00
      0.3750000              1.0000000
****
B     0
S    6   1.00
   2068.8823000              0.0018663
    310.6495700              0.0142515
     70.6830330              0.0695516
     19.8610800              0.2325729
      6.2993048              0.4670787
      2.1270270              0.3634314
SP   3   1.00
      4.7279710             -0.1303938              0.0745976
      1.1903377             -0.1307889              0.3078467
      0.3594117              1.1309444              0.7434568
SP   1   1.00
      0.1267512              1.0000000              1.0000000
D    1   1.00
      0.8020000              1.0000000
D    1   1.00
      0.2005000              1.0000000
F    1   1.00
      0.5000000              1.0000000
****
C     0
S    6   1.00
   3047.5249000              0.0018347
    457.3695100              0.0140373
    103.9486900              0.0688426
     29.2101550              0.2321844
      9.2866630              0.4679413
      3.1639270              0.3623120
SP   3   1.00
      7.8682724             -0.1193324              0.0689991
      1.8812885             -0.1608542              0.3164240
      0.5442493              1.1434564              0.7443083
SP   1   1.00
      0.1687144              1.0000000              1.0000000
D    1   1.00
      1.2520000              1.0000000
D    1   1.00
      0.3130000              1.0000000
F    1   1.00
      0.8000000              1.0000000
****
N     0
S    6   1.00
   4173.5110000              0.0018348
    627.4579000              0.0139950
    142.9021000              0.0685870
     40.2343300              0.2322410
     12.8202100              0.4690700
      4.3904370              0.3604550
SP   3   1.00
     11.6263580             -0.1149610              0.0675800
      2.7162800             -0.1691180              0.3239070
      0.7722180              1.1458520              0.7408950
SP   1   1.00
      0.2120313              1.0000000              1.0000000
D    1   1.00
      1.8260000              1.0000000
D    1   1.00
      0.4565000              1.0000000
F    1   1.00
      1.0000000              1.0000000
****
O     0
S    6   1.00
   5484.6717000              0.0018311
    825.2349500              0.0139501
    188.0469600              0.0684451
     52.9645000              0.2327143
     16.8975700              0.4701930
      5.7996353              0.3585209
SP   3   1.00
     15.5396160             -0.1107775              0.0708743
      3.5999336             -0.1480263              0.3397528
      1.0137618              1.1307670              0.7271586
SP   1   1.00
      0.2700058              1.0000000              1.0000000
D    1   1.00
      2.5840000              1.0000000
D    1   1.00
      0.6460000              1.0000000
F    1   1.00
      1.4000000              1.0000000
****
F     0
S    6   1.00
   7001.7130900              0.0018196169
   1051.3660900              0.0139160796
    239.2856900              0.0684053245
     67.3974453              0.233185760
     21.5199573              0.471267439
      7.40310130             0.356618546
SP   3   1.00
     20.8479528             -0.108506975            0.0716287243
      4.80830834            -0.146451658            0.3459121030
      1.34406986             1.128688580            0.7224699570
SP   1   1.00
      0.358151393            1.0000000              1.0000000
D    1   1.00
      3.5000000              1.0000000
D    1   1.00
      0.8750000              1.0000000
F    1   1.00
      1.8500000              1.0000000
****
Al     0
S    6   1.00
  13983.1000000              0.00194267
   2098.7500000              0.0148599
    477.7050000              0.0728494
    134.3600000              0.2468300
     42.8709000              0.4872580
     14.5189000              0.3234960
SP   6   1.00
    239.6680000             -0.00292619             0.00460285
     57.4419000             -0.0374080              0.0331990
     18.2859000             -0.1144870              0.1362820
      6.5991400              0.1156350              0.3304760
      2.4904900              0.6125950              0.4491460
      0.9445400              0.3937990              0.2657040
SP   3   1.00
      1.2779000             -0.2276060             -0.0175130
      0.3975900              0.00144583             0.2445330
      0.1600950              1.0927900              0.8049340
SP   1   1.00
      0.0556577              1.0000000              1.0000000
D    1   1.00
      0.6500000              1.0000000
D    1   1.00
      0.1625000              1.0000000
F    1   1.00
      0.2500000              1.0000000
****
Si     0
S    6   1.00
  16115.9000000              0.00195948
   2425.5800000              0.01492880
    553.8670000              0.07284780
    156.3400000              0.24613000
     50.0683000              0.48591400
     17.0178000              0.32500200
SP   6   1.00
    292.7180000             -0.00278094             0.00443826
     69.8731000             -0.03571460             0.03266790
     22.3363000             -0.11498500             0.13472100
      8.1503900              0.09356340             0.32867800
      3.1345800              0.60301700             0.44964000
      1.2254300              0.41895900             0.26137200
SP   3   1.00
      1.7273800             -0.24463000            -0.01779510
      0.5729220              0.00431572             0.25353900
      0.2221920              1.09818000             0.80066900
SP   1   1.00
      0.0778369              1.00000000             1.00000000
D    1   1.00
      0.9000000              1.0000000
D    1   1.00
      0.2250000              1.0000000
F    1   1.00
      0.3200000              1.0000000
****
P     0
S    6   1.00
  19413.3000000              0.0018516
   2909.4200000              0.0142062
    661.3640000              0.0699995
    185.7590000              0.2400790
     59.1943000              0.4847620
     20.0310000              0.3352000
SP   6   1.00
    339.4780000             -0.00278217             0.00456462
     81.0101000             -0.0360499              0.03369360
     25.8780000             -0.1166310              0.13975500
      9.4522100              0.0968328              0.33936200
      3.6656600              0.6144180              0.45092100
      1.4674600              0.4037980              0.23858600
SP   3   1.00
      2.1562300             -0.2529230             -0.01776530
      0.7489970              0.0328517              0.27405800
      0.2831450              1.0812500              0.78542100
SP   1   1.00
      0.0998317              1.0000000              1.00000000
D    1   1.00
      1.1000000              1.0000000
D    1   1.00
      0.2750000              1.0000000
F    1   1.00
      0.4500000              1.0000000
****
S     0
S    6   1.00
  21917.1000000              0.0018690
   3301.4900000              0.0142300
    754.1460000              0.0696960
    212.7110000              0.2384870
     67.9896000              0.4833070
     23.0515000              0.3380740
SP   6   1.00
    423.7350000             -0.0023767              0.0040610
    100.7100000             -0.0316930              0.0306810
     32.1599000             -0.1133170              0.1304520
     11.8079000              0.0560900              0.3272050
      4.6311000              0.5922550              0.4528510
      1.8702500              0.4550060              0.2560420
SP   3   1.00
      2.6158400             -0.2503740             -0.0145110
      0.9221670              0.0669570              0.3102630
      0.3412870              1.0545100              0.7544830
SP   1   1.00
      0.1171670              1.0000000              1.0000000
D    1   1.00
      1.3000000              1.0000000
D    1   1.00
      0.3250000              1.0000000
F    1   1.00
      0.5500000              1.0000000
****
Cl     0
S    6   1.00
  25180.1000000              0.0018330
   3780.3500000              0.0140340
    860.4740000              0.0690970
    242.1450000              0.2374520
     77.3349000              0.4830340
     26.2470000              0.3398560
SP   6   1.00
    491.7650000             -0.0022974              0.0039894
    116.9840000             -0.0307140              0.0303180
     37.4153000             -0.1125280              0.1298800
     13.7834000              0.0450160              0.3279510
      5.4521500              0.5893530              0.4535270
      2.2258800              0.4652060              0.2521540
SP   3   1.00
      3.1864900             -0.2518300             -0.0142990
      1.1442700              0.0615890              0.3235720
      0.4203770              1.0601800              0.7435070
SP   1   1.00
      0.1426570              1.0000000              1.0000000
D    1   1.00
      1.5000000              1.0000000
D    1   1.00
      0.3750000              1.0000000
F    1   1.00
      0.7000000              1.0000000
****
}

set {
reference uhf
freeze_core true
e_convergence 10
d_convergence 10
dft_spherical_points 1202
dft_radial_points 99
}

e = energy('b3lyp')

print_out('Grab this energy {0}'.format(e))
--------------------------------------------------------------------------

    Molecular point group: c1

    Geometry (in Bohr), charge = 0, multiplicity = 2:

       Center              X                  Y                   Z               Mass
    ------------   -----------------  -----------------  -----------------  -----------------
         C           -0.263273735867     0.802592732818    -0.001504104101    12.000000000000
         O           -2.187978171867    -0.330931650782    -0.000229449801    15.994914619570
         C            2.409730638933    -0.246341188482     0.002094557299    12.000000000000
         H            2.383000807233    -2.308479563982    -0.001525517601     1.007825032230
         H            3.391975659733     0.468579575318    -1.664857075001     1.007825032230
         H            3.392330274033     0.468833594518     1.662993702399     1.007825032230

  Charge       = 0
  Multiplicity = 2
  Basis Set: ANONYMOUSC6C0FBFC
    Blend: 6-31G_2DFP_
  Basis Set: (ANONYMOUSC6C0FBFC AUX)
    Blend: DEF2-UNIVERSAL-JKFIT

    Orbital Energies [Eh]
    ---------------------

    Alpha Occupied:

       1A    -19.186919     2A    -10.270844     3A    -10.210098
       4A     -1.083894     5A     -0.761290     6A     -0.543646
       7A     -0.467175     8A     -0.457618     9A     -0.456274
      10A     -0.388589    11A     -0.386873    12A     -0.191021

    Alpha Virtual:

      13A     -0.017571    14A      0.091929    15A      0.137330
      16A      0.141426    17A      0.217850    18A      0.268414
      19A      0.428220    20A      0.432100    21A      0.443664
      22A      0.493523    23A      0.506309    24A      0.530673
      25A      0.562932    26A      0.577660    27A      0.611164
      28A      0.615757    29A      0.644548    30A      0.718604
      31A      0.766467    32A      0.785660    33A      0.832534
      34A      0.916274    35A      0.926039    36A      0.935293
      37A      1.023536    38A      1.085879    39A      1.108513
      40A      1.153207    41A      1.221428    42A      1.306217
      43A      1.316610    44A      1.327429    45A      1.403651
      46A      1.408087    47A      1.468725    48A      1.559641
      49A      1.632655    50A      1.655317    51A      1.721478
      52A      1.813903    53A      1.835122    54A      1.901673
      55A      2.066694    56A      2.167813    57A      2.502206
      58A      2.680097    59A      2.744020    60A      2.784063
      61A      2.843198    62A      2.894866    63A      2.974080
      64A      3.031958    65A      3.059259    66A      3.104151
      67A      3.114904    68A      3.182179    69A      3.313937
      70A      3.371946    71A      3.393398    72A      3.441043
      73A      3.465939    74A      3.486970    75A      3.570137
      76A      3.745106    77A      3.761757    78A      3.942884
      79A      3.979852    80A      4.057229    81A      4.109202
      82A      4.120142    83A      4.190440    84A      4.388155
      85A      4.432757    86A      4.448791    87A      4.532209
      88A      4.918847    89A      5.037124    90A      5.042553
      91A      5.198498    92A      5.208020    93A      5.480101
      94A      5.488752    95A      5.825047    96A      5.937545
      97A      6.109590    98A      6.771082    99A      6.773401
     100A      7.070073   101A      7.135289   102A      7.533107

    Beta Occupied:

       1A    -19.178877     2A    -10.260812     3A    -10.206677
       4A     -1.068071     5A     -0.749465     6A     -0.523998
       7A     -0.451661     8A     -0.446662     9A     -0.439619
      10A     -0.383475    11A     -0.349047

    Beta Virtual:

      12A     -0.051682    13A     -0.001323    14A      0.094657
      15A      0.142990    16A      0.144597    17A      0.228400
      18A      0.274017    19A      0.434097    20A      0.435522
      21A      0.465588    22A      0.500220    23A      0.527860
      24A      0.539512    25A      0.569333    26A      0.581833
      27A      0.622968    28A      0.629256    29A      0.650645
      30A      0.740846    31A      0.777530    32A      0.795520
      33A      0.833313    34A      0.921126    35A      0.942748
      36A      0.950173    37A      1.027744    38A      1.092021
      39A      1.110561    40A      1.159414    41A      1.230748
      42A      1.311788    43A      1.319442    44A      1.334201
      45A      1.412575    46A      1.415095    47A      1.481044
      48A      1.570649    49A      1.646104    50A      1.669690
      51A      1.727684    52A      1.817083    53A      1.849320
      54A      1.908356    55A      2.073390    56A      2.189155
      57A      2.514918    58A      2.694369    59A      2.758524
      60A      2.805134    61A      2.858565    62A      2.896519
      63A      2.983614    64A      3.048831    65A      3.067853
      66A      3.122512    67A      3.123802    68A      3.216886
      69A      3.357324    70A      3.383416    71A      3.399768
      72A      3.450211    73A      3.480723    74A      3.509910
      75A      3.583487    76A      3.770792    77A      3.771225
      78A      3.951586    79A      3.989194    80A      4.073626
      81A      4.122728    82A      4.124183    83A      4.201995
      84A      4.390426    85A      4.438900    86A      4.452994
      87A      4.543109    88A      4.922719    89A      5.054588
      90A      5.060511    91A      5.200634    92A      5.213744
      93A      5.492673    94A      5.502658    95A      5.838272
      96A      5.943127    97A      6.132729    98A      6.800288
      99A      6.802943   100A      7.074354   101A      7.164562
     102A      7.544723

    Final Occupation by Irrep:
              A
    DOCC [    11 ]
    SOCC [     1 ]

  @DF-UKS Final Energy:  -153.18844849088381

   => Energetics <=

    Nuclear Repulsion Energy =             62.8634704918870497
    One-Electron Energy =                -331.7192235570536241
    Two-Electron Energy =                 132.2505037682876718
    DFT Exchange-Correlation Energy =     -16.5831991940048944
    Empirical Dispersion Energy =           0.0000000000000000
    VV10 Nonlocal Energy =                  0.0000000000000000
    Total Energy =                       -153.1884484908838147

  UHF NO Occupations:
  HONO-2 :   10  A 1.9997809
  HONO-1 :   11  A 1.9992098
  HONO-0 :   12  A 1.0000000
  LUNO+0 :   13  A 0.0007902
  LUNO+1 :   14  A 0.0002191
  LUNO+2 :   15  A 0.0001777
  LUNO+3 :   16  A 0.0000611

Computation Completed

Properties will be evaluated at   0.000000,   0.000000,   0.000000 [a0]

Properties computed using the SCF density matrix

  Nuclear Dipole Moment: [e a0]
     X:     4.5422      Y:    -0.6810      Z:    -0.0017

  Electronic Dipole Moment: [e a0]
     X:    -3.6194      Y:     0.6295      Z:     0.0020

  Dipole Moment: [e a0]
     X:     0.9228      Y:    -0.0515      Z:     0.0004     Total:     0.9243

  Dipole Moment: [D]
     X:     2.3456      Y:    -0.1308      Z:     0.0009     Total:     2.3493

*** tstop() called on n078 at Tue Mar 15 10:28:02 2022
Module time:
	user time   =      44.13 seconds =       0.74 minutes
	system time =       0.53 seconds =       0.01 minutes
	total time  =         45 seconds =       0.75 minutes
Total time:
	user time   =      44.13 seconds =       0.74 minutes
	system time =       0.53 seconds =       0.01 minutes
	total time  =         45 seconds =       0.75 minutes
Grab this energy -153.18844849088381
    Psi4 stopped on: Tuesday, 15 March 2022 10:28AM
    Psi4 wall time for execution: 0:00:44.69

*** Psi4 exiting successfully. Buy a developer a beer!
