                               Psi4 1.4a2.dev629

  ==> Input File <==

--------------------------------------------------------------------------
import os
memory 14 GB

molecule {
 C   -0.2560829683    0.7969194766    0.0000000002
 O   -2.1919800152   -0.3349298296    0.0000000099
 C    2.4102757888   -0.2417363898    0.0000000102
 H    2.3838419828   -2.2987316554    0.0000000305
 H    3.3902714067    0.4743064248   -1.6593231175
 H    3.3902717552    0.4743065934    1.6593228867
units bohr
0 2
}

basis {

assign 6-31g_2dfp_

[ 6-31g_2dfp_ ]

spherical

!----------------------------------------------------------------------
! Basis Set Exchange
! Version v0.8.13
! https://www.basissetexchange.org
!----------------------------------------------------------------------
!   Basis set: 6-31G(2df,p)
! Description: 6-31G(2df,p)
!        Role: orbital
!     Version: 0  (Data from the original Basis Set Exchange)
!----------------------------------------------------------------------

****
H     0
S    3   1.00
     18.7311370              0.03349460
      2.8253937              0.23472695
      0.6401217              0.81375733
S    1   1.00
      0.1612778              1.00000000
P    1   1.00
      1.5000000              1.0000000
P    1   1.00
      0.3750000              1.0000000
****
B     0
S    6   1.00
   2068.8823000              0.0018663
    310.6495700              0.0142515
     70.6830330              0.0695516
     19.8610800              0.2325729
      6.2993048              0.4670787
      2.1270270              0.3634314
SP   3   1.00
      4.7279710             -0.1303938              0.0745976
      1.1903377             -0.1307889              0.3078467
      0.3594117              1.1309444              0.7434568
SP   1   1.00
      0.1267512              1.0000000              1.0000000
D    1   1.00
      0.8020000              1.0000000
D    1   1.00
      0.2005000              1.0000000
F    1   1.00
      0.5000000              1.0000000
****
C     0
S    6   1.00
   3047.5249000              0.0018347
    457.3695100              0.0140373
    103.9486900              0.0688426
     29.2101550              0.2321844
      9.2866630              0.4679413
      3.1639270              0.3623120
SP   3   1.00
      7.8682724             -0.1193324              0.0689991
      1.8812885             -0.1608542              0.3164240
      0.5442493              1.1434564              0.7443083
SP   1   1.00
      0.1687144              1.0000000              1.0000000
D    1   1.00
      1.2520000              1.0000000
D    1   1.00
      0.3130000              1.0000000
F    1   1.00
      0.8000000              1.0000000
****
N     0
S    6   1.00
   4173.5110000              0.0018348
    627.4579000              0.0139950
    142.9021000              0.0685870
     40.2343300              0.2322410
     12.8202100              0.4690700
      4.3904370              0.3604550
SP   3   1.00
     11.6263580             -0.1149610              0.0675800
      2.7162800             -0.1691180              0.3239070
      0.7722180              1.1458520              0.7408950
SP   1   1.00
      0.2120313              1.0000000              1.0000000
D    1   1.00
      1.8260000              1.0000000
D    1   1.00
      0.4565000              1.0000000
F    1   1.00
      1.0000000              1.0000000
****
O     0
S    6   1.00
   5484.6717000              0.0018311
    825.2349500              0.0139501
    188.0469600              0.0684451
     52.9645000              0.2327143
     16.8975700              0.4701930
      5.7996353              0.3585209
SP   3   1.00
     15.5396160             -0.1107775              0.0708743
      3.5999336             -0.1480263              0.3397528
      1.0137618              1.1307670              0.7271586
SP   1   1.00
      0.2700058              1.0000000              1.0000000
D    1   1.00
      2.5840000              1.0000000
D    1   1.00
      0.6460000              1.0000000
F    1   1.00
      1.4000000              1.0000000
****
F     0
S    6   1.00
   7001.7130900              0.0018196169
   1051.3660900              0.0139160796
    239.2856900              0.0684053245
     67.3974453              0.233185760
     21.5199573              0.471267439
      7.40310130             0.356618546
SP   3   1.00
     20.8479528             -0.108506975            0.0716287243
      4.80830834            -0.146451658            0.3459121030
      1.34406986             1.128688580            0.7224699570
SP   1   1.00
      0.358151393            1.0000000              1.0000000
D    1   1.00
      3.5000000              1.0000000
D    1   1.00
      0.8750000              1.0000000
F    1   1.00
      1.8500000              1.0000000
****
Al     0
S    6   1.00
  13983.1000000              0.00194267
   2098.7500000              0.0148599
    477.7050000              0.0728494
    134.3600000              0.2468300
     42.8709000              0.4872580
     14.5189000              0.3234960
SP   6   1.00
    239.6680000             -0.00292619             0.00460285
     57.4419000             -0.0374080              0.0331990
     18.2859000             -0.1144870              0.1362820
      6.5991400              0.1156350              0.3304760
      2.4904900              0.6125950              0.4491460
      0.9445400              0.3937990              0.2657040
SP   3   1.00
      1.2779000             -0.2276060             -0.0175130
      0.3975900              0.00144583             0.2445330
      0.1600950              1.0927900              0.8049340
SP   1   1.00
      0.0556577              1.0000000              1.0000000
D    1   1.00
      0.6500000              1.0000000
D    1   1.00
      0.1625000              1.0000000
F    1   1.00
      0.2500000              1.0000000
****
Si     0
S    6   1.00
  16115.9000000              0.00195948
   2425.5800000              0.01492880
    553.8670000              0.07284780
    156.3400000              0.24613000
     50.0683000              0.48591400
     17.0178000              0.32500200
SP   6   1.00
    292.7180000             -0.00278094             0.00443826
     69.8731000             -0.03571460             0.03266790
     22.3363000             -0.11498500             0.13472100
      8.1503900              0.09356340             0.32867800
      3.1345800              0.60301700             0.44964000
      1.2254300              0.41895900             0.26137200
SP   3   1.00
      1.7273800             -0.24463000            -0.01779510
      0.5729220              0.00431572             0.25353900
      0.2221920              1.09818000             0.80066900
SP   1   1.00
      0.0778369              1.00000000             1.00000000
D    1   1.00
      0.9000000              1.0000000
D    1   1.00
      0.2250000              1.0000000
F    1   1.00
      0.3200000              1.0000000
****
P     0
S    6   1.00
  19413.3000000              0.0018516
   2909.4200000              0.0142062
    661.3640000              0.0699995
    185.7590000              0.2400790
     59.1943000              0.4847620
     20.0310000              0.3352000
SP   6   1.00
    339.4780000             -0.00278217             0.00456462
     81.0101000             -0.0360499              0.03369360
     25.8780000             -0.1166310              0.13975500
      9.4522100              0.0968328              0.33936200
      3.6656600              0.6144180              0.45092100
      1.4674600              0.4037980              0.23858600
SP   3   1.00
      2.1562300             -0.2529230             -0.01776530
      0.7489970              0.0328517              0.27405800
      0.2831450              1.0812500              0.78542100
SP   1   1.00
      0.0998317              1.0000000              1.00000000
D    1   1.00
      1.1000000              1.0000000
D    1   1.00
      0.2750000              1.0000000
F    1   1.00
      0.4500000              1.0000000
****
S     0
S    6   1.00
  21917.1000000              0.0018690
   3301.4900000              0.0142300
    754.1460000              0.0696960
    212.7110000              0.2384870
     67.9896000              0.4833070
     23.0515000              0.3380740
SP   6   1.00
    423.7350000             -0.0023767              0.0040610
    100.7100000             -0.0316930              0.0306810
     32.1599000             -0.1133170              0.1304520
     11.8079000              0.0560900              0.3272050
      4.6311000              0.5922550              0.4528510
      1.8702500              0.4550060              0.2560420
SP   3   1.00
      2.6158400             -0.2503740             -0.0145110
      0.9221670              0.0669570              0.3102630
      0.3412870              1.0545100              0.7544830
SP   1   1.00
      0.1171670              1.0000000              1.0000000
D    1   1.00
      1.3000000              1.0000000
D    1   1.00
      0.3250000              1.0000000
F    1   1.00
      0.5500000              1.0000000
****
Cl     0
S    6   1.00
  25180.1000000              0.0018330
   3780.3500000              0.0140340
    860.4740000              0.0690970
    242.1450000              0.2374520
     77.3349000              0.4830340
     26.2470000              0.3398560
SP   6   1.00
    491.7650000             -0.0022974              0.0039894
    116.9840000             -0.0307140              0.0303180
     37.4153000             -0.1125280              0.1298800
     13.7834000              0.0450160              0.3279510
      5.4521500              0.5893530              0.4535270
      2.2258800              0.4652060              0.2521540
SP   3   1.00
      3.1864900             -0.2518300             -0.0142990
      1.1442700              0.0615890              0.3235720
      0.4203770              1.0601800              0.7435070
SP   1   1.00
      0.1426570              1.0000000              1.0000000
D    1   1.00
      1.5000000              1.0000000
D    1   1.00
      0.3750000              1.0000000
F    1   1.00
      0.7000000              1.0000000
****
}

set {
reference uhf
freeze_core true
e_convergence 10
d_convergence 10
dft_spherical_points 1202
dft_radial_points 99
}

e = energy('b3lyp')

print_out('Grab this energy {0}'.format(e))
--------------------------------------------------------------------------

    Molecular point group: c1

    Geometry (in Bohr), charge = 0, multiplicity = 2:

       Center              X                  Y                   Z               Mass
    ------------   -----------------  -----------------  -----------------  -----------------
         C           -0.256684511246     0.798213349890    -0.000000001689    12.000000000000
         O           -2.192581558146    -0.333635956310     0.000000008011    15.994914619570
         C            2.409674245854    -0.240442516510     0.000000008311    12.000000000000
         H            2.383240439854    -2.297437782110     0.000000028611     1.007825032230
         H            3.389669863754     0.475600298090    -1.659323119389     1.007825032230
         H            3.389670212254     0.475600466690     1.659322884811     1.007825032230

  Charge       = 0
  Multiplicity = 2
  Basis Set: ANONYMOUS8924FD2B
    Blend: 6-31G_2DFP_
  Basis Set: (ANONYMOUS8924FD2B AUX)
    Blend: DEF2-UNIVERSAL-JKFIT

    Orbital Energies [Eh]
    ---------------------

    Alpha Occupied:

       1A    -19.186574     2A    -10.271182     3A    -10.209673
       4A     -1.080961     5A     -0.763230     6A     -0.544067
       7A     -0.467230     8A     -0.457700     9A     -0.456676
      10A     -0.387333    11A     -0.386442    12A     -0.191210

    Alpha Virtual:

      13A     -0.018724    14A      0.092015    15A      0.137609
      16A      0.141681    17A      0.218706    18A      0.268139
      19A      0.427887    20A      0.431574    21A      0.444253
      22A      0.494096    23A      0.506342    24A      0.530901
      25A      0.563223    26A      0.579008    27A      0.609542
      28A      0.616877    29A      0.644916    30A      0.717952
      31A      0.765898    32A      0.785348    33A      0.833325
      34A      0.917709    35A      0.927471    36A      0.936177
      37A      1.024498    38A      1.085123    39A      1.108709
      40A      1.154644    41A      1.223876    42A      1.307389
      43A      1.317464    44A      1.328510    45A      1.404616
      46A      1.409550    47A      1.470375    48A      1.560872
      49A      1.633583    50A      1.654331    51A      1.723719
      52A      1.814918    53A      1.836488    54A      1.903269
      55A      2.067891    56A      2.170309    57A      2.495248
      58A      2.681373    59A      2.745549    60A      2.786609
      61A      2.843199    62A      2.895098    63A      2.976128
      64A      3.028871    65A      3.057165    66A      3.104343
      67A      3.117552    68A      3.180485    69A      3.314779
      70A      3.367177    71A      3.389410    72A      3.442066
      73A      3.466907    74A      3.484864    75A      3.571173
      76A      3.741099    77A      3.766959    78A      3.947794
      79A      3.986649    80A      4.059466    81A      4.116774
      82A      4.123407    83A      4.193995    84A      4.392292
      85A      4.439574    86A      4.455481    87A      4.538423
      88A      4.922025    89A      5.037449    90A      5.042651
      91A      5.205280    92A      5.215285    93A      5.474321
      94A      5.484565    95A      5.828163    96A      5.931480
      97A      6.106995    98A      6.771118    99A      6.773315
     100A      7.072326   101A      7.135166   102A      7.530514

    Beta Occupied:

       1A    -19.178527     2A    -10.261088     3A    -10.206337
       4A     -1.065050     5A     -0.751496     6A     -0.524368
       7A     -0.452154     8A     -0.447776     9A     -0.439300
      10A     -0.382160    11A     -0.348002

    Beta Virtual:

      12A     -0.051547    13A     -0.002457    14A      0.094708
      15A      0.143308    16A      0.144793    17A      0.228963
      18A      0.273813    19A      0.433574    20A      0.434720
      21A      0.466565    22A      0.500818    23A      0.527683
      24A      0.540011    25A      0.569531    26A      0.583246
      27A      0.624118    28A      0.628124    29A      0.650693
      30A      0.740048    31A      0.777078    32A      0.795343
      33A      0.834128    34A      0.922551    35A      0.943621
      36A      0.951588    37A      1.028687    38A      1.091260
      39A      1.110754    40A      1.160780    41A      1.233193
      42A      1.313039    43A      1.320221    44A      1.335259
      45A      1.414961    46A      1.415061    47A      1.482613
      48A      1.571879    49A      1.647081    50A      1.668653
      51A      1.730087    52A      1.818160    53A      1.850489
      54A      1.909876    55A      2.074614    56A      2.191755
      57A      2.507918    58A      2.695629    59A      2.760113
      60A      2.807729    61A      2.858820    62A      2.896735
      63A      2.985422    64A      3.045737    65A      3.065704
      66A      3.123029    67A      3.126023    68A      3.215235
      69A      3.358440    70A      3.378667    71A      3.395624
      72A      3.449917    73A      3.482893    74A      3.508107
      75A      3.584321    76A      3.767090    77A      3.776295
      78A      3.956342    79A      3.995912    80A      4.075705
      81A      4.126223    82A      4.131260    83A      4.205770
      84A      4.394548    85A      4.445763    86A      4.459672
      87A      4.549302    88A      4.925897    89A      5.054947
      90A      5.060589    91A      5.207503    92A      5.220983
      93A      5.486952    94A      5.498380    95A      5.841410
      96A      5.937071    97A      6.130163    98A      6.800302
      99A      6.802844   100A      7.076623   101A      7.164485
     102A      7.542162

    Final Occupation by Irrep:
              A
    DOCC [    11 ]
    SOCC [     1 ]

  @DF-UKS Final Energy:  -153.18839842885762

   => Energetics <=

    Nuclear Repulsion Energy =             62.8472892268441470
    One-Electron Energy =                -331.6904972859352938
    Two-Electron Energy =                 132.2384692696000457
    DFT Exchange-Correlation Energy =     -16.5836596393665339
    Empirical Dispersion Energy =           0.0000000000000000
    VV10 Nonlocal Energy =                  0.0000000000000000
    Total Energy =                       -153.1883984288576244

  UHF NO Occupations:
  HONO-2 :   10  A 1.9997901
  HONO-1 :   11  A 1.9992034
  HONO-0 :   12  A 1.0000000
  LUNO+0 :   13  A 0.0007966
  LUNO+1 :   14  A 0.0002099
  LUNO+2 :   15  A 0.0001820
  LUNO+3 :   16  A 0.0000613

Computation Completed

Properties will be evaluated at   0.000000,   0.000000,   0.000000 [a0]

Properties computed using the SCF density matrix

  Nuclear Dipole Moment: [e a0]
     X:     4.5399      Y:    -0.6687      Z:    -0.0000

  Electronic Dipole Moment: [e a0]
     X:    -3.6032      Y:     0.6192      Z:     0.0000

  Dipole Moment: [e a0]
     X:     0.9367      Y:    -0.0495      Z:    -0.0000     Total:     0.9380

  Dipole Moment: [D]
     X:     2.3808      Y:    -0.1258      Z:    -0.0000     Total:     2.3841

*** tstop() called on n089 at Thu Nov  4 14:55:47 2021
Module time:
	user time   =      44.46 seconds =       0.74 minutes
	system time =       0.52 seconds =       0.01 minutes
	total time  =         45 seconds =       0.75 minutes
Total time:
	user time   =      44.46 seconds =       0.74 minutes
	system time =       0.52 seconds =       0.01 minutes
	total time  =         45 seconds =       0.75 minutes
Grab this energy -153.18839842885762
    Psi4 stopped on: Thursday, 04 November 2021 02:55PM
    Psi4 wall time for execution: 0:00:45.02

*** Psi4 exiting successfully. Buy a developer a beer!
