                               Psi4 1.4a2.dev629

  ==> Input File <==

--------------------------------------------------------------------------
import os
memory 14 GB

molecule {
 C   -0.2592899884    0.8027276946   -0.0010319934
 O   -2.1915899422   -0.3365878693   -0.0040679396
 C    2.4109400593   -0.2418327350    0.0007994837
 H    2.3875127199   -2.2985353710    0.0033184918
 H    3.3827955643    0.4742351603   -1.6593174518
 H    3.3962295371    0.4701277403    1.6602992292
units bohr
0 2
}

basis {

assign 6-31g_2dfp_

[ 6-31g_2dfp_ ]

spherical

!----------------------------------------------------------------------
! Basis Set Exchange
! Version v0.8.13
! https://www.basissetexchange.org
!----------------------------------------------------------------------
!   Basis set: 6-31G(2df,p)
! Description: 6-31G(2df,p)
!        Role: orbital
!     Version: 0  (Data from the original Basis Set Exchange)
!----------------------------------------------------------------------

****
H     0
S    3   1.00
     18.7311370              0.03349460
      2.8253937              0.23472695
      0.6401217              0.81375733
S    1   1.00
      0.1612778              1.00000000
P    1   1.00
      1.5000000              1.0000000
P    1   1.00
      0.3750000              1.0000000
****
B     0
S    6   1.00
   2068.8823000              0.0018663
    310.6495700              0.0142515
     70.6830330              0.0695516
     19.8610800              0.2325729
      6.2993048              0.4670787
      2.1270270              0.3634314
SP   3   1.00
      4.7279710             -0.1303938              0.0745976
      1.1903377             -0.1307889              0.3078467
      0.3594117              1.1309444              0.7434568
SP   1   1.00
      0.1267512              1.0000000              1.0000000
D    1   1.00
      0.8020000              1.0000000
D    1   1.00
      0.2005000              1.0000000
F    1   1.00
      0.5000000              1.0000000
****
C     0
S    6   1.00
   3047.5249000              0.0018347
    457.3695100              0.0140373
    103.9486900              0.0688426
     29.2101550              0.2321844
      9.2866630              0.4679413
      3.1639270              0.3623120
SP   3   1.00
      7.8682724             -0.1193324              0.0689991
      1.8812885             -0.1608542              0.3164240
      0.5442493              1.1434564              0.7443083
SP   1   1.00
      0.1687144              1.0000000              1.0000000
D    1   1.00
      1.2520000              1.0000000
D    1   1.00
      0.3130000              1.0000000
F    1   1.00
      0.8000000              1.0000000
****
N     0
S    6   1.00
   4173.5110000              0.0018348
    627.4579000              0.0139950
    142.9021000              0.0685870
     40.2343300              0.2322410
     12.8202100              0.4690700
      4.3904370              0.3604550
SP   3   1.00
     11.6263580             -0.1149610              0.0675800
      2.7162800             -0.1691180              0.3239070
      0.7722180              1.1458520              0.7408950
SP   1   1.00
      0.2120313              1.0000000              1.0000000
D    1   1.00
      1.8260000              1.0000000
D    1   1.00
      0.4565000              1.0000000
F    1   1.00
      1.0000000              1.0000000
****
O     0
S    6   1.00
   5484.6717000              0.0018311
    825.2349500              0.0139501
    188.0469600              0.0684451
     52.9645000              0.2327143
     16.8975700              0.4701930
      5.7996353              0.3585209
SP   3   1.00
     15.5396160             -0.1107775              0.0708743
      3.5999336             -0.1480263              0.3397528
      1.0137618              1.1307670              0.7271586
SP   1   1.00
      0.2700058              1.0000000              1.0000000
D    1   1.00
      2.5840000              1.0000000
D    1   1.00
      0.6460000              1.0000000
F    1   1.00
      1.4000000              1.0000000
****
F     0
S    6   1.00
   7001.7130900              0.0018196169
   1051.3660900              0.0139160796
    239.2856900              0.0684053245
     67.3974453              0.233185760
     21.5199573              0.471267439
      7.40310130             0.356618546
SP   3   1.00
     20.8479528             -0.108506975            0.0716287243
      4.80830834            -0.146451658            0.3459121030
      1.34406986             1.128688580            0.7224699570
SP   1   1.00
      0.358151393            1.0000000              1.0000000
D    1   1.00
      3.5000000              1.0000000
D    1   1.00
      0.8750000              1.0000000
F    1   1.00
      1.8500000              1.0000000
****
Al     0
S    6   1.00
  13983.1000000              0.00194267
   2098.7500000              0.0148599
    477.7050000              0.0728494
    134.3600000              0.2468300
     42.8709000              0.4872580
     14.5189000              0.3234960
SP   6   1.00
    239.6680000             -0.00292619             0.00460285
     57.4419000             -0.0374080              0.0331990
     18.2859000             -0.1144870              0.1362820
      6.5991400              0.1156350              0.3304760
      2.4904900              0.6125950              0.4491460
      0.9445400              0.3937990              0.2657040
SP   3   1.00
      1.2779000             -0.2276060             -0.0175130
      0.3975900              0.00144583             0.2445330
      0.1600950              1.0927900              0.8049340
SP   1   1.00
      0.0556577              1.0000000              1.0000000
D    1   1.00
      0.6500000              1.0000000
D    1   1.00
      0.1625000              1.0000000
F    1   1.00
      0.2500000              1.0000000
****
Si     0
S    6   1.00
  16115.9000000              0.00195948
   2425.5800000              0.01492880
    553.8670000              0.07284780
    156.3400000              0.24613000
     50.0683000              0.48591400
     17.0178000              0.32500200
SP   6   1.00
    292.7180000             -0.00278094             0.00443826
     69.8731000             -0.03571460             0.03266790
     22.3363000             -0.11498500             0.13472100
      8.1503900              0.09356340             0.32867800
      3.1345800              0.60301700             0.44964000
      1.2254300              0.41895900             0.26137200
SP   3   1.00
      1.7273800             -0.24463000            -0.01779510
      0.5729220              0.00431572             0.25353900
      0.2221920              1.09818000             0.80066900
SP   1   1.00
      0.0778369              1.00000000             1.00000000
D    1   1.00
      0.9000000              1.0000000
D    1   1.00
      0.2250000              1.0000000
F    1   1.00
      0.3200000              1.0000000
****
P     0
S    6   1.00
  19413.3000000              0.0018516
   2909.4200000              0.0142062
    661.3640000              0.0699995
    185.7590000              0.2400790
     59.1943000              0.4847620
     20.0310000              0.3352000
SP   6   1.00
    339.4780000             -0.00278217             0.00456462
     81.0101000             -0.0360499              0.03369360
     25.8780000             -0.1166310              0.13975500
      9.4522100              0.0968328              0.33936200
      3.6656600              0.6144180              0.45092100
      1.4674600              0.4037980              0.23858600
SP   3   1.00
      2.1562300             -0.2529230             -0.01776530
      0.7489970              0.0328517              0.27405800
      0.2831450              1.0812500              0.78542100
SP   1   1.00
      0.0998317              1.0000000              1.00000000
D    1   1.00
      1.1000000              1.0000000
D    1   1.00
      0.2750000              1.0000000
F    1   1.00
      0.4500000              1.0000000
****
S     0
S    6   1.00
  21917.1000000              0.0018690
   3301.4900000              0.0142300
    754.1460000              0.0696960
    212.7110000              0.2384870
     67.9896000              0.4833070
     23.0515000              0.3380740
SP   6   1.00
    423.7350000             -0.0023767              0.0040610
    100.7100000             -0.0316930              0.0306810
     32.1599000             -0.1133170              0.1304520
     11.8079000              0.0560900              0.3272050
      4.6311000              0.5922550              0.4528510
      1.8702500              0.4550060              0.2560420
SP   3   1.00
      2.6158400             -0.2503740             -0.0145110
      0.9221670              0.0669570              0.3102630
      0.3412870              1.0545100              0.7544830
SP   1   1.00
      0.1171670              1.0000000              1.0000000
D    1   1.00
      1.3000000              1.0000000
D    1   1.00
      0.3250000              1.0000000
F    1   1.00
      0.5500000              1.0000000
****
Cl     0
S    6   1.00
  25180.1000000              0.0018330
   3780.3500000              0.0140340
    860.4740000              0.0690970
    242.1450000              0.2374520
     77.3349000              0.4830340
     26.2470000              0.3398560
SP   6   1.00
    491.7650000             -0.0022974              0.0039894
    116.9840000             -0.0307140              0.0303180
     37.4153000             -0.1125280              0.1298800
     13.7834000              0.0450160              0.3279510
      5.4521500              0.5893530              0.4535270
      2.2258800              0.4652060              0.2521540
SP   3   1.00
      3.1864900             -0.2518300             -0.0142990
      1.1442700              0.0615890              0.3235720
      0.4203770              1.0601800              0.7435070
SP   1   1.00
      0.1426570              1.0000000              1.0000000
D    1   1.00
      1.5000000              1.0000000
D    1   1.00
      0.3750000              1.0000000
F    1   1.00
      0.7000000              1.0000000
****
}

set {
reference uhf
freeze_core true
e_convergence 10
d_convergence 10
dft_spherical_points 1202
dft_radial_points 99
}

e = energy('b3lyp')

print_out('Grab this energy {0}'.format(e))
--------------------------------------------------------------------------

    Molecular point group: c1

    Geometry (in Bohr), charge = 0, multiplicity = 2:

       Center              X                  Y                   Z               Mass
    ------------   -----------------  -----------------  -----------------  -----------------
         C           -0.259377697852     0.803139695839     0.000444643556    12.000000000000
         O           -2.191677651652    -0.336175868061    -0.002591302644    15.994914619570
         C            2.410852349848    -0.241420733761     0.002276120656    12.000000000000
         H            2.387425010448    -2.298123369761     0.004795128756     1.007825032230
         H            3.382707854848     0.474647161539    -1.657840814844     1.007825032230
         H            3.396141827648     0.470539741539     1.661775866156     1.007825032230

  Charge       = 0
  Multiplicity = 2
  Basis Set: ANONYMOUS7F044346
    Blend: 6-31G_2DFP_
  Basis Set: (ANONYMOUS7F044346 AUX)
    Blend: DEF2-UNIVERSAL-JKFIT

    Orbital Energies [Eh]
    ---------------------

    Alpha Occupied:

       1A    -19.186833     2A    -10.271565     3A    -10.209617
       4A     -1.080997     5A     -0.762638     6A     -0.544193
       7A     -0.466816     8A     -0.457698     9A     -0.456484
      10A     -0.387536    11A     -0.386303    12A     -0.191963

    Alpha Virtual:

      13A     -0.018902    14A      0.092219    15A      0.137734
      16A      0.141869    17A      0.217804    18A      0.268103
      19A      0.428074    20A      0.431817    21A      0.443882
      22A      0.493930    23A      0.506426    24A      0.530883
      25A      0.563480    26A      0.579113    27A      0.608591
      28A      0.616372    29A      0.644767    30A      0.718013
      31A      0.766350    32A      0.785303    33A      0.833734
      34A      0.917515    35A      0.927301    36A      0.936235
      37A      1.023670    38A      1.085726    39A      1.108694
      40A      1.153993    41A      1.222710    42A      1.306359
      43A      1.318189    44A      1.328047    45A      1.404589
      46A      1.408886    47A      1.469273    48A      1.560272
      49A      1.631725    50A      1.653953    51A      1.723836
      52A      1.815259    53A      1.835731    54A      1.903662
      55A      2.066405    56A      2.167185    57A      2.495017
      58A      2.680859    59A      2.744431    60A      2.786238
      61A      2.843848    62A      2.895714    63A      2.974573
      64A      3.030653    65A      3.057493    66A      3.104984
      67A      3.115732    68A      3.181653    69A      3.314563
      70A      3.367486    71A      3.390739    72A      3.440418
      73A      3.465705    74A      3.485312    75A      3.572251
      76A      3.739280    77A      3.763394    78A      3.946934
      79A      3.984129    80A      4.056465    81A      4.113930
      82A      4.125175    83A      4.193454    84A      4.393180
      85A      4.436109    86A      4.454209    87A      4.537324
      88A      4.921914    89A      5.037358    90A      5.042343
      91A      5.205910    92A      5.216475    93A      5.473254
      94A      5.482854    95A      5.827074    96A      5.930071
      97A      6.104300    98A      6.770712    99A      6.772874
     100A      7.071413   101A      7.135063   102A      7.529767

    Beta Occupied:

       1A    -19.178770     2A    -10.261495     3A    -10.206248
       4A     -1.065067     5A     -0.750897     6A     -0.524434
       7A     -0.452099     8A     -0.447409     9A     -0.438980
      10A     -0.382337    11A     -0.347920

    Beta Virtual:

      12A     -0.052416    13A     -0.002612    14A      0.094913
      15A      0.143379    16A      0.144975    17A      0.228215
      18A      0.273789    19A      0.433711    20A      0.435383
      21A      0.465860    22A      0.500642    23A      0.527838
      24A      0.539890    25A      0.569897    26A      0.583328
      27A      0.623521    28A      0.627246    29A      0.650414
      30A      0.739962    31A      0.777507    32A      0.795307
      33A      0.834515    34A      0.922349    35A      0.943860
      36A      0.951321    37A      1.027856    38A      1.091818
      39A      1.110785    40A      1.160176    41A      1.231999
      42A      1.312009    43A      1.321016    44A      1.334796
      45A      1.414363    46A      1.415005    47A      1.481558
      48A      1.571413    49A      1.645114    50A      1.668301
      51A      1.730167    52A      1.818440    53A      1.849689
      54A      1.910270    55A      2.073131    56A      2.188610
      57A      2.507704    58A      2.695132    59A      2.758940
      60A      2.807376    61A      2.859315    62A      2.897357
      63A      2.983969    64A      3.047369    65A      3.066000
      66A      3.123002    67A      3.124824    68A      3.216337
      69A      3.358234    70A      3.378949    71A      3.396970
      72A      3.448597    73A      3.481505    74A      3.508628
      75A      3.585357    76A      3.765160    77A      3.772864
      78A      3.955509    79A      3.993436    80A      4.072850
      81A      4.127972    82A      4.128972    83A      4.204730
      84A      4.395451    85A      4.442253    86A      4.458405
      87A      4.548155    88A      4.925805    89A      5.054892
      90A      5.060334    91A      5.208138    92A      5.222120
      93A      5.485898    94A      5.496683    95A      5.840318
      96A      5.935660    97A      6.127494    98A      6.799977
      99A      6.802481   100A      7.075713   101A      7.164433
     102A      7.541432

    Final Occupation by Irrep:
              A
    DOCC [    11 ]
    SOCC [     1 ]

  @DF-UKS Final Energy:  -153.18838513997972

   => Energetics <=

    Nuclear Repulsion Energy =             62.8128473752813008
    One-Electron Energy =                -331.6223811574350862
    Two-Electron Energy =                 132.2039730235050001
    DFT Exchange-Correlation Energy =     -16.5828243813309300
    Empirical Dispersion Energy =           0.0000000000000000
    VV10 Nonlocal Energy =                  0.0000000000000000
    Total Energy =                       -153.1883851399797152

  UHF NO Occupations:
  HONO-2 :   10  A 1.9997859
  HONO-1 :   11  A 1.9992019
  HONO-0 :   12  A 1.0000000
  LUNO+0 :   13  A 0.0007981
  LUNO+1 :   14  A 0.0002141
  LUNO+2 :   15  A 0.0001807
  LUNO+3 :   16  A 0.0000616

Computation Completed

Properties will be evaluated at   0.000000,   0.000000,   0.000000 [a0]

Properties computed using the SCF density matrix

  Nuclear Dipole Moment: [e a0]
     X:     4.5417      Y:    -0.6720      Z:     0.0043

  Electronic Dipole Moment: [e a0]
     X:    -3.6081      Y:     0.6226      Z:    -0.0034

  Dipole Moment: [e a0]
     X:     0.9336      Y:    -0.0494      Z:     0.0010     Total:     0.9349

  Dipole Moment: [D]
     X:     2.3730      Y:    -0.1256      Z:     0.0025     Total:     2.3763

*** tstop() called on n089 at Thu Nov  4 14:58:47 2021
Module time:
	user time   =      44.61 seconds =       0.74 minutes
	system time =       0.53 seconds =       0.01 minutes
	total time  =         45 seconds =       0.75 minutes
Total time:
	user time   =      44.61 seconds =       0.74 minutes
	system time =       0.53 seconds =       0.01 minutes
	total time  =         45 seconds =       0.75 minutes
Grab this energy -153.18838513997972
    Psi4 stopped on: Thursday, 04 November 2021 02:58PM
    Psi4 wall time for execution: 0:00:45.18

*** Psi4 exiting successfully. Buy a developer a beer!
