                               Psi4 1.4a2.dev629

  ==> Input File <==

--------------------------------------------------------------------------
import os
memory 14 GB

molecule {
 C   -0.2648486651    0.8021519553    0.0000000001
 O   -2.1875958908   -0.3346878677    0.0000000100
 C    2.4099547098   -0.2421620591    0.0000000100
 H    2.3867893361   -2.3043395668    0.0000000301
 H    3.3911490550    0.4745859942   -1.6639162852
 H    3.3911494050    0.4745861641    1.6639160551
units bohr
0 2
}

basis {

assign 6-31g_2dfp_

[ 6-31g_2dfp_ ]

spherical

!----------------------------------------------------------------------
! Basis Set Exchange
! Version v0.8.13
! https://www.basissetexchange.org
!----------------------------------------------------------------------
!   Basis set: 6-31G(2df,p)
! Description: 6-31G(2df,p)
!        Role: orbital
!     Version: 0  (Data from the original Basis Set Exchange)
!----------------------------------------------------------------------

****
H     0
S    3   1.00
     18.7311370              0.03349460
      2.8253937              0.23472695
      0.6401217              0.81375733
S    1   1.00
      0.1612778              1.00000000
P    1   1.00
      1.5000000              1.0000000
P    1   1.00
      0.3750000              1.0000000
****
B     0
S    6   1.00
   2068.8823000              0.0018663
    310.6495700              0.0142515
     70.6830330              0.0695516
     19.8610800              0.2325729
      6.2993048              0.4670787
      2.1270270              0.3634314
SP   3   1.00
      4.7279710             -0.1303938              0.0745976
      1.1903377             -0.1307889              0.3078467
      0.3594117              1.1309444              0.7434568
SP   1   1.00
      0.1267512              1.0000000              1.0000000
D    1   1.00
      0.8020000              1.0000000
D    1   1.00
      0.2005000              1.0000000
F    1   1.00
      0.5000000              1.0000000
****
C     0
S    6   1.00
   3047.5249000              0.0018347
    457.3695100              0.0140373
    103.9486900              0.0688426
     29.2101550              0.2321844
      9.2866630              0.4679413
      3.1639270              0.3623120
SP   3   1.00
      7.8682724             -0.1193324              0.0689991
      1.8812885             -0.1608542              0.3164240
      0.5442493              1.1434564              0.7443083
SP   1   1.00
      0.1687144              1.0000000              1.0000000
D    1   1.00
      1.2520000              1.0000000
D    1   1.00
      0.3130000              1.0000000
F    1   1.00
      0.8000000              1.0000000
****
N     0
S    6   1.00
   4173.5110000              0.0018348
    627.4579000              0.0139950
    142.9021000              0.0685870
     40.2343300              0.2322410
     12.8202100              0.4690700
      4.3904370              0.3604550
SP   3   1.00
     11.6263580             -0.1149610              0.0675800
      2.7162800             -0.1691180              0.3239070
      0.7722180              1.1458520              0.7408950
SP   1   1.00
      0.2120313              1.0000000              1.0000000
D    1   1.00
      1.8260000              1.0000000
D    1   1.00
      0.4565000              1.0000000
F    1   1.00
      1.0000000              1.0000000
****
O     0
S    6   1.00
   5484.6717000              0.0018311
    825.2349500              0.0139501
    188.0469600              0.0684451
     52.9645000              0.2327143
     16.8975700              0.4701930
      5.7996353              0.3585209
SP   3   1.00
     15.5396160             -0.1107775              0.0708743
      3.5999336             -0.1480263              0.3397528
      1.0137618              1.1307670              0.7271586
SP   1   1.00
      0.2700058              1.0000000              1.0000000
D    1   1.00
      2.5840000              1.0000000
D    1   1.00
      0.6460000              1.0000000
F    1   1.00
      1.4000000              1.0000000
****
F     0
S    6   1.00
   7001.7130900              0.0018196169
   1051.3660900              0.0139160796
    239.2856900              0.0684053245
     67.3974453              0.233185760
     21.5199573              0.471267439
      7.40310130             0.356618546
SP   3   1.00
     20.8479528             -0.108506975            0.0716287243
      4.80830834            -0.146451658            0.3459121030
      1.34406986             1.128688580            0.7224699570
SP   1   1.00
      0.358151393            1.0000000              1.0000000
D    1   1.00
      3.5000000              1.0000000
D    1   1.00
      0.8750000              1.0000000
F    1   1.00
      1.8500000              1.0000000
****
Al     0
S    6   1.00
  13983.1000000              0.00194267
   2098.7500000              0.0148599
    477.7050000              0.0728494
    134.3600000              0.2468300
     42.8709000              0.4872580
     14.5189000              0.3234960
SP   6   1.00
    239.6680000             -0.00292619             0.00460285
     57.4419000             -0.0374080              0.0331990
     18.2859000             -0.1144870              0.1362820
      6.5991400              0.1156350              0.3304760
      2.4904900              0.6125950              0.4491460
      0.9445400              0.3937990              0.2657040
SP   3   1.00
      1.2779000             -0.2276060             -0.0175130
      0.3975900              0.00144583             0.2445330
      0.1600950              1.0927900              0.8049340
SP   1   1.00
      0.0556577              1.0000000              1.0000000
D    1   1.00
      0.6500000              1.0000000
D    1   1.00
      0.1625000              1.0000000
F    1   1.00
      0.2500000              1.0000000
****
Si     0
S    6   1.00
  16115.9000000              0.00195948
   2425.5800000              0.01492880
    553.8670000              0.07284780
    156.3400000              0.24613000
     50.0683000              0.48591400
     17.0178000              0.32500200
SP   6   1.00
    292.7180000             -0.00278094             0.00443826
     69.8731000             -0.03571460             0.03266790
     22.3363000             -0.11498500             0.13472100
      8.1503900              0.09356340             0.32867800
      3.1345800              0.60301700             0.44964000
      1.2254300              0.41895900             0.26137200
SP   3   1.00
      1.7273800             -0.24463000            -0.01779510
      0.5729220              0.00431572             0.25353900
      0.2221920              1.09818000             0.80066900
SP   1   1.00
      0.0778369              1.00000000             1.00000000
D    1   1.00
      0.9000000              1.0000000
D    1   1.00
      0.2250000              1.0000000
F    1   1.00
      0.3200000              1.0000000
****
P     0
S    6   1.00
  19413.3000000              0.0018516
   2909.4200000              0.0142062
    661.3640000              0.0699995
    185.7590000              0.2400790
     59.1943000              0.4847620
     20.0310000              0.3352000
SP   6   1.00
    339.4780000             -0.00278217             0.00456462
     81.0101000             -0.0360499              0.03369360
     25.8780000             -0.1166310              0.13975500
      9.4522100              0.0968328              0.33936200
      3.6656600              0.6144180              0.45092100
      1.4674600              0.4037980              0.23858600
SP   3   1.00
      2.1562300             -0.2529230             -0.01776530
      0.7489970              0.0328517              0.27405800
      0.2831450              1.0812500              0.78542100
SP   1   1.00
      0.0998317              1.0000000              1.00000000
D    1   1.00
      1.1000000              1.0000000
D    1   1.00
      0.2750000              1.0000000
F    1   1.00
      0.4500000              1.0000000
****
S     0
S    6   1.00
  21917.1000000              0.0018690
   3301.4900000              0.0142300
    754.1460000              0.0696960
    212.7110000              0.2384870
     67.9896000              0.4833070
     23.0515000              0.3380740
SP   6   1.00
    423.7350000             -0.0023767              0.0040610
    100.7100000             -0.0316930              0.0306810
     32.1599000             -0.1133170              0.1304520
     11.8079000              0.0560900              0.3272050
      4.6311000              0.5922550              0.4528510
      1.8702500              0.4550060              0.2560420
SP   3   1.00
      2.6158400             -0.2503740             -0.0145110
      0.9221670              0.0669570              0.3102630
      0.3412870              1.0545100              0.7544830
SP   1   1.00
      0.1171670              1.0000000              1.0000000
D    1   1.00
      1.3000000              1.0000000
D    1   1.00
      0.3250000              1.0000000
F    1   1.00
      0.5500000              1.0000000
****
Cl     0
S    6   1.00
  25180.1000000              0.0018330
   3780.3500000              0.0140340
    860.4740000              0.0690970
    242.1450000              0.2374520
     77.3349000              0.4830340
     26.2470000              0.3398560
SP   6   1.00
    491.7650000             -0.0022974              0.0039894
    116.9840000             -0.0307140              0.0303180
     37.4153000             -0.1125280              0.1298800
     13.7834000              0.0450160              0.3279510
      5.4521500              0.5893530              0.4535270
      2.2258800              0.4652060              0.2521540
SP   3   1.00
      3.1864900             -0.2518300             -0.0142990
      1.1442700              0.0615890              0.3235720
      0.4203770              1.0601800              0.7435070
SP   1   1.00
      0.1426570              1.0000000              1.0000000
D    1   1.00
      1.5000000              1.0000000
D    1   1.00
      0.3750000              1.0000000
F    1   1.00
      0.7000000              1.0000000
****
}

set {
reference uhf
freeze_core true
e_convergence 10
d_convergence 10
dft_spherical_points 1202
dft_radial_points 99
}

e = energy('b3lyp')

print_out('Grab this energy {0}'.format(e))
--------------------------------------------------------------------------

    Molecular point group: c1

    Geometry (in Bohr), charge = 0, multiplicity = 2:

       Center              X                  Y                   Z               Mass
    ------------   -----------------  -----------------  -----------------  -----------------
         C           -0.264655706798     0.802133283072    -0.000000001750    12.000000000000
         O           -2.187402932498    -0.334706539928     0.000000008150    15.994914619570
         C            2.410147668102    -0.242180731328     0.000000008150    12.000000000000
         H            2.386982294402    -2.304358239028     0.000000028250     1.007825032230
         H            3.391342013302     0.474567321972    -1.663916287050     1.007825032230
         H            3.391342363302     0.474567491872     1.663916053250     1.007825032230

  Charge       = 0
  Multiplicity = 2
  Basis Set: ANONYMOUSBF17BE2C
    Blend: 6-31G_2DFP_
  Basis Set: (ANONYMOUSBF17BE2C AUX)
    Blend: DEF2-UNIVERSAL-JKFIT

    Orbital Energies [Eh]
    ---------------------

    Alpha Occupied:

       1A    -19.186919     2A    -10.270843     3A    -10.210097
       4A     -1.083894     5A     -0.761291     6A     -0.543646
       7A     -0.467171     8A     -0.457617     9A     -0.456279
      10A     -0.388573    11A     -0.386891    12A     -0.191021

    Alpha Virtual:

      13A     -0.017570    14A      0.091930    15A      0.137346
      16A      0.141412    17A      0.217852    18A      0.268414
      19A      0.428220    20A      0.432105    21A      0.443660
      22A      0.493524    23A      0.506309    24A      0.530675
      25A      0.562933    26A      0.577661    27A      0.611166
      28A      0.615756    29A      0.644547    30A      0.718604
      31A      0.766467    32A      0.785660    33A      0.832536
      34A      0.916274    35A      0.926039    36A      0.935293
      37A      1.023538    38A      1.085881    39A      1.108520
      40A      1.153209    41A      1.221435    42A      1.306219
      43A      1.316645    44A      1.327391    45A      1.403963
      46A      1.407769    47A      1.468724    48A      1.559641
      49A      1.632661    50A      1.655315    51A      1.721489
      52A      1.813907    53A      1.835119    54A      1.901666
      55A      2.066693    56A      2.167817    57A      2.502207
      58A      2.680097    59A      2.744022    60A      2.784070
      61A      2.843200    62A      2.894859    63A      2.974084
      64A      3.031956    65A      3.059255    66A      3.104179
      67A      3.114874    68A      3.182176    69A      3.313936
      70A      3.371963    71A      3.393389    72A      3.441041
      73A      3.465944    74A      3.486970    75A      3.570126
      76A      3.745108    77A      3.761766    78A      3.942903
      79A      3.979852    80A      4.057249    81A      4.109231
      82A      4.120104    83A      4.190454    84A      4.388161
      85A      4.432767    86A      4.448890    87A      4.532109
      88A      4.918857    89A      5.037124    90A      5.042553
      91A      5.198481    92A      5.208029    93A      5.480103
      94A      5.488755    95A      5.825049    96A      5.937547
      97A      6.109594    98A      6.771083    99A      6.773401
     100A      7.070075   101A      7.135290   102A      7.533108

    Beta Occupied:

       1A    -19.178877     2A    -10.260811     3A    -10.206676
       4A     -1.068071     5A     -0.749466     6A     -0.523998
       7A     -0.451648     8A     -0.446673     9A     -0.439622
      10A     -0.383474    11A     -0.349048

    Beta Virtual:

      12A     -0.051681    13A     -0.001323    14A      0.094659
      15A      0.143025    16A      0.144564    17A      0.228402
      18A      0.274017    19A      0.434102    20A      0.435519
      21A      0.465588    22A      0.500220    23A      0.527861
      24A      0.539515    25A      0.569334    26A      0.581833
      27A      0.622968    28A      0.629257    29A      0.650644
      30A      0.740846    31A      0.777530    32A      0.795520
      33A      0.833315    34A      0.921127    35A      0.942748
      36A      0.950174    37A      1.027746    38A      1.092023
      39A      1.110568    40A      1.159416    41A      1.230757
      42A      1.311790    43A      1.319466    44A      1.334172
      45A      1.413322    46A      1.414344    47A      1.481043
      48A      1.570649    49A      1.646110    50A      1.669689
      51A      1.727696    52A      1.817083    53A      1.849318
      54A      1.908350    55A      2.073389    56A      2.189159
      57A      2.514919    58A      2.694369    59A      2.758527
      60A      2.805141    61A      2.858568    62A      2.896511
      63A      2.983619    64A      3.048830    65A      3.067849
      66A      3.122958    67A      3.123355    68A      3.216883
      69A      3.357323    70A      3.383435    71A      3.399756
      72A      3.450209    73A      3.480729    74A      3.509909
      75A      3.583477    76A      3.770794    77A      3.771234
      78A      3.951604    79A      3.989194    80A      4.073653
      81A      4.122910    82A      4.123987    83A      4.202008
      84A      4.390431    85A      4.438917    86A      4.453078
      87A      4.543018    88A      4.922729    89A      5.054589
      90A      5.060511    91A      5.200618    92A      5.213753
      93A      5.492675    94A      5.502661    95A      5.838273
      96A      5.943129    97A      6.132733    98A      6.800289
      99A      6.802943   100A      7.074355   101A      7.164563
     102A      7.544724

    Final Occupation by Irrep:
              A
    DOCC [    11 ]
    SOCC [     1 ]

  @DF-UKS Final Energy:  -153.18845094260874

   => Energetics <=

    Nuclear Repulsion Energy =             62.8635605452646757
    One-Electron Energy =                -331.7194047779021275
    Two-Electron Energy =                 132.2505958174040757
    DFT Exchange-Correlation Energy =     -16.5832025273753807
    Empirical Dispersion Energy =           0.0000000000000000
    VV10 Nonlocal Energy =                  0.0000000000000000
    Total Energy =                       -153.1884509426087391

  UHF NO Occupations:
  HONO-2 :   10  A 1.9997809
  HONO-1 :   11  A 1.9992098
  HONO-0 :   12  A 1.0000000
  LUNO+0 :   13  A 0.0007902
  LUNO+1 :   14  A 0.0002191
  LUNO+2 :   15  A 0.0001777
  LUNO+3 :   16  A 0.0000611

Computation Completed

Properties will be evaluated at   0.000000,   0.000000,   0.000000 [a0]

Properties computed using the SCF density matrix

  Nuclear Dipole Moment: [e a0]
     X:     4.5434      Y:    -0.6732      Z:    -0.0000

  Electronic Dipole Moment: [e a0]
     X:    -3.6205      Y:     0.6233      Z:     0.0000

  Dipole Moment: [e a0]
     X:     0.9229      Y:    -0.0499      Z:    -0.0000     Total:     0.9243

  Dipole Moment: [D]
     X:     2.3459      Y:    -0.1268      Z:    -0.0000     Total:     2.3493

*** tstop() called on n036 at Thu Nov  4 14:54:05 2021
Module time:
	user time   =      62.33 seconds =       1.04 minutes
	system time =       0.43 seconds =       0.01 minutes
	total time  =         63 seconds =       1.05 minutes
Total time:
	user time   =      62.33 seconds =       1.04 minutes
	system time =       0.43 seconds =       0.01 minutes
	total time  =         63 seconds =       1.05 minutes
Grab this energy -153.18845094260874
    Psi4 stopped on: Thursday, 04 November 2021 02:54PM
    Psi4 wall time for execution: 0:01:02.80

*** Psi4 exiting successfully. Buy a developer a beer!
