                               Psi4 1.4a2.dev629

  ==> Input File <==

--------------------------------------------------------------------------
import os
memory 14 GB

molecule {
 C   -0.2619358322    0.8103160072   -0.0010380375
 O   -2.1907948973   -0.3345069064   -0.0040751703
 C    2.4103716581   -0.2457394169    0.0008007332
 H    2.3865331379   -2.3087688223    0.0033281178
 H    3.3835032826    0.4686049792   -1.6642194054
 H    3.3969606331    0.4644598070    1.6652037623
units bohr
0 2
}

basis {

assign 6-31g_2dfp_

[ 6-31g_2dfp_ ]

spherical

!----------------------------------------------------------------------
! Basis Set Exchange
! Version v0.8.13
! https://www.basissetexchange.org
!----------------------------------------------------------------------
!   Basis set: 6-31G(2df,p)
! Description: 6-31G(2df,p)
!        Role: orbital
!     Version: 0  (Data from the original Basis Set Exchange)
!----------------------------------------------------------------------

****
H     0
S    3   1.00
     18.7311370              0.03349460
      2.8253937              0.23472695
      0.6401217              0.81375733
S    1   1.00
      0.1612778              1.00000000
P    1   1.00
      1.5000000              1.0000000
P    1   1.00
      0.3750000              1.0000000
****
B     0
S    6   1.00
   2068.8823000              0.0018663
    310.6495700              0.0142515
     70.6830330              0.0695516
     19.8610800              0.2325729
      6.2993048              0.4670787
      2.1270270              0.3634314
SP   3   1.00
      4.7279710             -0.1303938              0.0745976
      1.1903377             -0.1307889              0.3078467
      0.3594117              1.1309444              0.7434568
SP   1   1.00
      0.1267512              1.0000000              1.0000000
D    1   1.00
      0.8020000              1.0000000
D    1   1.00
      0.2005000              1.0000000
F    1   1.00
      0.5000000              1.0000000
****
C     0
S    6   1.00
   3047.5249000              0.0018347
    457.3695100              0.0140373
    103.9486900              0.0688426
     29.2101550              0.2321844
      9.2866630              0.4679413
      3.1639270              0.3623120
SP   3   1.00
      7.8682724             -0.1193324              0.0689991
      1.8812885             -0.1608542              0.3164240
      0.5442493              1.1434564              0.7443083
SP   1   1.00
      0.1687144              1.0000000              1.0000000
D    1   1.00
      1.2520000              1.0000000
D    1   1.00
      0.3130000              1.0000000
F    1   1.00
      0.8000000              1.0000000
****
N     0
S    6   1.00
   4173.5110000              0.0018348
    627.4579000              0.0139950
    142.9021000              0.0685870
     40.2343300              0.2322410
     12.8202100              0.4690700
      4.3904370              0.3604550
SP   3   1.00
     11.6263580             -0.1149610              0.0675800
      2.7162800             -0.1691180              0.3239070
      0.7722180              1.1458520              0.7408950
SP   1   1.00
      0.2120313              1.0000000              1.0000000
D    1   1.00
      1.8260000              1.0000000
D    1   1.00
      0.4565000              1.0000000
F    1   1.00
      1.0000000              1.0000000
****
O     0
S    6   1.00
   5484.6717000              0.0018311
    825.2349500              0.0139501
    188.0469600              0.0684451
     52.9645000              0.2327143
     16.8975700              0.4701930
      5.7996353              0.3585209
SP   3   1.00
     15.5396160             -0.1107775              0.0708743
      3.5999336             -0.1480263              0.3397528
      1.0137618              1.1307670              0.7271586
SP   1   1.00
      0.2700058              1.0000000              1.0000000
D    1   1.00
      2.5840000              1.0000000
D    1   1.00
      0.6460000              1.0000000
F    1   1.00
      1.4000000              1.0000000
****
F     0
S    6   1.00
   7001.7130900              0.0018196169
   1051.3660900              0.0139160796
    239.2856900              0.0684053245
     67.3974453              0.233185760
     21.5199573              0.471267439
      7.40310130             0.356618546
SP   3   1.00
     20.8479528             -0.108506975            0.0716287243
      4.80830834            -0.146451658            0.3459121030
      1.34406986             1.128688580            0.7224699570
SP   1   1.00
      0.358151393            1.0000000              1.0000000
D    1   1.00
      3.5000000              1.0000000
D    1   1.00
      0.8750000              1.0000000
F    1   1.00
      1.8500000              1.0000000
****
Al     0
S    6   1.00
  13983.1000000              0.00194267
   2098.7500000              0.0148599
    477.7050000              0.0728494
    134.3600000              0.2468300
     42.8709000              0.4872580
     14.5189000              0.3234960
SP   6   1.00
    239.6680000             -0.00292619             0.00460285
     57.4419000             -0.0374080              0.0331990
     18.2859000             -0.1144870              0.1362820
      6.5991400              0.1156350              0.3304760
      2.4904900              0.6125950              0.4491460
      0.9445400              0.3937990              0.2657040
SP   3   1.00
      1.2779000             -0.2276060             -0.0175130
      0.3975900              0.00144583             0.2445330
      0.1600950              1.0927900              0.8049340
SP   1   1.00
      0.0556577              1.0000000              1.0000000
D    1   1.00
      0.6500000              1.0000000
D    1   1.00
      0.1625000              1.0000000
F    1   1.00
      0.2500000              1.0000000
****
Si     0
S    6   1.00
  16115.9000000              0.00195948
   2425.5800000              0.01492880
    553.8670000              0.07284780
    156.3400000              0.24613000
     50.0683000              0.48591400
     17.0178000              0.32500200
SP   6   1.00
    292.7180000             -0.00278094             0.00443826
     69.8731000             -0.03571460             0.03266790
     22.3363000             -0.11498500             0.13472100
      8.1503900              0.09356340             0.32867800
      3.1345800              0.60301700             0.44964000
      1.2254300              0.41895900             0.26137200
SP   3   1.00
      1.7273800             -0.24463000            -0.01779510
      0.5729220              0.00431572             0.25353900
      0.2221920              1.09818000             0.80066900
SP   1   1.00
      0.0778369              1.00000000             1.00000000
D    1   1.00
      0.9000000              1.0000000
D    1   1.00
      0.2250000              1.0000000
F    1   1.00
      0.3200000              1.0000000
****
P     0
S    6   1.00
  19413.3000000              0.0018516
   2909.4200000              0.0142062
    661.3640000              0.0699995
    185.7590000              0.2400790
     59.1943000              0.4847620
     20.0310000              0.3352000
SP   6   1.00
    339.4780000             -0.00278217             0.00456462
     81.0101000             -0.0360499              0.03369360
     25.8780000             -0.1166310              0.13975500
      9.4522100              0.0968328              0.33936200
      3.6656600              0.6144180              0.45092100
      1.4674600              0.4037980              0.23858600
SP   3   1.00
      2.1562300             -0.2529230             -0.01776530
      0.7489970              0.0328517              0.27405800
      0.2831450              1.0812500              0.78542100
SP   1   1.00
      0.0998317              1.0000000              1.00000000
D    1   1.00
      1.1000000              1.0000000
D    1   1.00
      0.2750000              1.0000000
F    1   1.00
      0.4500000              1.0000000
****
S     0
S    6   1.00
  21917.1000000              0.0018690
   3301.4900000              0.0142300
    754.1460000              0.0696960
    212.7110000              0.2384870
     67.9896000              0.4833070
     23.0515000              0.3380740
SP   6   1.00
    423.7350000             -0.0023767              0.0040610
    100.7100000             -0.0316930              0.0306810
     32.1599000             -0.1133170              0.1304520
     11.8079000              0.0560900              0.3272050
      4.6311000              0.5922550              0.4528510
      1.8702500              0.4550060              0.2560420
SP   3   1.00
      2.6158400             -0.2503740             -0.0145110
      0.9221670              0.0669570              0.3102630
      0.3412870              1.0545100              0.7544830
SP   1   1.00
      0.1171670              1.0000000              1.0000000
D    1   1.00
      1.3000000              1.0000000
D    1   1.00
      0.3250000              1.0000000
F    1   1.00
      0.5500000              1.0000000
****
Cl     0
S    6   1.00
  25180.1000000              0.0018330
   3780.3500000              0.0140340
    860.4740000              0.0690970
    242.1450000              0.2374520
     77.3349000              0.4830340
     26.2470000              0.3398560
SP   6   1.00
    491.7650000             -0.0022974              0.0039894
    116.9840000             -0.0307140              0.0303180
     37.4153000             -0.1125280              0.1298800
     13.7834000              0.0450160              0.3279510
      5.4521500              0.5893530              0.4535270
      2.2258800              0.4652060              0.2521540
SP   3   1.00
      3.1864900             -0.2518300             -0.0142990
      1.1442700              0.0615890              0.3235720
      0.4203770              1.0601800              0.7435070
SP   1   1.00
      0.1426570              1.0000000              1.0000000
D    1   1.00
      1.5000000              1.0000000
D    1   1.00
      0.3750000              1.0000000
F    1   1.00
      0.7000000              1.0000000
****
}

set {
reference uhf
freeze_core true
e_convergence 10
d_convergence 10
dft_spherical_points 1202
dft_radial_points 99
}

e = energy('b3lyp')

print_out('Grab this energy {0}'.format(e))
--------------------------------------------------------------------------

    Molecular point group: c1

    Geometry (in Bohr), charge = 0, multiplicity = 2:

       Center              X                  Y                   Z               Mass
    ------------   -----------------  -----------------  -----------------  -----------------
         C           -0.261433295502     0.809431717672     0.000442339452    12.000000000000
         O           -2.190292360602    -0.335391195928    -0.002594793348    15.994914619570
         C            2.410874194798    -0.246623706428     0.002281110152    12.000000000000
         H            2.387035674598    -2.309653111828     0.004808494752     1.007825032230
         H            3.384005819298     0.467720689672    -1.662739028448     1.007825032230
         H            3.397463169798     0.463575517472     1.666684139252     1.007825032230

  Charge       = 0
  Multiplicity = 2
  Basis Set: ANONYMOUS348A0ADC
    Blend: 6-31G_2DFP_
  Basis Set: (ANONYMOUS348A0ADC AUX)
    Blend: DEF2-UNIVERSAL-JKFIT

    Orbital Energies [Eh]
    ---------------------

    Alpha Occupied:

       1A    -19.187142     2A    -10.271934     3A    -10.210334
       4A     -1.081344     5A     -0.761402     6A     -0.544058
       7A     -0.466172     8A     -0.457398     9A     -0.456113
      10A     -0.387717    11A     -0.385935    12A     -0.192811

    Alpha Virtual:

      13A     -0.019024    14A      0.091942    15A      0.137025
      16A      0.141438    17A      0.216969    18A      0.268179
      19A      0.428222    20A      0.431970    21A      0.443416
      22A      0.493429    23A      0.506321    24A      0.530272
      25A      0.563201    26A      0.577584    27A      0.607606
      28A      0.615384    29A      0.643946    30A      0.717747
      31A      0.766563    32A      0.785287    33A      0.832673
      34A      0.917084    35A      0.926891    36A      0.935753
      37A      1.022412    38A      1.085978    39A      1.107619
      40A      1.152719    41A      1.220652    42A      1.305434
      43A      1.317402    44A      1.327014    45A      1.403546
      46A      1.406792    47A      1.467016    48A      1.559261
      49A      1.628839    50A      1.653476    51A      1.720463
      52A      1.813700    53A      1.833741    54A      1.901716
      55A      2.063915    56A      2.163472    57A      2.495367
      58A      2.679731    59A      2.743022    60A      2.783591
      61A      2.842739    62A      2.895135    63A      2.971954
      64A      3.032989    65A      3.058622    66A      3.105568
      67A      3.113223    68A      3.183523    69A      3.314101
      70A      3.369717    71A      3.394494    72A      3.438699
      73A      3.464578    74A      3.486299    75A      3.571480
      76A      3.737754    77A      3.758601    78A      3.942074
      79A      3.979928    80A      4.052635    81A      4.107442
      82A      4.121427    83A      4.188662    84A      4.389997
      85A      4.430779    86A      4.447447    87A      4.531532
      88A      4.918989    89A      5.036964    90A      5.041949
      91A      5.198823    92A      5.208493    93A      5.472757
      94A      5.480844    95A      5.825601    96A      5.929143
      97A      6.101662    98A      6.770282    99A      6.772409
     100A      7.070135   101A      7.134979   102A      7.529250

    Beta Occupied:

       1A    -19.179059     2A    -10.261897     3A    -10.206924
       4A     -1.065398     5A     -0.749601     6A     -0.524290
       7A     -0.451699     8A     -0.446518     9A     -0.438584
      10A     -0.382521    11A     -0.347797

    Beta Virtual:

      12A     -0.053458    13A     -0.002727    14A      0.094650
      15A      0.142679    16A      0.144550    17A      0.227551
      18A      0.273873    19A      0.433861    20A      0.435908
      21A      0.465078    22A      0.500113    23A      0.527753
      24A      0.539111    25A      0.569678    26A      0.581753
      27A      0.622490    28A      0.626262    29A      0.649534
      30A      0.739579    31A      0.777682    32A      0.795275
      33A      0.833431    34A      0.921918    35A      0.943672
      36A      0.950742    37A      1.026600    38A      1.092070
      39A      1.109744    40A      1.158973    41A      1.229875
      42A      1.311010    43A      1.320293    44A      1.333807
      45A      1.412306    46A      1.413948    47A      1.479380
      48A      1.570567    49A      1.642006    50A      1.667881
      51A      1.726665    52A      1.816800    53A      1.847829
      54A      1.908386    55A      2.070631    56A      2.184862
      57A      2.508061    58A      2.694016    59A      2.757428
      60A      2.804705    61A      2.857960    62A      2.896782
      63A      2.981524    64A      3.049614    65A      3.067174
      66A      3.121311    67A      3.124549    68A      3.218146
      69A      3.357757    70A      3.381157    71A      3.400753
      72A      3.447247    73A      3.480138    74A      3.509428
      75A      3.584694    76A      3.763185    77A      3.768335
      78A      3.950801    79A      3.989263    80A      4.069166
      81A      4.122585    82A      4.124236    83A      4.199900
      84A      4.392264    85A      4.436932    86A      4.451640
      87A      4.542376    88A      4.922886    89A      5.054507
      90A      5.060009    91A      5.200994    92A      5.214161
      93A      5.485411    94A      5.494749    95A      5.838842
      96A      5.934730    97A      6.124888    98A      6.799647
      99A      6.802113   100A      7.074439   101A      7.164406
     102A      7.540931

    Final Occupation by Irrep:
              A
    DOCC [    11 ]
    SOCC [     1 ]

  @DF-UKS Final Energy:  -153.18841202268098

   => Energetics <=

    Nuclear Repulsion Energy =             62.7576029016779486
    One-Electron Energy =                -331.5157385420054084
    Two-Electron Energy =                 132.1494496948764663
    DFT Exchange-Correlation Energy =     -16.5797260772300028
    Empirical Dispersion Energy =           0.0000000000000000
    VV10 Nonlocal Energy =                  0.0000000000000000
    Total Energy =                       -153.1884120226809785

  UHF NO Occupations:
  HONO-2 :   10  A 1.9997803
  HONO-1 :   11  A 1.9992004
  HONO-0 :   12  A 1.0000000
  LUNO+0 :   13  A 0.0007996
  LUNO+1 :   14  A 0.0002197
  LUNO+2 :   15  A 0.0001786
  LUNO+3 :   16  A 0.0000618

Computation Completed

Properties will be evaluated at   0.000000,   0.000000,   0.000000 [a0]

Properties computed using the SCF density matrix

  Nuclear Dipole Moment: [e a0]
     X:     4.5428      Y:    -0.6846      Z:     0.0043

  Electronic Dipole Moment: [e a0]
     X:    -3.6145      Y:     0.6344      Z:    -0.0034

  Dipole Moment: [e a0]
     X:     0.9283      Y:    -0.0503      Z:     0.0010     Total:     0.9297

  Dipole Moment: [D]
     X:     2.3596      Y:    -0.1278      Z:     0.0024     Total:     2.3631

*** tstop() called on n044 at Tue Mar 15 10:34:07 2022
Module time:
	user time   =      62.58 seconds =       1.04 minutes
	system time =       0.41 seconds =       0.01 minutes
	total time  =         63 seconds =       1.05 minutes
Total time:
	user time   =      62.58 seconds =       1.04 minutes
	system time =       0.41 seconds =       0.01 minutes
	total time  =         63 seconds =       1.05 minutes
Grab this energy -153.18841202268098
    Psi4 stopped on: Tuesday, 15 March 2022 10:34AM
    Psi4 wall time for execution: 0:01:03.05

*** Psi4 exiting successfully. Buy a developer a beer!
