                               Psi4 1.4a2.dev629

  ==> Input File <==

--------------------------------------------------------------------------
import os
memory 14 GB

molecule {
 C   -0.2603109388    0.8032942179   -0.0000000005
 O   -2.1906182576   -0.3365407446    0.0000000102
 C    2.4105229295   -0.2386747804    0.0000000112
 H    2.3867737149   -2.3051670609    0.0000000295
 H    3.3901150759    0.4736114090   -1.6644832347
 H    3.3901154261    0.4736115791    1.6644830043
units bohr
0 2
}

basis {

assign 6-31g_2dfp_

[ 6-31g_2dfp_ ]

spherical

!----------------------------------------------------------------------
! Basis Set Exchange
! Version v0.8.13
! https://www.basissetexchange.org
!----------------------------------------------------------------------
!   Basis set: 6-31G(2df,p)
! Description: 6-31G(2df,p)
!        Role: orbital
!     Version: 0  (Data from the original Basis Set Exchange)
!----------------------------------------------------------------------

****
H     0
S    3   1.00
     18.7311370              0.03349460
      2.8253937              0.23472695
      0.6401217              0.81375733
S    1   1.00
      0.1612778              1.00000000
P    1   1.00
      1.5000000              1.0000000
P    1   1.00
      0.3750000              1.0000000
****
B     0
S    6   1.00
   2068.8823000              0.0018663
    310.6495700              0.0142515
     70.6830330              0.0695516
     19.8610800              0.2325729
      6.2993048              0.4670787
      2.1270270              0.3634314
SP   3   1.00
      4.7279710             -0.1303938              0.0745976
      1.1903377             -0.1307889              0.3078467
      0.3594117              1.1309444              0.7434568
SP   1   1.00
      0.1267512              1.0000000              1.0000000
D    1   1.00
      0.8020000              1.0000000
D    1   1.00
      0.2005000              1.0000000
F    1   1.00
      0.5000000              1.0000000
****
C     0
S    6   1.00
   3047.5249000              0.0018347
    457.3695100              0.0140373
    103.9486900              0.0688426
     29.2101550              0.2321844
      9.2866630              0.4679413
      3.1639270              0.3623120
SP   3   1.00
      7.8682724             -0.1193324              0.0689991
      1.8812885             -0.1608542              0.3164240
      0.5442493              1.1434564              0.7443083
SP   1   1.00
      0.1687144              1.0000000              1.0000000
D    1   1.00
      1.2520000              1.0000000
D    1   1.00
      0.3130000              1.0000000
F    1   1.00
      0.8000000              1.0000000
****
N     0
S    6   1.00
   4173.5110000              0.0018348
    627.4579000              0.0139950
    142.9021000              0.0685870
     40.2343300              0.2322410
     12.8202100              0.4690700
      4.3904370              0.3604550
SP   3   1.00
     11.6263580             -0.1149610              0.0675800
      2.7162800             -0.1691180              0.3239070
      0.7722180              1.1458520              0.7408950
SP   1   1.00
      0.2120313              1.0000000              1.0000000
D    1   1.00
      1.8260000              1.0000000
D    1   1.00
      0.4565000              1.0000000
F    1   1.00
      1.0000000              1.0000000
****
O     0
S    6   1.00
   5484.6717000              0.0018311
    825.2349500              0.0139501
    188.0469600              0.0684451
     52.9645000              0.2327143
     16.8975700              0.4701930
      5.7996353              0.3585209
SP   3   1.00
     15.5396160             -0.1107775              0.0708743
      3.5999336             -0.1480263              0.3397528
      1.0137618              1.1307670              0.7271586
SP   1   1.00
      0.2700058              1.0000000              1.0000000
D    1   1.00
      2.5840000              1.0000000
D    1   1.00
      0.6460000              1.0000000
F    1   1.00
      1.4000000              1.0000000
****
F     0
S    6   1.00
   7001.7130900              0.0018196169
   1051.3660900              0.0139160796
    239.2856900              0.0684053245
     67.3974453              0.233185760
     21.5199573              0.471267439
      7.40310130             0.356618546
SP   3   1.00
     20.8479528             -0.108506975            0.0716287243
      4.80830834            -0.146451658            0.3459121030
      1.34406986             1.128688580            0.7224699570
SP   1   1.00
      0.358151393            1.0000000              1.0000000
D    1   1.00
      3.5000000              1.0000000
D    1   1.00
      0.8750000              1.0000000
F    1   1.00
      1.8500000              1.0000000
****
Al     0
S    6   1.00
  13983.1000000              0.00194267
   2098.7500000              0.0148599
    477.7050000              0.0728494
    134.3600000              0.2468300
     42.8709000              0.4872580
     14.5189000              0.3234960
SP   6   1.00
    239.6680000             -0.00292619             0.00460285
     57.4419000             -0.0374080              0.0331990
     18.2859000             -0.1144870              0.1362820
      6.5991400              0.1156350              0.3304760
      2.4904900              0.6125950              0.4491460
      0.9445400              0.3937990              0.2657040
SP   3   1.00
      1.2779000             -0.2276060             -0.0175130
      0.3975900              0.00144583             0.2445330
      0.1600950              1.0927900              0.8049340
SP   1   1.00
      0.0556577              1.0000000              1.0000000
D    1   1.00
      0.6500000              1.0000000
D    1   1.00
      0.1625000              1.0000000
F    1   1.00
      0.2500000              1.0000000
****
Si     0
S    6   1.00
  16115.9000000              0.00195948
   2425.5800000              0.01492880
    553.8670000              0.07284780
    156.3400000              0.24613000
     50.0683000              0.48591400
     17.0178000              0.32500200
SP   6   1.00
    292.7180000             -0.00278094             0.00443826
     69.8731000             -0.03571460             0.03266790
     22.3363000             -0.11498500             0.13472100
      8.1503900              0.09356340             0.32867800
      3.1345800              0.60301700             0.44964000
      1.2254300              0.41895900             0.26137200
SP   3   1.00
      1.7273800             -0.24463000            -0.01779510
      0.5729220              0.00431572             0.25353900
      0.2221920              1.09818000             0.80066900
SP   1   1.00
      0.0778369              1.00000000             1.00000000
D    1   1.00
      0.9000000              1.0000000
D    1   1.00
      0.2250000              1.0000000
F    1   1.00
      0.3200000              1.0000000
****
P     0
S    6   1.00
  19413.3000000              0.0018516
   2909.4200000              0.0142062
    661.3640000              0.0699995
    185.7590000              0.2400790
     59.1943000              0.4847620
     20.0310000              0.3352000
SP   6   1.00
    339.4780000             -0.00278217             0.00456462
     81.0101000             -0.0360499              0.03369360
     25.8780000             -0.1166310              0.13975500
      9.4522100              0.0968328              0.33936200
      3.6656600              0.6144180              0.45092100
      1.4674600              0.4037980              0.23858600
SP   3   1.00
      2.1562300             -0.2529230             -0.01776530
      0.7489970              0.0328517              0.27405800
      0.2831450              1.0812500              0.78542100
SP   1   1.00
      0.0998317              1.0000000              1.00000000
D    1   1.00
      1.1000000              1.0000000
D    1   1.00
      0.2750000              1.0000000
F    1   1.00
      0.4500000              1.0000000
****
S     0
S    6   1.00
  21917.1000000              0.0018690
   3301.4900000              0.0142300
    754.1460000              0.0696960
    212.7110000              0.2384870
     67.9896000              0.4833070
     23.0515000              0.3380740
SP   6   1.00
    423.7350000             -0.0023767              0.0040610
    100.7100000             -0.0316930              0.0306810
     32.1599000             -0.1133170              0.1304520
     11.8079000              0.0560900              0.3272050
      4.6311000              0.5922550              0.4528510
      1.8702500              0.4550060              0.2560420
SP   3   1.00
      2.6158400             -0.2503740             -0.0145110
      0.9221670              0.0669570              0.3102630
      0.3412870              1.0545100              0.7544830
SP   1   1.00
      0.1171670              1.0000000              1.0000000
D    1   1.00
      1.3000000              1.0000000
D    1   1.00
      0.3250000              1.0000000
F    1   1.00
      0.5500000              1.0000000
****
Cl     0
S    6   1.00
  25180.1000000              0.0018330
   3780.3500000              0.0140340
    860.4740000              0.0690970
    242.1450000              0.2374520
     77.3349000              0.4830340
     26.2470000              0.3398560
SP   6   1.00
    491.7650000             -0.0022974              0.0039894
    116.9840000             -0.0307140              0.0303180
     37.4153000             -0.1125280              0.1298800
     13.7834000              0.0450160              0.3279510
      5.4521500              0.5893530              0.4535270
      2.2258800              0.4652060              0.2521540
SP   3   1.00
      3.1864900             -0.2518300             -0.0142990
      1.1442700              0.0615890              0.3235720
      0.4203770              1.0601800              0.7435070
SP   1   1.00
      0.1426570              1.0000000              1.0000000
D    1   1.00
      1.5000000              1.0000000
D    1   1.00
      0.3750000              1.0000000
F    1   1.00
      0.7000000              1.0000000
****
}

set {
reference uhf
freeze_core true
e_convergence 10
d_convergence 10
dft_spherical_points 1202
dft_radial_points 99
}

e = energy('b3lyp')

print_out('Grab this energy {0}'.format(e))
--------------------------------------------------------------------------

    Molecular point group: c1

    Geometry (in Bohr), charge = 0, multiplicity = 2:

       Center              X                  Y                   Z               Mass
    ------------   -----------------  -----------------  -----------------  -----------------
         C           -0.260369709349     0.802738112817    -0.000000002571    12.000000000000
         O           -2.190677028149    -0.337096849683     0.000000008129    15.994914619570
         C            2.410464158951    -0.239230885483     0.000000009129    12.000000000000
         H            2.386714944351    -2.305723165983     0.000000027429     1.007825032230
         H            3.390056305351     0.473055303917    -1.664483236771     1.007825032230
         H            3.390056655551     0.473055474017     1.664483002229     1.007825032230

  Charge       = 0
  Multiplicity = 2
  Basis Set: ANONYMOUSF5D34322
    Blend: 6-31G_2DFP_
  Basis Set: (ANONYMOUSF5D34322 AUX)
    Blend: DEF2-UNIVERSAL-JKFIT

    Orbital Energies [Eh]
    ---------------------

    Alpha Occupied:

       1A    -19.186871     2A    -10.271486     3A    -10.210388
       4A     -1.081462     5A     -0.762044     6A     -0.543934
       7A     -0.466540     8A     -0.457305     9A     -0.456574
      10A     -0.387703    11A     -0.386019    12A     -0.191825

    Alpha Virtual:

      13A     -0.018797    14A      0.091784    15A      0.136505
      16A      0.141539    17A      0.218095    18A      0.268276
      19A      0.428262    20A      0.431517    21A      0.443883
      22A      0.493546    23A      0.506214    24A      0.530035
      25A      0.563047    26A      0.577368    27A      0.608770
      28A      0.616171    29A      0.644000    30A      0.717745
      31A      0.766040    32A      0.785347    33A      0.832278
      34A      0.917199    35A      0.927213    36A      0.935628
      37A      1.023206    38A      1.085072    39A      1.107376
      40A      1.153932    41A      1.223083    42A      1.306297
      43A      1.317479    44A      1.327241    45A      1.402740
      46A      1.407160    47A      1.468274    48A      1.559436
      49A      1.630869    50A      1.653978    51A      1.720135
      52A      1.814044    53A      1.834583    54A      1.900706
      55A      2.065723    56A      2.167267    57A      2.495993
      58A      2.680738    59A      2.744371    60A      2.783965
      61A      2.841805    62A      2.894979    63A      2.973827
      64A      3.030170    65A      3.057821    66A      3.104471
      67A      3.115863    68A      3.181904    69A      3.314499
      70A      3.369268    71A      3.393124    72A      3.440196
      73A      3.466222    74A      3.486113    75A      3.570155
      76A      3.740291    77A      3.762138    78A      3.944002
      79A      3.981696    80A      4.056466    81A      4.109591
      82A      4.119983    83A      4.189752    84A      4.391962
      85A      4.433800    86A      4.446962    87A      4.532212
      88A      4.918778    89A      5.037091    90A      5.042342
      91A      5.198733    92A      5.206650    93A      5.474268
      94A      5.483242    95A      5.826721    96A      5.931076
      97A      6.105043    98A      6.770754    99A      6.772973
     100A      7.071180   101A      7.134978   102A      7.530280

    Beta Occupied:

       1A    -19.178815     2A    -10.261421     3A    -10.207017
       4A     -1.065553     5A     -0.750257     6A     -0.524251
       7A     -0.452042     8A     -0.446463     9A     -0.439087
      10A     -0.382528    11A     -0.347940

    Beta Virtual:

      12A     -0.052358    13A     -0.002526    14A      0.094508
      15A      0.142227    16A      0.144655    17A      0.228513
      18A      0.273944    19A      0.433509    20A      0.435421
      21A      0.465942    22A      0.500249    23A      0.527540
      24A      0.539005    25A      0.569443    26A      0.581557
      27A      0.623346    28A      0.627340    29A      0.649752
      30A      0.739788    31A      0.777190    32A      0.795312
      33A      0.833070    34A      0.922039    35A      0.943492
      36A      0.951018    37A      1.027392    38A      1.091205
      39A      1.109490    40A      1.160124    41A      1.232338
      42A      1.311799    43A      1.320329    44A      1.334046
      45A      1.412642    46A      1.413071    47A      1.480544
      48A      1.570729    49A      1.644128    50A      1.668336
      51A      1.726354    52A      1.817235    53A      1.848738
      54A      1.907364    55A      2.072420    56A      2.188677
      57A      2.508670    58A      2.694983    59A      2.758857
      60A      2.805024    61A      2.857204    62A      2.896652
      63A      2.983277    64A      3.047012    65A      3.066388
      66A      3.123204    67A      3.124330    68A      3.216625
      69A      3.358149    70A      3.380697    71A      3.399315
      72A      3.448509    73A      3.481845    74A      3.509289
      75A      3.583285    76A      3.766083    77A      3.771486
      78A      3.952718    79A      3.990988    80A      4.072795
      81A      4.122830    82A      4.124281    83A      4.201422
      84A      4.394169    85A      4.440032    86A      4.451197
      87A      4.543097    88A      4.922683    89A      5.054561
      90A      5.060321    91A      5.200904    92A      5.212361
      93A      5.486898    94A      5.497118    95A      5.839955
      96A      5.936662    97A      6.128227    98A      6.799996
      99A      6.802556   100A      7.075475   101A      7.164321
     102A      7.541934

    Final Occupation by Irrep:
              A
    DOCC [    11 ]
    SOCC [     1 ]

  @DF-UKS Final Energy:  -153.18843938979626

   => Energetics <=

    Nuclear Repulsion Energy =             62.7993464405980646
    One-Electron Energy =                -331.5976756511757912
    Two-Electron Energy =                 132.1906998969926974
    DFT Exchange-Correlation Energy =     -16.5808100762112467
    Empirical Dispersion Energy =           0.0000000000000000
    VV10 Nonlocal Energy =                  0.0000000000000000
    Total Energy =                       -153.1884393897962582

  UHF NO Occupations:
  HONO-2 :   10  A 1.9997852
  HONO-1 :   11  A 1.9992029
  HONO-0 :   12  A 1.0000000
  LUNO+0 :   13  A 0.0007971
  LUNO+1 :   14  A 0.0002148
  LUNO+2 :   15  A 0.0001804
  LUNO+3 :   16  A 0.0000614

Computation Completed

Properties will be evaluated at   0.000000,   0.000000,   0.000000 [a0]

Properties computed using the SCF density matrix

  Nuclear Dipole Moment: [e a0]
     X:     4.5420      Y:    -0.6753      Z:    -0.0000

  Electronic Dipole Moment: [e a0]
     X:    -3.6105      Y:     0.6270      Z:     0.0000

  Dipole Moment: [e a0]
     X:     0.9315      Y:    -0.0484      Z:    -0.0000     Total:     0.9327

  Dipole Moment: [D]
     X:     2.3675      Y:    -0.1229      Z:    -0.0000     Total:     2.3707

*** tstop() called on n049 at Thu Nov  4 14:50:09 2021
Module time:
	user time   =      50.73 seconds =       0.85 minutes
	system time =       0.54 seconds =       0.01 minutes
	total time  =         52 seconds =       0.87 minutes
Total time:
	user time   =      50.73 seconds =       0.85 minutes
	system time =       0.54 seconds =       0.01 minutes
	total time  =         52 seconds =       0.87 minutes
Grab this energy -153.18843938979626
    Psi4 stopped on: Thursday, 04 November 2021 02:50PM
    Psi4 wall time for execution: 0:00:51.32

*** Psi4 exiting successfully. Buy a developer a beer!
