                               Psi4 1.4a2.dev629

  ==> Input File <==

--------------------------------------------------------------------------
import os
memory 14 GB

molecule {
 C   -0.2572327650    0.7981984144    0.0000000100
 O   -2.1910161452   -0.3349589874    0.0000000072
 C    2.4121144501   -0.2417608351   -0.0000000156
 H    2.3823099878   -2.3049732755    0.0000000407
 H    3.3902110381    0.4768145684   -1.6639414389
 H    3.3902113842    0.4768147351    1.6639412166
units bohr
0 2
}

basis {

assign 6-31g_2dfp_

[ 6-31g_2dfp_ ]

spherical

!----------------------------------------------------------------------
! Basis Set Exchange
! Version v0.8.13
! https://www.basissetexchange.org
!----------------------------------------------------------------------
!   Basis set: 6-31G(2df,p)
! Description: 6-31G(2df,p)
!        Role: orbital
!     Version: 0  (Data from the original Basis Set Exchange)
!----------------------------------------------------------------------

****
H     0
S    3   1.00
     18.7311370              0.03349460
      2.8253937              0.23472695
      0.6401217              0.81375733
S    1   1.00
      0.1612778              1.00000000
P    1   1.00
      1.5000000              1.0000000
P    1   1.00
      0.3750000              1.0000000
****
B     0
S    6   1.00
   2068.8823000              0.0018663
    310.6495700              0.0142515
     70.6830330              0.0695516
     19.8610800              0.2325729
      6.2993048              0.4670787
      2.1270270              0.3634314
SP   3   1.00
      4.7279710             -0.1303938              0.0745976
      1.1903377             -0.1307889              0.3078467
      0.3594117              1.1309444              0.7434568
SP   1   1.00
      0.1267512              1.0000000              1.0000000
D    1   1.00
      0.8020000              1.0000000
D    1   1.00
      0.2005000              1.0000000
F    1   1.00
      0.5000000              1.0000000
****
C     0
S    6   1.00
   3047.5249000              0.0018347
    457.3695100              0.0140373
    103.9486900              0.0688426
     29.2101550              0.2321844
      9.2866630              0.4679413
      3.1639270              0.3623120
SP   3   1.00
      7.8682724             -0.1193324              0.0689991
      1.8812885             -0.1608542              0.3164240
      0.5442493              1.1434564              0.7443083
SP   1   1.00
      0.1687144              1.0000000              1.0000000
D    1   1.00
      1.2520000              1.0000000
D    1   1.00
      0.3130000              1.0000000
F    1   1.00
      0.8000000              1.0000000
****
N     0
S    6   1.00
   4173.5110000              0.0018348
    627.4579000              0.0139950
    142.9021000              0.0685870
     40.2343300              0.2322410
     12.8202100              0.4690700
      4.3904370              0.3604550
SP   3   1.00
     11.6263580             -0.1149610              0.0675800
      2.7162800             -0.1691180              0.3239070
      0.7722180              1.1458520              0.7408950
SP   1   1.00
      0.2120313              1.0000000              1.0000000
D    1   1.00
      1.8260000              1.0000000
D    1   1.00
      0.4565000              1.0000000
F    1   1.00
      1.0000000              1.0000000
****
O     0
S    6   1.00
   5484.6717000              0.0018311
    825.2349500              0.0139501
    188.0469600              0.0684451
     52.9645000              0.2327143
     16.8975700              0.4701930
      5.7996353              0.3585209
SP   3   1.00
     15.5396160             -0.1107775              0.0708743
      3.5999336             -0.1480263              0.3397528
      1.0137618              1.1307670              0.7271586
SP   1   1.00
      0.2700058              1.0000000              1.0000000
D    1   1.00
      2.5840000              1.0000000
D    1   1.00
      0.6460000              1.0000000
F    1   1.00
      1.4000000              1.0000000
****
F     0
S    6   1.00
   7001.7130900              0.0018196169
   1051.3660900              0.0139160796
    239.2856900              0.0684053245
     67.3974453              0.233185760
     21.5199573              0.471267439
      7.40310130             0.356618546
SP   3   1.00
     20.8479528             -0.108506975            0.0716287243
      4.80830834            -0.146451658            0.3459121030
      1.34406986             1.128688580            0.7224699570
SP   1   1.00
      0.358151393            1.0000000              1.0000000
D    1   1.00
      3.5000000              1.0000000
D    1   1.00
      0.8750000              1.0000000
F    1   1.00
      1.8500000              1.0000000
****
Al     0
S    6   1.00
  13983.1000000              0.00194267
   2098.7500000              0.0148599
    477.7050000              0.0728494
    134.3600000              0.2468300
     42.8709000              0.4872580
     14.5189000              0.3234960
SP   6   1.00
    239.6680000             -0.00292619             0.00460285
     57.4419000             -0.0374080              0.0331990
     18.2859000             -0.1144870              0.1362820
      6.5991400              0.1156350              0.3304760
      2.4904900              0.6125950              0.4491460
      0.9445400              0.3937990              0.2657040
SP   3   1.00
      1.2779000             -0.2276060             -0.0175130
      0.3975900              0.00144583             0.2445330
      0.1600950              1.0927900              0.8049340
SP   1   1.00
      0.0556577              1.0000000              1.0000000
D    1   1.00
      0.6500000              1.0000000
D    1   1.00
      0.1625000              1.0000000
F    1   1.00
      0.2500000              1.0000000
****
Si     0
S    6   1.00
  16115.9000000              0.00195948
   2425.5800000              0.01492880
    553.8670000              0.07284780
    156.3400000              0.24613000
     50.0683000              0.48591400
     17.0178000              0.32500200
SP   6   1.00
    292.7180000             -0.00278094             0.00443826
     69.8731000             -0.03571460             0.03266790
     22.3363000             -0.11498500             0.13472100
      8.1503900              0.09356340             0.32867800
      3.1345800              0.60301700             0.44964000
      1.2254300              0.41895900             0.26137200
SP   3   1.00
      1.7273800             -0.24463000            -0.01779510
      0.5729220              0.00431572             0.25353900
      0.2221920              1.09818000             0.80066900
SP   1   1.00
      0.0778369              1.00000000             1.00000000
D    1   1.00
      0.9000000              1.0000000
D    1   1.00
      0.2250000              1.0000000
F    1   1.00
      0.3200000              1.0000000
****
P     0
S    6   1.00
  19413.3000000              0.0018516
   2909.4200000              0.0142062
    661.3640000              0.0699995
    185.7590000              0.2400790
     59.1943000              0.4847620
     20.0310000              0.3352000
SP   6   1.00
    339.4780000             -0.00278217             0.00456462
     81.0101000             -0.0360499              0.03369360
     25.8780000             -0.1166310              0.13975500
      9.4522100              0.0968328              0.33936200
      3.6656600              0.6144180              0.45092100
      1.4674600              0.4037980              0.23858600
SP   3   1.00
      2.1562300             -0.2529230             -0.01776530
      0.7489970              0.0328517              0.27405800
      0.2831450              1.0812500              0.78542100
SP   1   1.00
      0.0998317              1.0000000              1.00000000
D    1   1.00
      1.1000000              1.0000000
D    1   1.00
      0.2750000              1.0000000
F    1   1.00
      0.4500000              1.0000000
****
S     0
S    6   1.00
  21917.1000000              0.0018690
   3301.4900000              0.0142300
    754.1460000              0.0696960
    212.7110000              0.2384870
     67.9896000              0.4833070
     23.0515000              0.3380740
SP   6   1.00
    423.7350000             -0.0023767              0.0040610
    100.7100000             -0.0316930              0.0306810
     32.1599000             -0.1133170              0.1304520
     11.8079000              0.0560900              0.3272050
      4.6311000              0.5922550              0.4528510
      1.8702500              0.4550060              0.2560420
SP   3   1.00
      2.6158400             -0.2503740             -0.0145110
      0.9221670              0.0669570              0.3102630
      0.3412870              1.0545100              0.7544830
SP   1   1.00
      0.1171670              1.0000000              1.0000000
D    1   1.00
      1.3000000              1.0000000
D    1   1.00
      0.3250000              1.0000000
F    1   1.00
      0.5500000              1.0000000
****
Cl     0
S    6   1.00
  25180.1000000              0.0018330
   3780.3500000              0.0140340
    860.4740000              0.0690970
    242.1450000              0.2374520
     77.3349000              0.4830340
     26.2470000              0.3398560
SP   6   1.00
    491.7650000             -0.0022974              0.0039894
    116.9840000             -0.0307140              0.0303180
     37.4153000             -0.1125280              0.1298800
     13.7834000              0.0450160              0.3279510
      5.4521500              0.5893530              0.4535270
      2.2258800              0.4652060              0.2521540
SP   3   1.00
      3.1864900             -0.2518300             -0.0142990
      1.1442700              0.0615890              0.3235720
      0.4203770              1.0601800              0.7435070
SP   1   1.00
      0.1426570              1.0000000              1.0000000
D    1   1.00
      1.5000000              1.0000000
D    1   1.00
      0.3750000              1.0000000
F    1   1.00
      0.7000000              1.0000000
****
}

set {
reference uhf
freeze_core true
e_convergence 10
d_convergence 10
dft_spherical_points 1202
dft_radial_points 99
}

e = energy('b3lyp')

print_out('Grab this energy {0}'.format(e))
--------------------------------------------------------------------------

    Molecular point group: c1

    Geometry (in Bohr), charge = 0, multiplicity = 2:

       Center              X                  Y                   Z               Mass
    ------------   -----------------  -----------------  -----------------  -----------------
         C           -0.258346129202     0.799181894612     0.000000013140    12.000000000000
         O           -2.192129509402    -0.333975507188     0.000000010340    15.994914619570
         C            2.411001085898    -0.240777354888    -0.000000012460    12.000000000000
         H            2.381196623598    -2.303989795288     0.000000043840     1.007825032230
         H            3.389097673898     0.477798048612    -1.663941435760     1.007825032230
         H            3.389098019998     0.477798215312     1.663941219740     1.007825032230

  Charge       = 0
  Multiplicity = 2
  Basis Set: ANONYMOUS05C891E0
    Blend: 6-31G_2DFP_
  Basis Set: (ANONYMOUS05C891E0 AUX)
    Blend: DEF2-UNIVERSAL-JKFIT

    Orbital Energies [Eh]
    ---------------------

    Alpha Occupied:

       1A    -19.186651     2A    -10.271192     3A    -10.210384
       4A     -1.081362     5A     -0.762443     6A     -0.543656
       7A     -0.466970     8A     -0.457357     9A     -0.456509
      10A     -0.387509    11A     -0.386354    12A     -0.191222

    Alpha Virtual:

      13A     -0.018565    14A      0.091622    15A      0.136859
      16A      0.141197    17A      0.218228    18A      0.268185
      19A      0.427817    20A      0.431469    21A      0.443983
      22A      0.493816    23A      0.506271    24A      0.530453
      25A      0.563069    26A      0.577549    27A      0.609479
      28A      0.616377    29A      0.644149    30A      0.717670
      31A      0.765736    32A      0.785417    33A      0.831772
      34A      0.917445    35A      0.927254    36A      0.935655
      37A      1.024134    38A      1.084711    39A      1.106892
      40A      1.154107    41A      1.222999    42A      1.306826
      43A      1.315618    44A      1.327565    45A      1.404066
      46A      1.409143    47A      1.469461    48A      1.560371
      49A      1.632454    50A      1.654344    51A      1.721309
      52A      1.813168    53A      1.835081    54A      1.899996
      55A      2.067156    56A      2.169703    57A      2.496027
      58A      2.680817    59A      2.744775    60A      2.784699
      61A      2.841686    62A      2.894039    63A      2.974855
      64A      3.029528    65A      3.057940    66A      3.104290
      67A      3.116159    68A      3.181041    69A      3.314180
      70A      3.369536    71A      3.391726    72A      3.442149
      73A      3.466607    74A      3.485240    75A      3.570881
      76A      3.741518    77A      3.763946    78A      3.942720
      79A      3.984914    80A      4.058304    81A      4.112580
      82A      4.117224    83A      4.188899    84A      4.390355
      85A      4.437776    86A      4.450915    87A      4.531697
      88A      4.921667    89A      5.037180    90A      5.042526
      91A      5.198347    92A      5.206123    93A      5.474953
      94A      5.484137    95A      5.827585    96A      5.932099
      97A      6.106736    98A      6.771034    99A      6.773254
     100A      7.071704   101A      7.135105   102A      7.530730

    Beta Occupied:

       1A    -19.178610     2A    -10.261113     3A    -10.207030
       4A     -1.065473     5A     -0.750657     6A     -0.523987
       7A     -0.451972     8A     -0.447200     9A     -0.439096
      10A     -0.382352    11A     -0.348098

    Beta Virtual:

      12A     -0.051691    13A     -0.002308    14A      0.094338
      15A      0.142561    16A      0.144317    17A      0.228585
      18A      0.273858    19A      0.433466    20A      0.434752
      21A      0.466182    22A      0.500516    23A      0.527599
      24A      0.539549    25A      0.569372    26A      0.581757
      27A      0.623645    28A      0.627950    29A      0.649990
      30A      0.739800    31A      0.776909    32A      0.795379
      33A      0.832568    34A      0.922294    35A      0.943245
      36A      0.951255    37A      1.028332    38A      1.090946
      39A      1.108920    40A      1.160261    41A      1.232303
      42A      1.312346    43A      1.318373    44A      1.334350
      45A      1.414392    46A      1.414646    47A      1.481697
      48A      1.571425    49A      1.645877    50A      1.668687
      51A      1.727595    52A      1.816381    53A      1.849219
      54A      1.906642    55A      2.073864    56A      2.191113
      57A      2.508688    58A      2.695085    59A      2.759281
      60A      2.805783    61A      2.857213    62A      2.895669
      63A      2.984201    64A      3.046523    65A      3.066611
      66A      3.122915    67A      3.124612    68A      3.215817
      69A      3.357759    70A      3.381086    71A      3.398093
      72A      3.450118    73A      3.482433    74A      3.508312
      75A      3.584049    76A      3.767395    77A      3.773218
      78A      3.951398    79A      3.994184    80A      4.074531
      81A      4.120057    82A      4.126523    83A      4.201247
      84A      4.392665    85A      4.443991    86A      4.455026
      87A      4.542589    88A      4.925561    89A      5.054618
      90A      5.060459    91A      5.200504    92A      5.211871
      93A      5.487570    94A      5.498003    95A      5.840820
      96A      5.937685    97A      6.129886    98A      6.800205
      99A      6.802768   100A      7.075993   101A      7.164397
     102A      7.542367

    Final Occupation by Irrep:
              A
    DOCC [    11 ]
    SOCC [     1 ]

  @DF-UKS Final Energy:  -153.18843232896052

   => Energetics <=

    Nuclear Repulsion Energy =             62.8157660445605970
    One-Electron Energy =                -331.6303564166064461
    Two-Electron Energy =                 132.2076651036817339
    DFT Exchange-Correlation Energy =     -16.5815070605963797
    Empirical Dispersion Energy =           0.0000000000000000
    VV10 Nonlocal Energy =                  0.0000000000000000
    Total Energy =                       -153.1884323289605163

  UHF NO Occupations:
  HONO-2 :   10  A 1.9997873
  HONO-1 :   11  A 1.9992049
  HONO-0 :   12  A 1.0000000
  LUNO+0 :   13  A 0.0007951
  LUNO+1 :   14  A 0.0002127
  LUNO+2 :   15  A 0.0001812
  LUNO+3 :   16  A 0.0000612

Computation Completed

Properties will be evaluated at   0.000000,   0.000000,   0.000000 [a0]

Properties computed using the SCF density matrix

  Nuclear Dipole Moment: [e a0]
     X:     4.5383      Y:    -0.6698      Z:    -0.0000

  Electronic Dipole Moment: [e a0]
     X:    -3.6048      Y:     0.6208      Z:     0.0000

  Dipole Moment: [e a0]
     X:     0.9335      Y:    -0.0490      Z:    -0.0000     Total:     0.9348

  Dipole Moment: [D]
     X:     2.3728      Y:    -0.1245      Z:    -0.0000     Total:     2.3761

*** tstop() called on n040 at Thu Nov  4 14:47:06 2021
Module time:
	user time   =      62.41 seconds =       1.04 minutes
	system time =       0.41 seconds =       0.01 minutes
	total time  =         63 seconds =       1.05 minutes
Total time:
	user time   =      62.41 seconds =       1.04 minutes
	system time =       0.41 seconds =       0.01 minutes
	total time  =         63 seconds =       1.05 minutes
Grab this energy -153.18843232896052
    Psi4 stopped on: Thursday, 04 November 2021 02:47PM
    Psi4 wall time for execution: 0:01:02.86

*** Psi4 exiting successfully. Buy a developer a beer!
