                               Psi4 1.4a2.dev629

  ==> Input File <==

--------------------------------------------------------------------------
import os
memory 14 GB

molecule {
 C   -0.2640141078    0.8008317566    0.0000000001
 O   -2.1885418963   -0.3346429571    0.0000000100
 C    2.4107628679   -0.2425194715    0.0000000100
 H    2.3874593075   -2.2980435734    0.0000000300
 H    3.3904657149    0.4722543481   -1.6595162647
 H    3.3904660637    0.4722545173    1.6595160347
units bohr
0 2
}

basis {

assign 6-31g_2dfp_

[ 6-31g_2dfp_ ]

spherical

!----------------------------------------------------------------------
! Basis Set Exchange
! Version v0.8.13
! https://www.basissetexchange.org
!----------------------------------------------------------------------
!   Basis set: 6-31G(2df,p)
! Description: 6-31G(2df,p)
!        Role: orbital
!     Version: 0  (Data from the original Basis Set Exchange)
!----------------------------------------------------------------------

****
H     0
S    3   1.00
     18.7311370              0.03349460
      2.8253937              0.23472695
      0.6401217              0.81375733
S    1   1.00
      0.1612778              1.00000000
P    1   1.00
      1.5000000              1.0000000
P    1   1.00
      0.3750000              1.0000000
****
B     0
S    6   1.00
   2068.8823000              0.0018663
    310.6495700              0.0142515
     70.6830330              0.0695516
     19.8610800              0.2325729
      6.2993048              0.4670787
      2.1270270              0.3634314
SP   3   1.00
      4.7279710             -0.1303938              0.0745976
      1.1903377             -0.1307889              0.3078467
      0.3594117              1.1309444              0.7434568
SP   1   1.00
      0.1267512              1.0000000              1.0000000
D    1   1.00
      0.8020000              1.0000000
D    1   1.00
      0.2005000              1.0000000
F    1   1.00
      0.5000000              1.0000000
****
C     0
S    6   1.00
   3047.5249000              0.0018347
    457.3695100              0.0140373
    103.9486900              0.0688426
     29.2101550              0.2321844
      9.2866630              0.4679413
      3.1639270              0.3623120
SP   3   1.00
      7.8682724             -0.1193324              0.0689991
      1.8812885             -0.1608542              0.3164240
      0.5442493              1.1434564              0.7443083
SP   1   1.00
      0.1687144              1.0000000              1.0000000
D    1   1.00
      1.2520000              1.0000000
D    1   1.00
      0.3130000              1.0000000
F    1   1.00
      0.8000000              1.0000000
****
N     0
S    6   1.00
   4173.5110000              0.0018348
    627.4579000              0.0139950
    142.9021000              0.0685870
     40.2343300              0.2322410
     12.8202100              0.4690700
      4.3904370              0.3604550
SP   3   1.00
     11.6263580             -0.1149610              0.0675800
      2.7162800             -0.1691180              0.3239070
      0.7722180              1.1458520              0.7408950
SP   1   1.00
      0.2120313              1.0000000              1.0000000
D    1   1.00
      1.8260000              1.0000000
D    1   1.00
      0.4565000              1.0000000
F    1   1.00
      1.0000000              1.0000000
****
O     0
S    6   1.00
   5484.6717000              0.0018311
    825.2349500              0.0139501
    188.0469600              0.0684451
     52.9645000              0.2327143
     16.8975700              0.4701930
      5.7996353              0.3585209
SP   3   1.00
     15.5396160             -0.1107775              0.0708743
      3.5999336             -0.1480263              0.3397528
      1.0137618              1.1307670              0.7271586
SP   1   1.00
      0.2700058              1.0000000              1.0000000
D    1   1.00
      2.5840000              1.0000000
D    1   1.00
      0.6460000              1.0000000
F    1   1.00
      1.4000000              1.0000000
****
F     0
S    6   1.00
   7001.7130900              0.0018196169
   1051.3660900              0.0139160796
    239.2856900              0.0684053245
     67.3974453              0.233185760
     21.5199573              0.471267439
      7.40310130             0.356618546
SP   3   1.00
     20.8479528             -0.108506975            0.0716287243
      4.80830834            -0.146451658            0.3459121030
      1.34406986             1.128688580            0.7224699570
SP   1   1.00
      0.358151393            1.0000000              1.0000000
D    1   1.00
      3.5000000              1.0000000
D    1   1.00
      0.8750000              1.0000000
F    1   1.00
      1.8500000              1.0000000
****
Al     0
S    6   1.00
  13983.1000000              0.00194267
   2098.7500000              0.0148599
    477.7050000              0.0728494
    134.3600000              0.2468300
     42.8709000              0.4872580
     14.5189000              0.3234960
SP   6   1.00
    239.6680000             -0.00292619             0.00460285
     57.4419000             -0.0374080              0.0331990
     18.2859000             -0.1144870              0.1362820
      6.5991400              0.1156350              0.3304760
      2.4904900              0.6125950              0.4491460
      0.9445400              0.3937990              0.2657040
SP   3   1.00
      1.2779000             -0.2276060             -0.0175130
      0.3975900              0.00144583             0.2445330
      0.1600950              1.0927900              0.8049340
SP   1   1.00
      0.0556577              1.0000000              1.0000000
D    1   1.00
      0.6500000              1.0000000
D    1   1.00
      0.1625000              1.0000000
F    1   1.00
      0.2500000              1.0000000
****
Si     0
S    6   1.00
  16115.9000000              0.00195948
   2425.5800000              0.01492880
    553.8670000              0.07284780
    156.3400000              0.24613000
     50.0683000              0.48591400
     17.0178000              0.32500200
SP   6   1.00
    292.7180000             -0.00278094             0.00443826
     69.8731000             -0.03571460             0.03266790
     22.3363000             -0.11498500             0.13472100
      8.1503900              0.09356340             0.32867800
      3.1345800              0.60301700             0.44964000
      1.2254300              0.41895900             0.26137200
SP   3   1.00
      1.7273800             -0.24463000            -0.01779510
      0.5729220              0.00431572             0.25353900
      0.2221920              1.09818000             0.80066900
SP   1   1.00
      0.0778369              1.00000000             1.00000000
D    1   1.00
      0.9000000              1.0000000
D    1   1.00
      0.2250000              1.0000000
F    1   1.00
      0.3200000              1.0000000
****
P     0
S    6   1.00
  19413.3000000              0.0018516
   2909.4200000              0.0142062
    661.3640000              0.0699995
    185.7590000              0.2400790
     59.1943000              0.4847620
     20.0310000              0.3352000
SP   6   1.00
    339.4780000             -0.00278217             0.00456462
     81.0101000             -0.0360499              0.03369360
     25.8780000             -0.1166310              0.13975500
      9.4522100              0.0968328              0.33936200
      3.6656600              0.6144180              0.45092100
      1.4674600              0.4037980              0.23858600
SP   3   1.00
      2.1562300             -0.2529230             -0.01776530
      0.7489970              0.0328517              0.27405800
      0.2831450              1.0812500              0.78542100
SP   1   1.00
      0.0998317              1.0000000              1.00000000
D    1   1.00
      1.1000000              1.0000000
D    1   1.00
      0.2750000              1.0000000
F    1   1.00
      0.4500000              1.0000000
****
S     0
S    6   1.00
  21917.1000000              0.0018690
   3301.4900000              0.0142300
    754.1460000              0.0696960
    212.7110000              0.2384870
     67.9896000              0.4833070
     23.0515000              0.3380740
SP   6   1.00
    423.7350000             -0.0023767              0.0040610
    100.7100000             -0.0316930              0.0306810
     32.1599000             -0.1133170              0.1304520
     11.8079000              0.0560900              0.3272050
      4.6311000              0.5922550              0.4528510
      1.8702500              0.4550060              0.2560420
SP   3   1.00
      2.6158400             -0.2503740             -0.0145110
      0.9221670              0.0669570              0.3102630
      0.3412870              1.0545100              0.7544830
SP   1   1.00
      0.1171670              1.0000000              1.0000000
D    1   1.00
      1.3000000              1.0000000
D    1   1.00
      0.3250000              1.0000000
F    1   1.00
      0.5500000              1.0000000
****
Cl     0
S    6   1.00
  25180.1000000              0.0018330
   3780.3500000              0.0140340
    860.4740000              0.0690970
    242.1450000              0.2374520
     77.3349000              0.4830340
     26.2470000              0.3398560
SP   6   1.00
    491.7650000             -0.0022974              0.0039894
    116.9840000             -0.0307140              0.0303180
     37.4153000             -0.1125280              0.1298800
     13.7834000              0.0450160              0.3279510
      5.4521500              0.5893530              0.4535270
      2.2258800              0.4652060              0.2521540
SP   3   1.00
      3.1864900             -0.2518300             -0.0142990
      1.1442700              0.0615890              0.3235720
      0.4203770              1.0601800              0.7435070
SP   1   1.00
      0.1426570              1.0000000              1.0000000
D    1   1.00
      1.5000000              1.0000000
D    1   1.00
      0.3750000              1.0000000
F    1   1.00
      0.7000000              1.0000000
****
}

set {
reference uhf
freeze_core true
e_convergence 10
d_convergence 10
dft_spherical_points 1202
dft_radial_points 99
}

e = energy('b3lyp')

print_out('Grab this energy {0}'.format(e))
--------------------------------------------------------------------------

    Molecular point group: c1

    Geometry (in Bohr), charge = 0, multiplicity = 2:

       Center              X                  Y                   Z               Mass
    ------------   -----------------  -----------------  -----------------  -----------------
         C           -0.263911323627     0.801226105772    -0.000000001750    12.000000000000
         O           -2.188439112127    -0.334248607928     0.000000008150    15.994914619570
         C            2.410865652073    -0.242125122328     0.000000008150    12.000000000000
         H            2.387562091673    -2.297649224228     0.000000028150     1.007825032230
         H            3.390568499073     0.472648697272    -1.659516266550     1.007825032230
         H            3.390568847873     0.472648866472     1.659516032850     1.007825032230

  Charge       = 0
  Multiplicity = 2
  Basis Set: ANONYMOUSB809B853
    Blend: 6-31G_2DFP_
  Basis Set: (ANONYMOUSB809B853 AUX)
    Blend: DEF2-UNIVERSAL-JKFIT

    Orbital Energies [Eh]
    ---------------------

    Alpha Occupied:

       1A    -19.186870     2A    -10.270854     3A    -10.209325
       4A     -1.083582     5A     -0.761938     6A     -0.543905
       7A     -0.467390     8A     -0.457824     9A     -0.456548
      10A     -0.388599    11A     -0.387127    12A     -0.190919

    Alpha Virtual:

      13A     -0.017627    14A      0.092408    15A      0.138187
      16A      0.142023    17A      0.217766    18A      0.268306
      19A      0.428230    20A      0.432167    21A      0.443818
      22A      0.493854    23A      0.506485    24A      0.531294
      25A      0.563472    26A      0.579283    27A      0.611211
      28A      0.616244    29A      0.645209    30A      0.718938
      31A      0.766700    32A      0.785630    33A      0.834003
      34A      0.916513    35A      0.926265    36A      0.935821
      37A      1.023975    38A      1.086226    39A      1.109609
      40A      1.153791    41A      1.222368    42A      1.306145
      43A      1.318105    44A      1.327950    45A      1.405023
      46A      1.409187    47A      1.469870    48A      1.559943
      49A      1.633811    50A      1.655399    51A      1.725018
      52A      1.815820    53A      1.836307    54A      1.903971
      55A      2.067682    56A      2.168472    57A      2.501607
      58A      2.680710    59A      2.744340    60A      2.786293
      61A      2.844932    62A      2.896049    63A      2.975187
      64A      3.031420    65A      3.058435    66A      3.104262
      67A      3.115514    68A      3.181551    69A      3.314154
      70A      3.370061    71A      3.390927    72A      3.441122
      73A      3.465941    74A      3.486377    75A      3.571874
      76A      3.744735    77A      3.763025    78A      3.946905
      79A      3.981592    80A      4.057930    81A      4.112977
      82A      4.125594    83A      4.194724    84A      4.392267
      85A      4.434709    86A      4.454259    87A      4.536820
      88A      4.921681    89A      5.037441    90A      5.042632
      91A      5.206191    92A      5.217186    93A      5.479564
      94A      5.488994    95A      5.825487    96A      5.937077
      97A      6.109517    98A      6.771109    99A      6.773422
     100A      7.070450   101A      7.135271   102A      7.532903

    Beta Occupied:

       1A    -19.178831     2A    -10.260813     3A    -10.205912
       4A     -1.067756     5A     -0.750164     6A     -0.524209
       7A     -0.451944     8A     -0.447250     9A     -0.439682
      10A     -0.383476    11A     -0.349089

    Beta Virtual:

      12A     -0.051504    13A     -0.001364    14A      0.095125
      15A      0.143821    16A      0.145147    17A      0.228297
      18A      0.273912    19A      0.434175    20A      0.435562
      21A      0.465678    22A      0.500568    23A      0.528090
      24A      0.540203    25A      0.569920    26A      0.583477
      27A      0.623405    28A      0.629381    29A      0.651225
      30A      0.741152    31A      0.777777    32A      0.795515
      33A      0.834784    34A      0.921356    35A      0.943141
      36A      0.950495    37A      1.028178    38A      1.092323
      39A      1.111668    40A      1.159981    41A      1.231723
      42A      1.311818    43A      1.320904    44A      1.334694
      45A      1.414769    46A      1.415383    47A      1.482156
      48A      1.570928    49A      1.647368    50A      1.669741
      51A      1.731308    52A      1.819017    53A      1.850339
      54A      1.910594    55A      2.074391    56A      2.189827
      57A      2.514330    58A      2.694987    59A      2.758894
      60A      2.807402    61A      2.860395    62A      2.897700
      63A      2.984632    64A      3.048253    65A      3.066943
      66A      3.123018    67A      3.124028    68A      3.216234
      69A      3.357580    70A      3.381509    71A      3.397256
      72A      3.450302    73A      3.480746    74A      3.509601
      75A      3.585073    76A      3.770546    77A      3.772565
      78A      3.955485    79A      3.990947    80A      4.074332
      81A      4.128144    82A      4.128380    83A      4.205844
      84A      4.394550    85A      4.440825    86A      4.458437
      87A      4.547669    88A      4.925567    89A      5.054937
      90A      5.060574    91A      5.208383    92A      5.222831
      93A      5.492139    94A      5.502844    95A      5.838712
      96A      5.942660    97A      6.132651    98A      6.800298
      99A      6.802946   100A      7.074732   101A      7.164539
     102A      7.544519

    Final Occupation by Irrep:
              A
    DOCC [    11 ]
    SOCC [     1 ]

  @DF-UKS Final Energy:  -153.18840740178649

   => Energetics <=

    Nuclear Repulsion Energy =             62.8844375536043216
    One-Electron Energy =                -331.7580941038302171
    Two-Electron Energy =                 132.2707111033070362
    DFT Exchange-Correlation Energy =     -16.5854619548676077
    Empirical Dispersion Energy =           0.0000000000000000
    VV10 Nonlocal Energy =                  0.0000000000000000
    Total Energy =                       -153.1884074017864918

  UHF NO Occupations:
  HONO-2 :   10  A 1.9997822
  HONO-1 :   11  A 1.9992098
  HONO-0 :   12  A 1.0000000
  LUNO+0 :   13  A 0.0007902
  LUNO+1 :   14  A 0.0002178
  LUNO+2 :   15  A 0.0001784
  LUNO+3 :   16  A 0.0000611

Computation Completed

Properties will be evaluated at   0.000000,   0.000000,   0.000000 [a0]

Properties computed using the SCF density matrix

  Nuclear Dipole Moment: [e a0]
     X:     4.5429      Y:    -0.6717      Z:    -0.0000

  Electronic Dipole Moment: [e a0]
     X:    -3.6179      Y:     0.6212      Z:     0.0000

  Dipole Moment: [e a0]
     X:     0.9250      Y:    -0.0505      Z:    -0.0000     Total:     0.9264

  Dipole Moment: [D]
     X:     2.3512      Y:    -0.1283      Z:    -0.0000     Total:     2.3547

*** tstop() called on n035 at Thu Nov  4 14:55:06 2021
Module time:
	user time   =      62.25 seconds =       1.04 minutes
	system time =       0.45 seconds =       0.01 minutes
	total time  =         63 seconds =       1.05 minutes
Total time:
	user time   =      62.25 seconds =       1.04 minutes
	system time =       0.45 seconds =       0.01 minutes
	total time  =         63 seconds =       1.05 minutes
Grab this energy -153.1884074017865
    Psi4 stopped on: Thursday, 04 November 2021 02:55PM
    Psi4 wall time for execution: 0:01:02.74

*** Psi4 exiting successfully. Buy a developer a beer!
