                               Psi4 1.4a2.dev629

  ==> Input File <==

--------------------------------------------------------------------------
import os
memory 14 GB

molecule {
 C   -0.2564903308    0.8071286704   -0.0000000002
 O   -2.1796070118   -0.3438173344    0.0000000099
 C    2.4079657123   -0.2401738646    0.0000000101
 H    2.3778397974   -2.2961044791    0.0000000302
 H    3.3884447168    0.4715507295   -1.6592456761
 H    3.3884450661    0.4715508981    1.6592454461
units bohr
0 2
}

basis {

assign 6-31g_2dfp_

[ 6-31g_2dfp_ ]

spherical

!----------------------------------------------------------------------
! Basis Set Exchange
! Version v0.8.13
! https://www.basissetexchange.org
!----------------------------------------------------------------------
!   Basis set: 6-31G(2df,p)
! Description: 6-31G(2df,p)
!        Role: orbital
!     Version: 0  (Data from the original Basis Set Exchange)
!----------------------------------------------------------------------

****
H     0
S    3   1.00
     18.7311370              0.03349460
      2.8253937              0.23472695
      0.6401217              0.81375733
S    1   1.00
      0.1612778              1.00000000
P    1   1.00
      1.5000000              1.0000000
P    1   1.00
      0.3750000              1.0000000
****
B     0
S    6   1.00
   2068.8823000              0.0018663
    310.6495700              0.0142515
     70.6830330              0.0695516
     19.8610800              0.2325729
      6.2993048              0.4670787
      2.1270270              0.3634314
SP   3   1.00
      4.7279710             -0.1303938              0.0745976
      1.1903377             -0.1307889              0.3078467
      0.3594117              1.1309444              0.7434568
SP   1   1.00
      0.1267512              1.0000000              1.0000000
D    1   1.00
      0.8020000              1.0000000
D    1   1.00
      0.2005000              1.0000000
F    1   1.00
      0.5000000              1.0000000
****
C     0
S    6   1.00
   3047.5249000              0.0018347
    457.3695100              0.0140373
    103.9486900              0.0688426
     29.2101550              0.2321844
      9.2866630              0.4679413
      3.1639270              0.3623120
SP   3   1.00
      7.8682724             -0.1193324              0.0689991
      1.8812885             -0.1608542              0.3164240
      0.5442493              1.1434564              0.7443083
SP   1   1.00
      0.1687144              1.0000000              1.0000000
D    1   1.00
      1.2520000              1.0000000
D    1   1.00
      0.3130000              1.0000000
F    1   1.00
      0.8000000              1.0000000
****
N     0
S    6   1.00
   4173.5110000              0.0018348
    627.4579000              0.0139950
    142.9021000              0.0685870
     40.2343300              0.2322410
     12.8202100              0.4690700
      4.3904370              0.3604550
SP   3   1.00
     11.6263580             -0.1149610              0.0675800
      2.7162800             -0.1691180              0.3239070
      0.7722180              1.1458520              0.7408950
SP   1   1.00
      0.2120313              1.0000000              1.0000000
D    1   1.00
      1.8260000              1.0000000
D    1   1.00
      0.4565000              1.0000000
F    1   1.00
      1.0000000              1.0000000
****
O     0
S    6   1.00
   5484.6717000              0.0018311
    825.2349500              0.0139501
    188.0469600              0.0684451
     52.9645000              0.2327143
     16.8975700              0.4701930
      5.7996353              0.3585209
SP   3   1.00
     15.5396160             -0.1107775              0.0708743
      3.5999336             -0.1480263              0.3397528
      1.0137618              1.1307670              0.7271586
SP   1   1.00
      0.2700058              1.0000000              1.0000000
D    1   1.00
      2.5840000              1.0000000
D    1   1.00
      0.6460000              1.0000000
F    1   1.00
      1.4000000              1.0000000
****
F     0
S    6   1.00
   7001.7130900              0.0018196169
   1051.3660900              0.0139160796
    239.2856900              0.0684053245
     67.3974453              0.233185760
     21.5199573              0.471267439
      7.40310130             0.356618546
SP   3   1.00
     20.8479528             -0.108506975            0.0716287243
      4.80830834            -0.146451658            0.3459121030
      1.34406986             1.128688580            0.7224699570
SP   1   1.00
      0.358151393            1.0000000              1.0000000
D    1   1.00
      3.5000000              1.0000000
D    1   1.00
      0.8750000              1.0000000
F    1   1.00
      1.8500000              1.0000000
****
Al     0
S    6   1.00
  13983.1000000              0.00194267
   2098.7500000              0.0148599
    477.7050000              0.0728494
    134.3600000              0.2468300
     42.8709000              0.4872580
     14.5189000              0.3234960
SP   6   1.00
    239.6680000             -0.00292619             0.00460285
     57.4419000             -0.0374080              0.0331990
     18.2859000             -0.1144870              0.1362820
      6.5991400              0.1156350              0.3304760
      2.4904900              0.6125950              0.4491460
      0.9445400              0.3937990              0.2657040
SP   3   1.00
      1.2779000             -0.2276060             -0.0175130
      0.3975900              0.00144583             0.2445330
      0.1600950              1.0927900              0.8049340
SP   1   1.00
      0.0556577              1.0000000              1.0000000
D    1   1.00
      0.6500000              1.0000000
D    1   1.00
      0.1625000              1.0000000
F    1   1.00
      0.2500000              1.0000000
****
Si     0
S    6   1.00
  16115.9000000              0.00195948
   2425.5800000              0.01492880
    553.8670000              0.07284780
    156.3400000              0.24613000
     50.0683000              0.48591400
     17.0178000              0.32500200
SP   6   1.00
    292.7180000             -0.00278094             0.00443826
     69.8731000             -0.03571460             0.03266790
     22.3363000             -0.11498500             0.13472100
      8.1503900              0.09356340             0.32867800
      3.1345800              0.60301700             0.44964000
      1.2254300              0.41895900             0.26137200
SP   3   1.00
      1.7273800             -0.24463000            -0.01779510
      0.5729220              0.00431572             0.25353900
      0.2221920              1.09818000             0.80066900
SP   1   1.00
      0.0778369              1.00000000             1.00000000
D    1   1.00
      0.9000000              1.0000000
D    1   1.00
      0.2250000              1.0000000
F    1   1.00
      0.3200000              1.0000000
****
P     0
S    6   1.00
  19413.3000000              0.0018516
   2909.4200000              0.0142062
    661.3640000              0.0699995
    185.7590000              0.2400790
     59.1943000              0.4847620
     20.0310000              0.3352000
SP   6   1.00
    339.4780000             -0.00278217             0.00456462
     81.0101000             -0.0360499              0.03369360
     25.8780000             -0.1166310              0.13975500
      9.4522100              0.0968328              0.33936200
      3.6656600              0.6144180              0.45092100
      1.4674600              0.4037980              0.23858600
SP   3   1.00
      2.1562300             -0.2529230             -0.01776530
      0.7489970              0.0328517              0.27405800
      0.2831450              1.0812500              0.78542100
SP   1   1.00
      0.0998317              1.0000000              1.00000000
D    1   1.00
      1.1000000              1.0000000
D    1   1.00
      0.2750000              1.0000000
F    1   1.00
      0.4500000              1.0000000
****
S     0
S    6   1.00
  21917.1000000              0.0018690
   3301.4900000              0.0142300
    754.1460000              0.0696960
    212.7110000              0.2384870
     67.9896000              0.4833070
     23.0515000              0.3380740
SP   6   1.00
    423.7350000             -0.0023767              0.0040610
    100.7100000             -0.0316930              0.0306810
     32.1599000             -0.1133170              0.1304520
     11.8079000              0.0560900              0.3272050
      4.6311000              0.5922550              0.4528510
      1.8702500              0.4550060              0.2560420
SP   3   1.00
      2.6158400             -0.2503740             -0.0145110
      0.9221670              0.0669570              0.3102630
      0.3412870              1.0545100              0.7544830
SP   1   1.00
      0.1171670              1.0000000              1.0000000
D    1   1.00
      1.3000000              1.0000000
D    1   1.00
      0.3250000              1.0000000
F    1   1.00
      0.5500000              1.0000000
****
Cl     0
S    6   1.00
  25180.1000000              0.0018330
   3780.3500000              0.0140340
    860.4740000              0.0690970
    242.1450000              0.2374520
     77.3349000              0.4830340
     26.2470000              0.3398560
SP   6   1.00
    491.7650000             -0.0022974              0.0039894
    116.9840000             -0.0307140              0.0303180
     37.4153000             -0.1125280              0.1298800
     13.7834000              0.0450160              0.3279510
      5.4521500              0.5893530              0.4535270
      2.2258800              0.4652060              0.2521540
SP   3   1.00
      3.1864900             -0.2518300             -0.0142990
      1.1442700              0.0615890              0.3235720
      0.4203770              1.0601800              0.7435070
SP   1   1.00
      0.1426570              1.0000000              1.0000000
D    1   1.00
      1.5000000              1.0000000
D    1   1.00
      0.3750000              1.0000000
F    1   1.00
      0.7000000              1.0000000
****
}

set {
reference uhf
freeze_core true
e_convergence 10
d_convergence 10
dft_spherical_points 1202
dft_radial_points 99
}

e = energy('b3lyp')

print_out('Grab this energy {0}'.format(e))
--------------------------------------------------------------------------

    Molecular point group: c1

    Geometry (in Bohr), charge = 0, multiplicity = 2:

       Center              X                  Y                   Z               Mass
    ------------   -----------------  -----------------  -----------------  -----------------
         C           -0.260708111976     0.808510902084    -0.000000001962    12.000000000000
         O           -2.183824792976    -0.342435102716     0.000000008138    15.994914619570
         C            2.403747931124    -0.238791632916     0.000000008338    12.000000000000
         H            2.373622016224    -2.294722247416     0.000000028438     1.007825032230
         H            3.384226935624     0.472932961184    -1.659245677862     1.007825032230
         H            3.384227284924     0.472933129784     1.659245444338     1.007825032230

  Charge       = 0
  Multiplicity = 2
  Basis Set: ANONYMOUSDB40006D
    Blend: 6-31G_2DFP_
  Basis Set: (ANONYMOUSDB40006D AUX)
    Blend: DEF2-UNIVERSAL-JKFIT

    Orbital Energies [Eh]
    ---------------------

    Alpha Occupied:

       1A    -19.186745     2A    -10.271188     3A    -10.209172
       4A     -1.081694     5A     -0.762865     6A     -0.544164
       7A     -0.467352     8A     -0.457670     9A     -0.456840
      10A     -0.387598    11A     -0.386063    12A     -0.192409

    Alpha Virtual:

      13A     -0.018559    14A      0.092467    15A      0.137949
      16A      0.141940    17A      0.218845    18A      0.268486
      19A      0.428571    20A      0.431953    21A      0.444029
      22A      0.494105    23A      0.506207    24A      0.531133
      25A      0.563152    26A      0.579530    27A      0.609002
      28A      0.616595    29A      0.645115    30A      0.717760
      31A      0.767857    32A      0.785855    33A      0.833765
      34A      0.917274    35A      0.927500    36A      0.938703
      37A      1.023927    38A      1.085609    39A      1.109450
      40A      1.155203    41A      1.223156    42A      1.306802
      43A      1.318204    44A      1.329203    45A      1.405988
      46A      1.408592    47A      1.469338    48A      1.559990
      49A      1.630373    50A      1.654177    51A      1.723445
      52A      1.815595    53A      1.838722    54A      1.904963
      55A      2.065556    56A      2.164348    57A      2.497474
      58A      2.680725    59A      2.745041    60A      2.786259
      61A      2.844844    62A      2.895669    63A      2.972668
      64A      3.034212    65A      3.059600    66A      3.105393
      67A      3.117114    68A      3.183374    69A      3.315415
      70A      3.370728    71A      3.390502    72A      3.440888
      73A      3.467220    74A      3.487344    75A      3.573216
      76A      3.740960    77A      3.763168    78A      3.948274
      79A      3.986761    80A      4.059326    81A      4.117581
      82A      4.125605    83A      4.195928    84A      4.394246
      85A      4.439798    86A      4.455894    87A      4.537312
      88A      4.922570    89A      5.037551    90A      5.042512
      91A      5.206740    92A      5.217797    93A      5.475754
      94A      5.484731    95A      5.826219    96A      5.931759
      97A      6.105358    98A      6.771018    99A      6.773023
     100A      7.070861   101A      7.135472   102A      7.530653

    Beta Occupied:

       1A    -19.178656     2A    -10.261139     3A    -10.205792
       4A     -1.065739     5A     -0.751095     6A     -0.524454
       7A     -0.452297     8A     -0.447661     9A     -0.439208
      10A     -0.382407    11A     -0.347705

    Beta Virtual:

      12A     -0.052889    13A     -0.002263    14A      0.095170
      15A      0.143596    16A      0.145038    17A      0.229176
      18A      0.274163    19A      0.433919    20A      0.435487
      21A      0.466596    22A      0.500824    23A      0.527637
      24A      0.539851    25A      0.569623    26A      0.583702
      27A      0.623614    28A      0.627665    29A      0.650700
      30A      0.739613    31A      0.779027    32A      0.795829
      33A      0.834542    34A      0.922114    35A      0.947171
      36A      0.950779    37A      1.028126    38A      1.091801
      39A      1.111498    40A      1.161415    41A      1.232336
      42A      1.312543    43A      1.320999    44A      1.335975
      45A      1.414169    46A      1.416511    47A      1.481799
      48A      1.571175    49A      1.643586    50A      1.668638
      51A      1.729786    52A      1.818714    53A      1.852603
      54A      1.911628    55A      2.072306    56A      2.185844
      57A      2.510161    58A      2.695059    59A      2.759576
      60A      2.807223    61A      2.859970    62A      2.897298
      63A      2.982156    64A      3.050745    65A      3.068028
      66A      3.124157    67A      3.125581    68A      3.217945
      69A      3.358953    70A      3.381943    71A      3.396793
      72A      3.448670    73A      3.483526    74A      3.510886
      75A      3.586349    76A      3.766572    77A      3.772902
      78A      3.956967    79A      3.996073    80A      4.075780
      81A      4.128377    82A      4.132054    83A      4.207668
      84A      4.396506    85A      4.446030    86A      4.460081
      87A      4.548122    88A      4.926474    89A      5.055131
      90A      5.060599    91A      5.208979    92A      5.223467
      93A      5.488368    94A      5.498601    95A      5.839499
      96A      5.937349    97A      6.128636    98A      6.800415
      99A      6.802769   100A      7.075163   101A      7.164931
     102A      7.542334

    Final Occupation by Irrep:
              A
    DOCC [    11 ]
    SOCC [     1 ]

  @DF-UKS Final Energy:  -153.18838513761546

   => Energetics <=

    Nuclear Repulsion Energy =             62.9042958713522324
    One-Electron Energy =                -331.8024250788515701
    Two-Electron Energy =                 132.2943918826678953
    DFT Exchange-Correlation Energy =     -16.5846478127840165
    Empirical Dispersion Energy =           0.0000000000000000
    VV10 Nonlocal Energy =                  0.0000000000000000
    Total Energy =                       -153.1883851376154553

  UHF NO Occupations:
  HONO-2 :   10  A 1.9997862
  HONO-1 :   11  A 1.9992007
  HONO-0 :   12  A 1.0000000
  LUNO+0 :   13  A 0.0007993
  LUNO+1 :   14  A 0.0002138
  LUNO+2 :   15  A 0.0001781
  LUNO+3 :   16  A 0.0000618

Computation Completed

Properties will be evaluated at   0.000000,   0.000000,   0.000000 [a0]

Properties computed using the SCF density matrix

  Nuclear Dipole Moment: [e a0]
     X:     4.5297      Y:    -0.6700      Z:    -0.0000

  Electronic Dipole Moment: [e a0]
     X:    -3.6001      Y:     0.6225      Z:     0.0000

  Dipole Moment: [e a0]
     X:     0.9296      Y:    -0.0475      Z:    -0.0000     Total:     0.9308

  Dipole Moment: [D]
     X:     2.3628      Y:    -0.1208      Z:    -0.0000     Total:     2.3659

*** tstop() called on n044 at Thu Nov  4 14:59:51 2021
Module time:
	user time   =      62.60 seconds =       1.04 minutes
	system time =       0.43 seconds =       0.01 minutes
	total time  =         63 seconds =       1.05 minutes
Total time:
	user time   =      62.60 seconds =       1.04 minutes
	system time =       0.43 seconds =       0.01 minutes
	total time  =         63 seconds =       1.05 minutes
Grab this energy -153.18838513761546
    Psi4 stopped on: Thursday, 04 November 2021 02:59PM
    Psi4 wall time for execution: 0:01:03.08

*** Psi4 exiting successfully. Buy a developer a beer!
