                               Psi4 1.4a2.dev629

  ==> Input File <==

--------------------------------------------------------------------------
import os
memory 14 GB

molecule {
 C   -0.2567504150    0.8032669168    0.0000000006
 O   -2.1856337894   -0.3326782615    0.0000000103
 C    2.4082960466   -0.2448412122    0.0000000087
 H    2.3914049276   -2.3064283908    0.0000000299
 H    3.3846404165    0.4754076984   -1.6636873306
 H    3.3846407638    0.4754078693    1.6636871011
units bohr
0 2
}

basis {

assign 6-31g_2dfp_

[ 6-31g_2dfp_ ]

spherical

!----------------------------------------------------------------------
! Basis Set Exchange
! Version v0.8.13
! https://www.basissetexchange.org
!----------------------------------------------------------------------
!   Basis set: 6-31G(2df,p)
! Description: 6-31G(2df,p)
!        Role: orbital
!     Version: 0  (Data from the original Basis Set Exchange)
!----------------------------------------------------------------------

****
H     0
S    3   1.00
     18.7311370              0.03349460
      2.8253937              0.23472695
      0.6401217              0.81375733
S    1   1.00
      0.1612778              1.00000000
P    1   1.00
      1.5000000              1.0000000
P    1   1.00
      0.3750000              1.0000000
****
B     0
S    6   1.00
   2068.8823000              0.0018663
    310.6495700              0.0142515
     70.6830330              0.0695516
     19.8610800              0.2325729
      6.2993048              0.4670787
      2.1270270              0.3634314
SP   3   1.00
      4.7279710             -0.1303938              0.0745976
      1.1903377             -0.1307889              0.3078467
      0.3594117              1.1309444              0.7434568
SP   1   1.00
      0.1267512              1.0000000              1.0000000
D    1   1.00
      0.8020000              1.0000000
D    1   1.00
      0.2005000              1.0000000
F    1   1.00
      0.5000000              1.0000000
****
C     0
S    6   1.00
   3047.5249000              0.0018347
    457.3695100              0.0140373
    103.9486900              0.0688426
     29.2101550              0.2321844
      9.2866630              0.4679413
      3.1639270              0.3623120
SP   3   1.00
      7.8682724             -0.1193324              0.0689991
      1.8812885             -0.1608542              0.3164240
      0.5442493              1.1434564              0.7443083
SP   1   1.00
      0.1687144              1.0000000              1.0000000
D    1   1.00
      1.2520000              1.0000000
D    1   1.00
      0.3130000              1.0000000
F    1   1.00
      0.8000000              1.0000000
****
N     0
S    6   1.00
   4173.5110000              0.0018348
    627.4579000              0.0139950
    142.9021000              0.0685870
     40.2343300              0.2322410
     12.8202100              0.4690700
      4.3904370              0.3604550
SP   3   1.00
     11.6263580             -0.1149610              0.0675800
      2.7162800             -0.1691180              0.3239070
      0.7722180              1.1458520              0.7408950
SP   1   1.00
      0.2120313              1.0000000              1.0000000
D    1   1.00
      1.8260000              1.0000000
D    1   1.00
      0.4565000              1.0000000
F    1   1.00
      1.0000000              1.0000000
****
O     0
S    6   1.00
   5484.6717000              0.0018311
    825.2349500              0.0139501
    188.0469600              0.0684451
     52.9645000              0.2327143
     16.8975700              0.4701930
      5.7996353              0.3585209
SP   3   1.00
     15.5396160             -0.1107775              0.0708743
      3.5999336             -0.1480263              0.3397528
      1.0137618              1.1307670              0.7271586
SP   1   1.00
      0.2700058              1.0000000              1.0000000
D    1   1.00
      2.5840000              1.0000000
D    1   1.00
      0.6460000              1.0000000
F    1   1.00
      1.4000000              1.0000000
****
F     0
S    6   1.00
   7001.7130900              0.0018196169
   1051.3660900              0.0139160796
    239.2856900              0.0684053245
     67.3974453              0.233185760
     21.5199573              0.471267439
      7.40310130             0.356618546
SP   3   1.00
     20.8479528             -0.108506975            0.0716287243
      4.80830834            -0.146451658            0.3459121030
      1.34406986             1.128688580            0.7224699570
SP   1   1.00
      0.358151393            1.0000000              1.0000000
D    1   1.00
      3.5000000              1.0000000
D    1   1.00
      0.8750000              1.0000000
F    1   1.00
      1.8500000              1.0000000
****
Al     0
S    6   1.00
  13983.1000000              0.00194267
   2098.7500000              0.0148599
    477.7050000              0.0728494
    134.3600000              0.2468300
     42.8709000              0.4872580
     14.5189000              0.3234960
SP   6   1.00
    239.6680000             -0.00292619             0.00460285
     57.4419000             -0.0374080              0.0331990
     18.2859000             -0.1144870              0.1362820
      6.5991400              0.1156350              0.3304760
      2.4904900              0.6125950              0.4491460
      0.9445400              0.3937990              0.2657040
SP   3   1.00
      1.2779000             -0.2276060             -0.0175130
      0.3975900              0.00144583             0.2445330
      0.1600950              1.0927900              0.8049340
SP   1   1.00
      0.0556577              1.0000000              1.0000000
D    1   1.00
      0.6500000              1.0000000
D    1   1.00
      0.1625000              1.0000000
F    1   1.00
      0.2500000              1.0000000
****
Si     0
S    6   1.00
  16115.9000000              0.00195948
   2425.5800000              0.01492880
    553.8670000              0.07284780
    156.3400000              0.24613000
     50.0683000              0.48591400
     17.0178000              0.32500200
SP   6   1.00
    292.7180000             -0.00278094             0.00443826
     69.8731000             -0.03571460             0.03266790
     22.3363000             -0.11498500             0.13472100
      8.1503900              0.09356340             0.32867800
      3.1345800              0.60301700             0.44964000
      1.2254300              0.41895900             0.26137200
SP   3   1.00
      1.7273800             -0.24463000            -0.01779510
      0.5729220              0.00431572             0.25353900
      0.2221920              1.09818000             0.80066900
SP   1   1.00
      0.0778369              1.00000000             1.00000000
D    1   1.00
      0.9000000              1.0000000
D    1   1.00
      0.2250000              1.0000000
F    1   1.00
      0.3200000              1.0000000
****
P     0
S    6   1.00
  19413.3000000              0.0018516
   2909.4200000              0.0142062
    661.3640000              0.0699995
    185.7590000              0.2400790
     59.1943000              0.4847620
     20.0310000              0.3352000
SP   6   1.00
    339.4780000             -0.00278217             0.00456462
     81.0101000             -0.0360499              0.03369360
     25.8780000             -0.1166310              0.13975500
      9.4522100              0.0968328              0.33936200
      3.6656600              0.6144180              0.45092100
      1.4674600              0.4037980              0.23858600
SP   3   1.00
      2.1562300             -0.2529230             -0.01776530
      0.7489970              0.0328517              0.27405800
      0.2831450              1.0812500              0.78542100
SP   1   1.00
      0.0998317              1.0000000              1.00000000
D    1   1.00
      1.1000000              1.0000000
D    1   1.00
      0.2750000              1.0000000
F    1   1.00
      0.4500000              1.0000000
****
S     0
S    6   1.00
  21917.1000000              0.0018690
   3301.4900000              0.0142300
    754.1460000              0.0696960
    212.7110000              0.2384870
     67.9896000              0.4833070
     23.0515000              0.3380740
SP   6   1.00
    423.7350000             -0.0023767              0.0040610
    100.7100000             -0.0316930              0.0306810
     32.1599000             -0.1133170              0.1304520
     11.8079000              0.0560900              0.3272050
      4.6311000              0.5922550              0.4528510
      1.8702500              0.4550060              0.2560420
SP   3   1.00
      2.6158400             -0.2503740             -0.0145110
      0.9221670              0.0669570              0.3102630
      0.3412870              1.0545100              0.7544830
SP   1   1.00
      0.1171670              1.0000000              1.0000000
D    1   1.00
      1.3000000              1.0000000
D    1   1.00
      0.3250000              1.0000000
F    1   1.00
      0.5500000              1.0000000
****
Cl     0
S    6   1.00
  25180.1000000              0.0018330
   3780.3500000              0.0140340
    860.4740000              0.0690970
    242.1450000              0.2374520
     77.3349000              0.4830340
     26.2470000              0.3398560
SP   6   1.00
    491.7650000             -0.0022974              0.0039894
    116.9840000             -0.0307140              0.0303180
     37.4153000             -0.1125280              0.1298800
     13.7834000              0.0450160              0.3279510
      5.4521500              0.5893530              0.4535270
      2.2258800              0.4652060              0.2521540
SP   3   1.00
      3.1864900             -0.2518300             -0.0142990
      1.1442700              0.0615890              0.3235720
      0.4203770              1.0601800              0.7435070
SP   1   1.00
      0.1426570              1.0000000              1.0000000
D    1   1.00
      1.5000000              1.0000000
D    1   1.00
      0.3750000              1.0000000
F    1   1.00
      0.7000000              1.0000000
****
}

set {
reference uhf
freeze_core true
e_convergence 10
d_convergence 10
dft_spherical_points 1202
dft_radial_points 99
}

e = energy('b3lyp')

print_out('Grab this energy {0}'.format(e))
--------------------------------------------------------------------------

    Molecular point group: c1

    Geometry (in Bohr), charge = 0, multiplicity = 2:

       Center              X                  Y                   Z               Mass
    ------------   -----------------  -----------------  -----------------  -----------------
         C           -0.258886489843     0.802947808398    -0.000000001148    12.000000000000
         O           -2.187769864243    -0.332997369902     0.000000008552    15.994914619570
         C            2.406159971757    -0.245160320602     0.000000006952    12.000000000000
         H            2.389268852757    -2.306747499202     0.000000028152     1.007825032230
         H            3.382504341657     0.475088589998    -1.663687332348     1.007825032230
         H            3.382504688957     0.475088760898     1.663687099352     1.007825032230

  Charge       = 0
  Multiplicity = 2
  Basis Set: ANONYMOUSCD1359DC
    Blend: 6-31G_2DFP_
  Basis Set: (ANONYMOUSCD1359DC AUX)
    Blend: DEF2-UNIVERSAL-JKFIT

    Orbital Energies [Eh]
    ---------------------

    Alpha Occupied:

       1A    -19.186715     2A    -10.270948     3A    -10.209937
       4A     -1.082356     5A     -0.762364     6A     -0.543771
       7A     -0.466903     8A     -0.457902     9A     -0.456712
      10A     -0.387798    11A     -0.386176    12A     -0.191674

    Alpha Virtual:

      13A     -0.018038    14A      0.091877    15A      0.137280
      16A      0.141263    17A      0.218678    18A      0.268513
      19A      0.428229    20A      0.431654    21A      0.444156
      22A      0.493908    23A      0.506205    24A      0.530566
      25A      0.563223    26A      0.577849    27A      0.610182
      28A      0.615959    29A      0.644797    30A      0.717982
      31A      0.766290    32A      0.785835    33A      0.832472
      34A      0.917265    35A      0.926492    36A      0.935654
      37A      1.025130    38A      1.088110    39A      1.107740
      40A      1.152334    41A      1.222334    42A      1.307350
      43A      1.316757    44A      1.328058    45A      1.404048
      46A      1.409072    47A      1.469074    48A      1.560503
      49A      1.632104    50A      1.654840    51A      1.721458
      52A      1.814170    53A      1.835977    54A      1.903127
      55A      2.066699    56A      2.167710    57A      2.498763
      58A      2.680755    59A      2.744967    60A      2.784553
      61A      2.843284    62A      2.894165    63A      2.974617
      64A      3.032320    65A      3.059629    66A      3.103988
      67A      3.115779    68A      3.181950    69A      3.313942
      70A      3.370427    71A      3.393747    72A      3.441839
      73A      3.465393    74A      3.486186    75A      3.571249
      76A      3.743022    77A      3.766002    78A      3.943120
      79A      3.987681    80A      4.059546    81A      4.111886
      82A      4.120629    83A      4.188689    84A      4.388764
      85A      4.437809    86A      4.451968    87A      4.536670
      88A      4.920825    89A      5.037435    90A      5.042540
      91A      5.199993    92A      5.209377    93A      5.477406
      94A      5.486411    95A      5.826391    96A      5.934513
      97A      6.108123    98A      6.771102    99A      6.773247
     100A      7.071118   101A      7.135497   102A      7.531660

    Beta Occupied:

       1A    -19.178636     2A    -10.260902     3A    -10.206561
       4A     -1.066436     5A     -0.750559     6A     -0.524091
       7A     -0.452134     8A     -0.447357     9A     -0.439120
      10A     -0.382639    11A     -0.348091

    Beta Virtual:

      12A     -0.052206    13A     -0.001761    14A      0.094575
      15A      0.143021    16A      0.144376    17A      0.229002
      18A      0.274158    19A      0.433619    20A      0.435393
      21A      0.466305    22A      0.500617    23A      0.527585
      24A      0.539454    25A      0.569573    26A      0.582044
      27A      0.623162    28A      0.628490    29A      0.650715
      30A      0.740066    31A      0.777370    32A      0.795762
      33A      0.833248    34A      0.922122    35A      0.943144
      36A      0.950713    37A      1.029369    38A      1.094268
      39A      1.109746    40A      1.158560    41A      1.231551
      42A      1.313041    43A      1.319568    44A      1.334814
      45A      1.414443    46A      1.414612    47A      1.481498
      48A      1.571457    49A      1.645480    50A      1.669274
      51A      1.727771    52A      1.817273    53A      1.850094
      54A      1.909884    55A      2.073441    56A      2.189143
      57A      2.511453    58A      2.695092    59A      2.759389
      60A      2.805647    61A      2.858472    62A      2.895814
      63A      2.984249    64A      3.049063    65A      3.068283
      66A      3.122602    67A      3.124080    68A      3.216503
      69A      3.357486    70A      3.381684    71A      3.400062
      72A      3.449920    73A      3.481219    74A      3.509614
      75A      3.584425    76A      3.768615    77A      3.775547
      78A      3.951783    79A      3.996989    80A      4.075946
      81A      4.123443    82A      4.126387    83A      4.200400
      84A      4.391043    85A      4.444001    86A      4.456127
      87A      4.547622    88A      4.924721    89A      5.054965
      90A      5.060590    91A      5.202165    92A      5.215138
      93A      5.490018    94A      5.500329    95A      5.839662
      96A      5.940110    97A      6.131341    98A      6.800445
      99A      6.802935   100A      7.075426   101A      7.164914
     102A      7.543330

    Final Occupation by Irrep:
              A
    DOCC [    11 ]
    SOCC [     1 ]

  @DF-UKS Final Energy:  -153.18845140967557

   => Energetics <=

    Nuclear Repulsion Energy =             62.8763937962719837
    One-Electron Energy =                -331.7479106545701484
    Two-Electron Energy =                 132.2662577959317787
    DFT Exchange-Correlation Energy =     -16.5831923473091933
    Empirical Dispersion Energy =           0.0000000000000000
    VV10 Nonlocal Energy =                  0.0000000000000000
    Total Energy =                       -153.1884514096755652

  UHF NO Occupations:
  HONO-2 :   10  A 1.9997857
  HONO-1 :   11  A 1.9992029
  HONO-0 :   12  A 1.0000000
  LUNO+0 :   13  A 0.0007971
  LUNO+1 :   14  A 0.0002143
  LUNO+2 :   15  A 0.0001778
  LUNO+3 :   16  A 0.0000616

Computation Completed

Properties will be evaluated at   0.000000,   0.000000,   0.000000 [a0]

Properties computed using the SCF density matrix

  Nuclear Dipole Moment: [e a0]
     X:     4.5358      Y:    -0.6738      Z:    -0.0000

  Electronic Dipole Moment: [e a0]
     X:    -3.6076      Y:     0.6237      Z:     0.0000

  Dipole Moment: [e a0]
     X:     0.9281      Y:    -0.0501      Z:    -0.0000     Total:     0.9295

  Dipole Moment: [D]
     X:     2.3590      Y:    -0.1274      Z:    -0.0000     Total:     2.3625

*** tstop() called on n031 at Thu Nov  4 14:51:51 2021
Module time:
	user time   =      62.73 seconds =       1.05 minutes
	system time =       0.43 seconds =       0.01 minutes
	total time  =         63 seconds =       1.05 minutes
Total time:
	user time   =      62.73 seconds =       1.05 minutes
	system time =       0.43 seconds =       0.01 minutes
	total time  =         63 seconds =       1.05 minutes
Grab this energy -153.18845140967557
    Psi4 stopped on: Thursday, 04 November 2021 02:51PM
    Psi4 wall time for execution: 0:01:03.20

*** Psi4 exiting successfully. Buy a developer a beer!
