                               Psi4 1.4a2.dev629

  ==> Input File <==

--------------------------------------------------------------------------
import os
memory 14 GB

molecule {
 C   -0.2595666292    0.8058268683   -0.0000000000
 O   -2.1902675106   -0.3329034613   -0.0000000000
 C    2.4089113899   -0.2452788980   -0.0000000000
 H    2.3821756801   -2.3152538277   -0.0000000000
 H    3.3916925260    0.4709874833   -1.6686309595
 H    3.3916925260    0.4709874833    1.6686309595
units bohr
0 2
}

basis {

assign 6-31g_2dfp_

[ 6-31g_2dfp_ ]

spherical

!----------------------------------------------------------------------
! Basis Set Exchange
! Version v0.8.13
! https://www.basissetexchange.org
!----------------------------------------------------------------------
!   Basis set: 6-31G(2df,p)
! Description: 6-31G(2df,p)
!        Role: orbital
!     Version: 0  (Data from the original Basis Set Exchange)
!----------------------------------------------------------------------

****
H     0
S    3   1.00
     18.7311370              0.03349460
      2.8253937              0.23472695
      0.6401217              0.81375733
S    1   1.00
      0.1612778              1.00000000
P    1   1.00
      1.5000000              1.0000000
P    1   1.00
      0.3750000              1.0000000
****
B     0
S    6   1.00
   2068.8823000              0.0018663
    310.6495700              0.0142515
     70.6830330              0.0695516
     19.8610800              0.2325729
      6.2993048              0.4670787
      2.1270270              0.3634314
SP   3   1.00
      4.7279710             -0.1303938              0.0745976
      1.1903377             -0.1307889              0.3078467
      0.3594117              1.1309444              0.7434568
SP   1   1.00
      0.1267512              1.0000000              1.0000000
D    1   1.00
      0.8020000              1.0000000
D    1   1.00
      0.2005000              1.0000000
F    1   1.00
      0.5000000              1.0000000
****
C     0
S    6   1.00
   3047.5249000              0.0018347
    457.3695100              0.0140373
    103.9486900              0.0688426
     29.2101550              0.2321844
      9.2866630              0.4679413
      3.1639270              0.3623120
SP   3   1.00
      7.8682724             -0.1193324              0.0689991
      1.8812885             -0.1608542              0.3164240
      0.5442493              1.1434564              0.7443083
SP   1   1.00
      0.1687144              1.0000000              1.0000000
D    1   1.00
      1.2520000              1.0000000
D    1   1.00
      0.3130000              1.0000000
F    1   1.00
      0.8000000              1.0000000
****
N     0
S    6   1.00
   4173.5110000              0.0018348
    627.4579000              0.0139950
    142.9021000              0.0685870
     40.2343300              0.2322410
     12.8202100              0.4690700
      4.3904370              0.3604550
SP   3   1.00
     11.6263580             -0.1149610              0.0675800
      2.7162800             -0.1691180              0.3239070
      0.7722180              1.1458520              0.7408950
SP   1   1.00
      0.2120313              1.0000000              1.0000000
D    1   1.00
      1.8260000              1.0000000
D    1   1.00
      0.4565000              1.0000000
F    1   1.00
      1.0000000              1.0000000
****
O     0
S    6   1.00
   5484.6717000              0.0018311
    825.2349500              0.0139501
    188.0469600              0.0684451
     52.9645000              0.2327143
     16.8975700              0.4701930
      5.7996353              0.3585209
SP   3   1.00
     15.5396160             -0.1107775              0.0708743
      3.5999336             -0.1480263              0.3397528
      1.0137618              1.1307670              0.7271586
SP   1   1.00
      0.2700058              1.0000000              1.0000000
D    1   1.00
      2.5840000              1.0000000
D    1   1.00
      0.6460000              1.0000000
F    1   1.00
      1.4000000              1.0000000
****
F     0
S    6   1.00
   7001.7130900              0.0018196169
   1051.3660900              0.0139160796
    239.2856900              0.0684053245
     67.3974453              0.233185760
     21.5199573              0.471267439
      7.40310130             0.356618546
SP   3   1.00
     20.8479528             -0.108506975            0.0716287243
      4.80830834            -0.146451658            0.3459121030
      1.34406986             1.128688580            0.7224699570
SP   1   1.00
      0.358151393            1.0000000              1.0000000
D    1   1.00
      3.5000000              1.0000000
D    1   1.00
      0.8750000              1.0000000
F    1   1.00
      1.8500000              1.0000000
****
Al     0
S    6   1.00
  13983.1000000              0.00194267
   2098.7500000              0.0148599
    477.7050000              0.0728494
    134.3600000              0.2468300
     42.8709000              0.4872580
     14.5189000              0.3234960
SP   6   1.00
    239.6680000             -0.00292619             0.00460285
     57.4419000             -0.0374080              0.0331990
     18.2859000             -0.1144870              0.1362820
      6.5991400              0.1156350              0.3304760
      2.4904900              0.6125950              0.4491460
      0.9445400              0.3937990              0.2657040
SP   3   1.00
      1.2779000             -0.2276060             -0.0175130
      0.3975900              0.00144583             0.2445330
      0.1600950              1.0927900              0.8049340
SP   1   1.00
      0.0556577              1.0000000              1.0000000
D    1   1.00
      0.6500000              1.0000000
D    1   1.00
      0.1625000              1.0000000
F    1   1.00
      0.2500000              1.0000000
****
Si     0
S    6   1.00
  16115.9000000              0.00195948
   2425.5800000              0.01492880
    553.8670000              0.07284780
    156.3400000              0.24613000
     50.0683000              0.48591400
     17.0178000              0.32500200
SP   6   1.00
    292.7180000             -0.00278094             0.00443826
     69.8731000             -0.03571460             0.03266790
     22.3363000             -0.11498500             0.13472100
      8.1503900              0.09356340             0.32867800
      3.1345800              0.60301700             0.44964000
      1.2254300              0.41895900             0.26137200
SP   3   1.00
      1.7273800             -0.24463000            -0.01779510
      0.5729220              0.00431572             0.25353900
      0.2221920              1.09818000             0.80066900
SP   1   1.00
      0.0778369              1.00000000             1.00000000
D    1   1.00
      0.9000000              1.0000000
D    1   1.00
      0.2250000              1.0000000
F    1   1.00
      0.3200000              1.0000000
****
P     0
S    6   1.00
  19413.3000000              0.0018516
   2909.4200000              0.0142062
    661.3640000              0.0699995
    185.7590000              0.2400790
     59.1943000              0.4847620
     20.0310000              0.3352000
SP   6   1.00
    339.4780000             -0.00278217             0.00456462
     81.0101000             -0.0360499              0.03369360
     25.8780000             -0.1166310              0.13975500
      9.4522100              0.0968328              0.33936200
      3.6656600              0.6144180              0.45092100
      1.4674600              0.4037980              0.23858600
SP   3   1.00
      2.1562300             -0.2529230             -0.01776530
      0.7489970              0.0328517              0.27405800
      0.2831450              1.0812500              0.78542100
SP   1   1.00
      0.0998317              1.0000000              1.00000000
D    1   1.00
      1.1000000              1.0000000
D    1   1.00
      0.2750000              1.0000000
F    1   1.00
      0.4500000              1.0000000
****
S     0
S    6   1.00
  21917.1000000              0.0018690
   3301.4900000              0.0142300
    754.1460000              0.0696960
    212.7110000              0.2384870
     67.9896000              0.4833070
     23.0515000              0.3380740
SP   6   1.00
    423.7350000             -0.0023767              0.0040610
    100.7100000             -0.0316930              0.0306810
     32.1599000             -0.1133170              0.1304520
     11.8079000              0.0560900              0.3272050
      4.6311000              0.5922550              0.4528510
      1.8702500              0.4550060              0.2560420
SP   3   1.00
      2.6158400             -0.2503740             -0.0145110
      0.9221670              0.0669570              0.3102630
      0.3412870              1.0545100              0.7544830
SP   1   1.00
      0.1171670              1.0000000              1.0000000
D    1   1.00
      1.3000000              1.0000000
D    1   1.00
      0.3250000              1.0000000
F    1   1.00
      0.5500000              1.0000000
****
Cl     0
S    6   1.00
  25180.1000000              0.0018330
   3780.3500000              0.0140340
    860.4740000              0.0690970
    242.1450000              0.2374520
     77.3349000              0.4830340
     26.2470000              0.3398560
SP   6   1.00
    491.7650000             -0.0022974              0.0039894
    116.9840000             -0.0307140              0.0303180
     37.4153000             -0.1125280              0.1298800
     13.7834000              0.0450160              0.3279510
      5.4521500              0.5893530              0.4535270
      2.2258800              0.4652060              0.2521540
SP   3   1.00
      3.1864900             -0.2518300             -0.0142990
      1.1442700              0.0615890              0.3235720
      0.4203770              1.0601800              0.7435070
SP   1   1.00
      0.1426570              1.0000000              1.0000000
D    1   1.00
      1.5000000              1.0000000
D    1   1.00
      0.3750000              1.0000000
F    1   1.00
      0.7000000              1.0000000
****
}

set {
reference uhf
freeze_core true
e_convergence 10
d_convergence 10
dft_spherical_points 1202
dft_radial_points 99
}

e = energy('b3lyp')

print_out('Grab this energy {0}'.format(e))
--------------------------------------------------------------------------

    Molecular point group: cs

    Geometry (in Bohr), charge = 0, multiplicity = 2:

       Center              X                  Y                   Z               Mass
    ------------   -----------------  -----------------  -----------------  -----------------
         C           -0.259480081157     0.805413361630     0.000000000000    12.000000000000
         O           -2.190180962557    -0.333316967970     0.000000000000    15.994914619570
         C            2.408997937943    -0.245692404670     0.000000000000    12.000000000000
         H            2.382262228143    -2.315667334370     0.000000000000     1.007825032230
         H            3.391779074043     0.470573976630    -1.668630959500     1.007825032230
         H            3.391779074043     0.470573976630     1.668630959500     1.007825032230

  Charge       = 0
  Multiplicity = 2
  Basis Set: ANONYMOUS02AD0E54
    Blend: 6-31G_2DFP_
  Basis Set: (ANONYMOUS02AD0E54 AUX)
    Blend: DEF2-UNIVERSAL-JKFIT

    Orbital Energies [Eh]
    ---------------------

    Alpha Occupied:

       1Ap   -19.186931     2Ap   -10.271544     3Ap   -10.211160
       4Ap    -1.081618     5Ap    -0.761349     6Ap    -0.543667
       7Ap    -0.466343     8Ap    -0.457212     1App   -0.456025
       2App   -0.387494     9Ap    -0.385846    10Ap    -0.192166

    Alpha Virtual:

       3App   -0.018790    11Ap     0.091257    12Ap     0.136059
       4App    0.140639    13Ap     0.217975    14Ap     0.268323
      15Ap     0.428079     5App    0.431669    16Ap     0.443563
       6App    0.493266    17Ap     0.506075    18Ap     0.529660
       7App    0.562411    19Ap     0.575882    20Ap     0.608503
       8App    0.615402    21Ap     0.643435    22Ap     0.717352
       9App    0.765884    23Ap     0.785360    10App    0.830804
      11App    0.917039    24Ap     0.926848    25Ap     0.935175
      12App    1.022803    26Ap     1.085045    27Ap     1.106547
      13App    1.152782    28Ap     1.220845    29Ap     1.306354
      14App    1.315216    30Ap     1.327089    31Ap     1.402471
      15App    1.406028    32Ap     1.466991    33Ap     1.559621
      34Ap     1.629433    16App    1.653785    35Ap     1.716842
      17App    1.811429    36Ap     1.833391    37Ap     1.899049
      18App    2.064415    38Ap     2.165874    39Ap     2.496203
      19App    2.679635    40Ap     2.743777    41Ap     2.781799
      20App    2.840377    21App    2.893368    42Ap     2.972389
      43Ap     3.031791    22App    3.059155    23App    3.104908
      44Ap     3.114398    45Ap     3.182933    24App    3.314134
      46Ap     3.371293    25App    3.395639    26App    3.440274
      27App    3.465717    47Ap     3.486463    48Ap     3.568716
      49Ap     3.740031    50Ap     3.760824    51Ap     3.939030
      28App    3.980679    52Ap     4.054990    53Ap     4.106431
      29App    4.114285    54Ap     4.185039    30App    4.384981
      55Ap     4.432246    31App    4.443329    56Ap     4.527972
      57Ap     4.916395    58Ap     5.036701    32App    5.042177
      33App    5.190497    59Ap     5.198229    60Ap     5.474322
      34App    5.482330    61Ap     5.826268    35App    5.931010
      62Ap     6.104440    63Ap     6.770660    36App    6.772832
      37App    7.070664    64Ap     7.135087    65Ap     7.530192

    Beta Occupied:

       1Ap   -19.178863     2Ap   -10.261493     3Ap   -10.207774
       4Ap    -1.065695     5Ap    -0.749506     6Ap    -0.524005
       1App   -0.451455     7Ap    -0.446301     8Ap    -0.438848
       2App   -0.382347     9Ap    -0.347844

    Beta Virtual:

      10Ap    -0.052771     3App   -0.002532    11Ap     0.093974
      12Ap     0.141807     4App    0.143785    13Ap     0.228421
      14Ap     0.274003     5App    0.433639    15Ap     0.435225
      16Ap     0.465677     6App    0.499940    17Ap     0.527380
      18Ap     0.538532     7App    0.568735    19Ap     0.580051
       8App    0.622652    20Ap     0.627035    21Ap     0.649212
      22Ap     0.739360     9App    0.777013    23Ap     0.795315
      10App    0.831583    11App    0.921892    24Ap     0.943044
      25Ap     0.950705    12App    1.027000    26Ap     1.091229
      27Ap     1.108607    13App    1.159004    28Ap     1.230067
      29Ap     1.311828    14App    1.318056    30Ap     1.333915
      15App    1.411507    31Ap     1.412868    32Ap     1.479344
      33Ap     1.570813    34Ap     1.642601    16App    1.668199
      35Ap     1.723014    17App    1.814567    36Ap     1.847678
      37Ap     1.905776    18App    2.071115    38Ap     2.187273
      39Ap     2.508868    19App    2.693898    40Ap     2.758188
      41Ap     2.802865    20App    2.855659    21App    2.895012
      42Ap     2.981962    43Ap     3.048592    22App    3.067826
      44Ap     3.122801    23App    3.123598    45Ap     3.217667
      24App    3.357733    46Ap     3.382785    25App    3.401951
      26App    3.448431    27App    3.481466    47Ap     3.509214
      48Ap     3.582137    49Ap     3.765650    50Ap     3.770151
      51Ap     3.947847    28App    3.989955    52Ap     4.071356
      29App    4.117127    53Ap     4.120659    54Ap     4.197196
      30App    4.387216    55Ap     4.438486    31App    4.447527
      56Ap     4.538919    57Ap     4.920259    58Ap     5.054165
      32App    5.060200    33App    5.192609    59Ap     5.204039
      60Ap     5.486961    34App    5.496275    61Ap     5.839510
      35App    5.936599    62Ap     6.127645    63Ap     6.799961
      36App    6.802474    37App    7.074963    64Ap     7.164467
      65Ap     7.541857

    Final Occupation by Irrep:
             Ap   App
    DOCC [     9,    2 ]
    SOCC [     1,    0 ]

  @DF-UKS Final Energy:  -153.18845429089782

   => Energetics <=

    Nuclear Repulsion Energy =             62.7710013390368289
    One-Electron Energy =                -331.5447986384094747
    Two-Electron Energy =                 132.1636492355840744
    DFT Exchange-Correlation Energy =     -16.5783062271092803
    Empirical Dispersion Energy =           0.0000000000000000
    VV10 Nonlocal Energy =                  0.0000000000000000
    Total Energy =                       -153.1884542908978233

  UHF NO Occupations:
  HONO-2 :    8 Ap 1.9997834
  HONO-1 :    9 Ap 1.9992019
  HONO-0 :   10 Ap 1.0000000
  LUNO+0 :   11 Ap 0.0007981
  LUNO+1 :   12 Ap 0.0002166
  LUNO+2 :    3App 0.0001793
  LUNO+3 :   13 Ap 0.0000615

Computation Completed

Properties will be evaluated at   0.000000,   0.000000,   0.000000 [a0]

Properties computed using the SCF density matrix

  Nuclear Dipole Moment: [e a0]
     X:     4.5415      Y:    -0.6827      Z:     0.0000

  Electronic Dipole Moment: [e a0]
     X:    -3.6122      Y:     0.6330      Z:     0.0000

  Dipole Moment: [e a0]
     X:     0.9293      Y:    -0.0498      Z:     0.0000     Total:     0.9307

  Dipole Moment: [D]
     X:     2.3621      Y:    -0.1265      Z:     0.0000     Total:     2.3655

*** tstop() called on n031 at Tue Mar 15 10:35:51 2022
Module time:
	user time   =      62.40 seconds =       1.04 minutes
	system time =       0.42 seconds =       0.01 minutes
	total time  =         62 seconds =       1.03 minutes
Total time:
	user time   =      62.40 seconds =       1.04 minutes
	system time =       0.42 seconds =       0.01 minutes
	total time  =         62 seconds =       1.03 minutes
Grab this energy -153.18845429089782
    Psi4 stopped on: Tuesday, 15 March 2022 10:35AM
    Psi4 wall time for execution: 0:01:02.87

*** Psi4 exiting successfully. Buy a developer a beer!
