                               Psi4 1.4a2.dev629

  ==> Input File <==

--------------------------------------------------------------------------
import os
memory 14 GB

molecule {
 N    2.5163641707    0.0075318625    0.0043512012
 X    0.3166073300    1.0000000000   -0.0000000000
 C    0.3135378059   -0.0019934237   -0.0011484979
 X    0.3166073300   -0.0000000000    1.0000000000
 C   -2.4586339150   -0.0022470730   -0.0012896259
 H   -3.1515654991    0.9639344776   -1.6774292569
 H   -3.1633271394   -1.9334404638   -0.0019541335
 H   -3.1397779930    0.9662146204    1.6774703131
units bohr
}

basis {

assign 6-31g_2dfp_

[ 6-31g_2dfp_ ]
spherical

!----------------------------------------------------------------------
! Basis Set Exchange
! Version v0.8.13
! https://www.basissetexchange.org
!----------------------------------------------------------------------
!   Basis set: 6-31G(2df,p)
! Description: 6-31G(2df,p)
!        Role: orbital
!     Version: 0  (Data from the original Basis Set Exchange)
!----------------------------------------------------------------------

****
H     0
S    3   1.00
     18.7311370              0.03349460
      2.8253937              0.23472695
      0.6401217              0.81375733
S    1   1.00
      0.1612778              1.00000000
P    1   1.00
      1.5000000              1.0000000
P    1   1.00
      0.3750000              1.0000000
****
C     0
S    6   1.00
   3047.5249000              0.0018347
    457.3695100              0.0140373
    103.9486900              0.0688426
     29.2101550              0.2321844
      9.2866630              0.4679413
      3.1639270              0.3623120
SP   3   1.00
      7.8682724             -0.1193324              0.0689991
      1.8812885             -0.1608542              0.3164240
      0.5442493              1.1434564              0.7443083
SP   1   1.00
      0.1687144              1.0000000              1.0000000
D    1   1.00
      1.2520000              1.0000000
D    1   1.00
      0.3130000              1.0000000
F    1   1.00
      0.8000000              1.0000000
****
N     0
S    6   1.00
   4173.5110000              0.0018348
    627.4579000              0.0139950
    142.9021000              0.0685870
     40.2343300              0.2322410
     12.8202100              0.4690700
      4.3904370              0.3604550
SP   3   1.00
     11.6263580             -0.1149610              0.0675800
      2.7162800             -0.1691180              0.3239070
      0.7722180              1.1458520              0.7408950
SP   1   1.00
      0.2120313              1.0000000              1.0000000
D    1   1.00
      1.8260000              1.0000000
D    1   1.00
      0.4565000              1.0000000
F    1   1.00
      1.0000000              1.0000000
****
}

set {
opt_type min
reference rhf
freeze_core true
e_convergence 10
d_convergence 10
ensure_bt_convergence true
dft_spherical_points 590
dft_radial_points 99
}

e = energy('b3lyp')

print_out('Grab this energy {0}'.format(e))
--------------------------------------------------------------------------

    Molecular point group: c1

    Geometry (in Bohr), charge = 0, multiplicity = 1:

       Center              X                  Y                   Z               Mass
    ------------   -----------------  -----------------  -----------------  -----------------
         N            2.517167878041     0.006282277832     0.003626191169    14.003074004430
         C            0.314341513241    -0.003243008368    -0.001873507931    12.000000000000
         C           -2.457830207659    -0.003496657668    -0.002014635931    12.000000000000
         H           -3.150761791759     0.962684892932    -1.678154266931     1.007825032230
         H           -3.162523432059    -1.934690048468    -0.002679143531     1.007825032230
         H           -3.138974285659     0.964965035732     1.676745303069     1.007825032230

  Charge       = 0
  Multiplicity = 1
  Basis Set: ANONYMOUS8B141CB8
    Blend: 6-31G_2DFP_
  Basis Set: (ANONYMOUS8B141CB8 AUX)
    Blend: DEF2-UNIVERSAL-JKFIT

    Orbital Energies [Eh]
    ---------------------

    Doubly Occupied:

       1A    -14.333735     2A    -10.235226     3A    -10.225288
       4A     -0.897653     5A     -0.776792     6A     -0.514696
       7A     -0.466233     8A     -0.465301     9A     -0.357786
      10A     -0.324861    11A     -0.324859

  @DF-RKS Final Energy:  -132.76109546702747

   => Energetics <=

    Nuclear Repulsion Energy =             58.1909388863583317
    One-Electron Energy =                -293.1110992221871356
    Two-Electron Energy =                 117.3772565429382411
    DFT Exchange-Correlation Energy =     -15.2181916741369108
    Empirical Dispersion Energy =           0.0000000000000000
    VV10 Nonlocal Energy =                  0.0000000000000000
    Total Energy =                       -132.7610954670274737

  Dipole Moment: [D]
     X:    -3.8329      Y:    -0.0082      Z:    -0.0047     Total:     3.8329

*** Psi4 exiting successfully. Buy a developer a beer!
