                               Psi4 1.4a2.dev629

  ==> Input File <==

--------------------------------------------------------------------------
import os
memory 14 GB

molecule {
 N    2.5168790019    0.0001989979    0.0001178605
 X    0.3166073300    1.0000000000    0.0000000000
 C    0.3174771868   -0.0009764501   -0.0005619943
 X    0.3166073300   -0.0000000000    1.0000000000
 C   -2.4574800127    0.0034948011    0.0020193636
 H   -3.1534334258    0.9699739059   -1.6821966524
 H   -3.1534886058   -1.9427038256   -0.0005473998
 H   -3.1533567144    0.9700125708    1.6811688224
units bohr
}

basis {

assign 6-31g_2dfp_

[ 6-31g_2dfp_ ]
spherical

!----------------------------------------------------------------------
! Basis Set Exchange
! Version v0.8.13
! https://www.basissetexchange.org
!----------------------------------------------------------------------
!   Basis set: 6-31G(2df,p)
! Description: 6-31G(2df,p)
!        Role: orbital
!     Version: 0  (Data from the original Basis Set Exchange)
!----------------------------------------------------------------------

****
H     0
S    3   1.00
     18.7311370              0.03349460
      2.8253937              0.23472695
      0.6401217              0.81375733
S    1   1.00
      0.1612778              1.00000000
P    1   1.00
      1.5000000              1.0000000
P    1   1.00
      0.3750000              1.0000000
****
C     0
S    6   1.00
   3047.5249000              0.0018347
    457.3695100              0.0140373
    103.9486900              0.0688426
     29.2101550              0.2321844
      9.2866630              0.4679413
      3.1639270              0.3623120
SP   3   1.00
      7.8682724             -0.1193324              0.0689991
      1.8812885             -0.1608542              0.3164240
      0.5442493              1.1434564              0.7443083
SP   1   1.00
      0.1687144              1.0000000              1.0000000
D    1   1.00
      1.2520000              1.0000000
D    1   1.00
      0.3130000              1.0000000
F    1   1.00
      0.8000000              1.0000000
****
N     0
S    6   1.00
   4173.5110000              0.0018348
    627.4579000              0.0139950
    142.9021000              0.0685870
     40.2343300              0.2322410
     12.8202100              0.4690700
      4.3904370              0.3604550
SP   3   1.00
     11.6263580             -0.1149610              0.0675800
      2.7162800             -0.1691180              0.3239070
      0.7722180              1.1458520              0.7408950
SP   1   1.00
      0.2120313              1.0000000              1.0000000
D    1   1.00
      1.8260000              1.0000000
D    1   1.00
      0.4565000              1.0000000
F    1   1.00
      1.0000000              1.0000000
****
}

set {
opt_type min
reference rhf
freeze_core true
e_convergence 10
d_convergence 10
ensure_bt_convergence true
dft_spherical_points 590
dft_radial_points 99
}

e = energy('b3lyp')

print_out('Grab this energy {0}'.format(e))
--------------------------------------------------------------------------

    Molecular point group: c1

    Geometry (in Bohr), charge = 0, multiplicity = 1:

       Center              X                  Y                   Z               Mass
    ------------   -----------------  -----------------  -----------------  -----------------
         N            2.516155000453    -0.000538772708    -0.000309942600    14.003074004430
         C            0.316753185353    -0.001714220708    -0.000989797400    12.000000000000
         C           -2.458204014147     0.002757030492     0.001591560500    12.000000000000
         H           -3.154157427247     0.969236135292    -1.682624455500     1.007825032230
         H           -3.154212607247    -1.943441596208    -0.000975202900     1.007825032230
         H           -3.154080715847     0.969274800192     1.680741019300     1.007825032230

  Charge       = 0
  Multiplicity = 1
  Basis Set: ANONYMOUS7790EF26
    Blend: 6-31G_2DFP_
  Basis Set: (ANONYMOUS7790EF26 AUX)
    Blend: DEF2-UNIVERSAL-JKFIT

    Orbital Energies [Eh]
    ---------------------

    Doubly Occupied:

       1A    -14.333380     2A    -10.236423     3A    -10.224984
       4A     -0.898285     5A     -0.775692     6A     -0.514006
       7A     -0.465333     8A     -0.464340     9A     -0.357718
      10A     -0.325338    11A     -0.325177

  @DF-RKS Final Energy:  -132.76119730080902

   => Energetics <=

    Nuclear Repulsion Energy =             58.1602616999491744
    One-Electron Energy =                -293.0552155990430947
    Two-Electron Energy =                 117.3494296632138685
    DFT Exchange-Correlation Energy =     -15.2156730649289429
    Empirical Dispersion Energy =           0.0000000000000000
    VV10 Nonlocal Energy =                  0.0000000000000000
    Total Energy =                       -132.7611973008090160

  Dipole Moment: [D]
     X:    -3.8294      Y:     0.0007      Z:     0.0004     Total:     3.8294

*** Psi4 exiting successfully. Buy a developer a beer!
