                               Psi4 1.4a2.dev629

  ==> Input File <==

--------------------------------------------------------------------------
import os
memory 14 GB

molecule {
 N    2.5087096314    0.0015146916   -0.0026726527
 X    0.3166073300    1.0000000000    0.0000000000
 C    0.3196836920   -0.0036255958    0.0063321927
 X    0.3166073300   -0.0000000000    1.0000000000
 C   -2.4497618843   -0.0001566977    0.0002791110
 H   -3.1568122991    0.9706318864   -1.6811874460
 H   -3.1525973034   -1.9360206379    0.0004050411
 H   -3.1526244066    0.9676563534    1.6768437538
units bohr
}

basis {

assign 6-31g_2dfp_

[ 6-31g_2dfp_ ]
spherical

!----------------------------------------------------------------------
! Basis Set Exchange
! Version v0.8.13
! https://www.basissetexchange.org
!----------------------------------------------------------------------
!   Basis set: 6-31G(2df,p)
! Description: 6-31G(2df,p)
!        Role: orbital
!     Version: 0  (Data from the original Basis Set Exchange)
!----------------------------------------------------------------------

****
H     0
S    3   1.00
     18.7311370              0.03349460
      2.8253937              0.23472695
      0.6401217              0.81375733
S    1   1.00
      0.1612778              1.00000000
P    1   1.00
      1.5000000              1.0000000
P    1   1.00
      0.3750000              1.0000000
****
C     0
S    6   1.00
   3047.5249000              0.0018347
    457.3695100              0.0140373
    103.9486900              0.0688426
     29.2101550              0.2321844
      9.2866630              0.4679413
      3.1639270              0.3623120
SP   3   1.00
      7.8682724             -0.1193324              0.0689991
      1.8812885             -0.1608542              0.3164240
      0.5442493              1.1434564              0.7443083
SP   1   1.00
      0.1687144              1.0000000              1.0000000
D    1   1.00
      1.2520000              1.0000000
D    1   1.00
      0.3130000              1.0000000
F    1   1.00
      0.8000000              1.0000000
****
N     0
S    6   1.00
   4173.5110000              0.0018348
    627.4579000              0.0139950
    142.9021000              0.0685870
     40.2343300              0.2322410
     12.8202100              0.4690700
      4.3904370              0.3604550
SP   3   1.00
     11.6263580             -0.1149610              0.0675800
      2.7162800             -0.1691180              0.3239070
      0.7722180              1.1458520              0.7408950
SP   1   1.00
      0.2120313              1.0000000              1.0000000
D    1   1.00
      1.8260000              1.0000000
D    1   1.00
      0.4565000              1.0000000
F    1   1.00
      1.0000000              1.0000000
****
}

set {
opt_type min
reference rhf
freeze_core true
e_convergence 10
d_convergence 10
ensure_bt_convergence true
dft_spherical_points 590
dft_radial_points 99
}

e = energy('b3lyp')

print_out('Grab this energy {0}'.format(e))
--------------------------------------------------------------------------

    Molecular point group: c1

    Geometry (in Bohr), charge = 0, multiplicity = 1:

       Center              X                  Y                   Z               Mass
    ------------   -----------------  -----------------  -----------------  -----------------
         N            2.507914205339     0.002048293327    -0.003597439710    14.003074004430
         C            0.318888265939    -0.003091994073     0.005407405690    12.000000000000
         C           -2.450557310361     0.000376904027    -0.000645676010    12.000000000000
         H           -3.157607725161     0.971165488127    -1.682112233010     1.007825032230
         H           -3.153392729461    -1.935487036173    -0.000519745910     1.007825032230
         H           -3.153419832661     0.968189955127     1.675918966790     1.007825032230

  Charge       = 0
  Multiplicity = 1
  Basis Set: ANONYMOUS4FCE037D
    Blend: 6-31G_2DFP_
  Basis Set: (ANONYMOUS4FCE037D AUX)
    Blend: DEF2-UNIVERSAL-JKFIT

    Orbital Energies [Eh]
    ---------------------

    Doubly Occupied:

       1A    -14.332127     2A    -10.235778     3A    -10.223587
       4A     -0.900365     5A     -0.776061     6A     -0.514770
       7A     -0.464926     8A     -0.464370     9A     -0.357503
      10A     -0.326387    11A     -0.326373

  @DF-RKS Final Energy:  -132.76138110008549

   => Energetics <=

    Nuclear Repulsion Energy =             58.3139338206302895
    One-Electron Energy =                -293.3556309405225306
    Two-Electron Energy =                 117.5020133892949303
    DFT Exchange-Correlation Energy =     -15.2216973694881812
    Empirical Dispersion Energy =           0.0000000000000000
    VV10 Nonlocal Energy =                  0.0000000000000000
    Total Energy =                       -132.7613811000854867

  Dipole Moment: [D]
     X:    -3.8228      Y:    -0.0022      Z:     0.0038     Total:     3.8228

*** Psi4 exiting successfully. Buy a developer a beer!
