                               Psi4 1.4a2.dev629

  ==> Input File <==

--------------------------------------------------------------------------
import os
memory 14 GB

molecule {
 N    2.5020562491   -0.0020092241   -0.0011549130
 X    0.3166073300    1.0000000000   -0.0000000000
 C    0.3092391119    0.0051458174    0.0029660375
 X    0.3166073300    0.0000000000    1.0000000000
 C   -2.4562580899    0.0005554195    0.0003204066
 H   -3.1461501254    0.9713903010   -1.6788884793
 H   -3.1485078804   -1.9436809080    0.0009012823
 H   -3.1437818353    0.9685985941    1.6758556658
units bohr
}

basis {

assign 6-31g_2dfp_

[ 6-31g_2dfp_ ]
spherical

!----------------------------------------------------------------------
! Basis Set Exchange
! Version v0.8.13
! https://www.basissetexchange.org
!----------------------------------------------------------------------
!   Basis set: 6-31G(2df,p)
! Description: 6-31G(2df,p)
!        Role: orbital
!     Version: 0  (Data from the original Basis Set Exchange)
!----------------------------------------------------------------------

****
H     0
S    3   1.00
     18.7311370              0.03349460
      2.8253937              0.23472695
      0.6401217              0.81375733
S    1   1.00
      0.1612778              1.00000000
P    1   1.00
      1.5000000              1.0000000
P    1   1.00
      0.3750000              1.0000000
****
C     0
S    6   1.00
   3047.5249000              0.0018347
    457.3695100              0.0140373
    103.9486900              0.0688426
     29.2101550              0.2321844
      9.2866630              0.4679413
      3.1639270              0.3623120
SP   3   1.00
      7.8682724             -0.1193324              0.0689991
      1.8812885             -0.1608542              0.3164240
      0.5442493              1.1434564              0.7443083
SP   1   1.00
      0.1687144              1.0000000              1.0000000
D    1   1.00
      1.2520000              1.0000000
D    1   1.00
      0.3130000              1.0000000
F    1   1.00
      0.8000000              1.0000000
****
N     0
S    6   1.00
   4173.5110000              0.0018348
    627.4579000              0.0139950
    142.9021000              0.0685870
     40.2343300              0.2322410
     12.8202100              0.4690700
      4.3904370              0.3604550
SP   3   1.00
     11.6263580             -0.1149610              0.0675800
      2.7162800             -0.1691180              0.3239070
      0.7722180              1.1458520              0.7408950
SP   1   1.00
      0.2120313              1.0000000              1.0000000
D    1   1.00
      1.8260000              1.0000000
D    1   1.00
      0.4565000              1.0000000
F    1   1.00
      1.0000000              1.0000000
****
}

set {
opt_type min
reference rhf
freeze_core true
e_convergence 10
d_convergence 10
ensure_bt_convergence true
dft_spherical_points 590
dft_radial_points 99
}

e = energy('b3lyp')

print_out('Grab this energy {0}'.format(e))
--------------------------------------------------------------------------

    Molecular point group: c1

    Geometry (in Bohr), charge = 0, multiplicity = 1:

       Center              X                  Y                   Z               Mass
    ------------   -----------------  -----------------  -----------------  -----------------
         N            2.507907212901    -0.002900320885    -0.001669623278    14.003074004430
         C            0.315090075701     0.004254720615     0.002451327222    12.000000000000
         C           -2.450407126099    -0.000335677285    -0.000194303678    12.000000000000
         H           -3.140299161599     0.970499204215    -1.679403189578     1.007825032230
         H           -3.142656916599    -1.944572004785     0.000386572022     1.007825032230
         H           -3.137930871499     0.967707497315     1.675340955522     1.007825032230

  Charge       = 0
  Multiplicity = 1
  Basis Set: ANONYMOUS78EEE671
    Blend: 6-31G_2DFP_
  Basis Set: (ANONYMOUS78EEE671 AUX)
    Blend: DEF2-UNIVERSAL-JKFIT

    Orbital Energies [Eh]
    ---------------------

    Doubly Occupied:

       1A    -14.332246     2A    -10.235267     3A    -10.223616
       4A     -0.899511     5A     -0.776959     6A     -0.513994
       7A     -0.466144     8A     -0.465598     9A     -0.357338
      10A     -0.325706    11A     -0.325689

  @DF-RKS Final Energy:  -132.76131173230650

   => Energetics <=

    Nuclear Repulsion Energy =             58.3368080031091694
    One-Electron Energy =                -293.4011246299127151
    Two-Electron Energy =                 117.5253923910379541
    DFT Exchange-Correlation Energy =     -15.2223874965409127
    Empirical Dispersion Energy =           0.0000000000000000
    VV10 Nonlocal Energy =                  0.0000000000000000
    Total Energy =                       -132.7613117323064955

  Dipole Moment: [D]
     X:    -3.8232      Y:     0.0036      Z:     0.0020     Total:     3.8232

*** Psi4 exiting successfully. Buy a developer a beer!
