                               Psi4 1.4a2.dev629

  ==> Input File <==

--------------------------------------------------------------------------
import os
memory 14 GB

molecule {
 N    2.5230374976    0.0002118969    0.0001252924
 X    0.3166073300    1.0000000000    0.0000000000
 C    0.3239662895   -0.0009774650   -0.0005625875
 X    0.3166073300   -0.0000000000    1.0000000000
 C   -2.4521527665    0.0034780325    0.0020096865
 H   -3.1594250081    0.9654651669   -1.6743344462
 H   -3.1595001365   -1.9336601974   -0.0005341758
 H   -3.1593284460    0.9654825660    1.6732962307
units bohr
}

basis {

assign 6-31g_2dfp_

[ 6-31g_2dfp_ ]
spherical

!----------------------------------------------------------------------
! Basis Set Exchange
! Version v0.8.13
! https://www.basissetexchange.org
!----------------------------------------------------------------------
!   Basis set: 6-31G(2df,p)
! Description: 6-31G(2df,p)
!        Role: orbital
!     Version: 0  (Data from the original Basis Set Exchange)
!----------------------------------------------------------------------

****
H     0
S    3   1.00
     18.7311370              0.03349460
      2.8253937              0.23472695
      0.6401217              0.81375733
S    1   1.00
      0.1612778              1.00000000
P    1   1.00
      1.5000000              1.0000000
P    1   1.00
      0.3750000              1.0000000
****
C     0
S    6   1.00
   3047.5249000              0.0018347
    457.3695100              0.0140373
    103.9486900              0.0688426
     29.2101550              0.2321844
      9.2866630              0.4679413
      3.1639270              0.3623120
SP   3   1.00
      7.8682724             -0.1193324              0.0689991
      1.8812885             -0.1608542              0.3164240
      0.5442493              1.1434564              0.7443083
SP   1   1.00
      0.1687144              1.0000000              1.0000000
D    1   1.00
      1.2520000              1.0000000
D    1   1.00
      0.3130000              1.0000000
F    1   1.00
      0.8000000              1.0000000
****
N     0
S    6   1.00
   4173.5110000              0.0018348
    627.4579000              0.0139950
    142.9021000              0.0685870
     40.2343300              0.2322410
     12.8202100              0.4690700
      4.3904370              0.3604550
SP   3   1.00
     11.6263580             -0.1149610              0.0675800
      2.7162800             -0.1691180              0.3239070
      0.7722180              1.1458520              0.7408950
SP   1   1.00
      0.2120313              1.0000000              1.0000000
D    1   1.00
      1.8260000              1.0000000
D    1   1.00
      0.4565000              1.0000000
F    1   1.00
      1.0000000              1.0000000
****
}

set {
opt_type min
reference rhf
freeze_core true
e_convergence 10
d_convergence 10
ensure_bt_convergence true
dft_spherical_points 590
dft_radial_points 99
}

e = energy('b3lyp')

print_out('Grab this energy {0}'.format(e))
--------------------------------------------------------------------------

    Molecular point group: c1

    Geometry (in Bohr), charge = 0, multiplicity = 1:

       Center              X                  Y                   Z               Mass
    ------------   -----------------  -----------------  -----------------  -----------------
         N            2.517196844519    -0.000525194788    -0.000302113068    14.003074004430
         C            0.318125636419    -0.001714556688    -0.000989992968    12.000000000000
         C           -2.457993419581     0.002740940812     0.001582281032    12.000000000000
         H           -3.165265661181     0.964728075212    -1.674761851668     1.007825032230
         H           -3.165340789581    -1.934397289088    -0.000961581268     1.007825032230
         H           -3.165169099081     0.964745474312     1.672868825232     1.007825032230

  Charge       = 0
  Multiplicity = 1
  Basis Set: ANONYMOUSE8773DEA
    Blend: 6-31G_2DFP_
  Basis Set: (ANONYMOUSE8773DEA AUX)
    Blend: DEF2-UNIVERSAL-JKFIT

    Orbital Energies [Eh]
    ---------------------

    Doubly Occupied:

       1A    -14.333618     2A    -10.235736     3A    -10.225264
       4A     -0.898505     5A     -0.775907     6A     -0.515464
       7A     -0.465038     8A     -0.464048     9A     -0.357954
      10A     -0.325620    11A     -0.325460

  @DF-RKS Final Energy:  -132.76119257594678

   => Energetics <=

    Nuclear Repulsion Energy =             58.1678859422473238
    One-Electron Energy =                -293.0653035846370358
    Two-Electron Energy =                 117.3537097645646554
    DFT Exchange-Correlation Energy =     -15.2174846981217211
    Empirical Dispersion Energy =           0.0000000000000000
    VV10 Nonlocal Energy =                  0.0000000000000000
    Total Energy =                       -132.7611925759467795

  Dipole Moment: [D]
     X:    -3.8325      Y:     0.0007      Z:     0.0004     Total:     3.8325

*** Psi4 exiting successfully. Buy a developer a beer!
