                               Psi4 1.4a2.dev629

  ==> Input File <==

--------------------------------------------------------------------------
import os
memory 14 GB

molecule {
 N    2.5108604986   -0.0015552424    0.0026446844
 X    0.3166073300    1.0000000000   -0.0000000000
 C    0.3204765549    0.0036677305   -0.0063002731
 X    0.3166073300    0.0000000000    1.0000000000
 C   -2.4575896887    0.0001616625   -0.0002724325
 H   -3.1495833011    0.9661632545   -1.6734474613
 H   -3.1537697708   -1.9375938291   -0.0004187668
 H   -3.1537968629    0.9691564240    1.6777942493
units bohr
}

basis {

assign 6-31g_2dfp_

[ 6-31g_2dfp_ ]
spherical

!----------------------------------------------------------------------
! Basis Set Exchange
! Version v0.8.13
! https://www.basissetexchange.org
!----------------------------------------------------------------------
!   Basis set: 6-31G(2df,p)
! Description: 6-31G(2df,p)
!        Role: orbital
!     Version: 0  (Data from the original Basis Set Exchange)
!----------------------------------------------------------------------

****
H     0
S    3   1.00
     18.7311370              0.03349460
      2.8253937              0.23472695
      0.6401217              0.81375733
S    1   1.00
      0.1612778              1.00000000
P    1   1.00
      1.5000000              1.0000000
P    1   1.00
      0.3750000              1.0000000
****
C     0
S    6   1.00
   3047.5249000              0.0018347
    457.3695100              0.0140373
    103.9486900              0.0688426
     29.2101550              0.2321844
      9.2866630              0.4679413
      3.1639270              0.3623120
SP   3   1.00
      7.8682724             -0.1193324              0.0689991
      1.8812885             -0.1608542              0.3164240
      0.5442493              1.1434564              0.7443083
SP   1   1.00
      0.1687144              1.0000000              1.0000000
D    1   1.00
      1.2520000              1.0000000
D    1   1.00
      0.3130000              1.0000000
F    1   1.00
      0.8000000              1.0000000
****
N     0
S    6   1.00
   4173.5110000              0.0018348
    627.4579000              0.0139950
    142.9021000              0.0685870
     40.2343300              0.2322410
     12.8202100              0.4690700
      4.3904370              0.3604550
SP   3   1.00
     11.6263580             -0.1149610              0.0675800
      2.7162800             -0.1691180              0.3239070
      0.7722180              1.1458520              0.7408950
SP   1   1.00
      0.2120313              1.0000000              1.0000000
D    1   1.00
      1.8260000              1.0000000
D    1   1.00
      0.4565000              1.0000000
F    1   1.00
      1.0000000              1.0000000
****
}

set {
opt_type min
reference rhf
freeze_core true
e_convergence 10
d_convergence 10
ensure_bt_convergence true
dft_spherical_points 590
dft_radial_points 99
}

e = energy('b3lyp')

print_out('Grab this energy {0}'.format(e))
--------------------------------------------------------------------------

    Molecular point group: c1

    Geometry (in Bohr), charge = 0, multiplicity = 1:

       Center              X                  Y                   Z               Mass
    ------------   -----------------  -----------------  -----------------  -----------------
         N            2.511268640818    -0.002088618864     0.003567988908    14.003074004430
         C            0.320884697118     0.003134354036    -0.005376968592    12.000000000000
         C           -2.457181546482    -0.000371713964     0.000650872008    12.000000000000
         H           -3.149175158882     0.965629878036    -1.672524156792     1.007825032230
         H           -3.153361628582    -1.938127205564     0.000504537708     1.007825032230
         H           -3.153388720682     0.968623047536     1.678717553808     1.007825032230

  Charge       = 0
  Multiplicity = 1
  Basis Set: ANONYMOUSDD3FE248
    Blend: 6-31G_2DFP_
  Basis Set: (ANONYMOUSDD3FE248 AUX)
    Blend: DEF2-UNIVERSAL-JKFIT

    Orbital Energies [Eh]
    ---------------------

    Doubly Occupied:

       1A    -14.332246     2A    -10.235543     3A    -10.223849
       4A     -0.899932     5A     -0.775980     6A     -0.513857
       7A     -0.465509     8A     -0.464953     9A     -0.357417
      10A     -0.326372    11A     -0.326361

  @DF-RKS Final Energy:  -132.76127905548060

   => Energetics <=

    Nuclear Repulsion Energy =             58.2688992215956745
    One-Electron Energy =                -293.2656337566889988
    Two-Electron Energy =                 117.4573635824151125
    DFT Exchange-Correlation Energy =     -15.2219081028023968
    Empirical Dispersion Energy =           0.0000000000000000
    VV10 Nonlocal Energy =                  0.0000000000000000
    Total Energy =                       -132.7612790554805997

  Dipole Moment: [D]
     X:    -3.8253      Y:     0.0022      Z:    -0.0037     Total:     3.8253

*** Psi4 exiting successfully. Buy a developer a beer!
