                               Psi4 1.4a2.dev629

  ==> Input File <==

--------------------------------------------------------------------------
import os
memory 14 GB

molecule {
 N    2.5124818811   -0.0052901740    0.0090767027
 X    0.3166073300    1.0000000000   -0.0000000000
 C    0.3166100980    0.0041809775   -0.0071497789
 X    0.3166073300    0.0000000000    1.0000000000
 C   -2.4541937286    0.0005724140   -0.0009780449
 H   -3.1630936086    0.9645090223   -1.6705851568
 H   -3.1475797663   -1.9397992794   -0.0068507533
 H   -3.1476274456    0.9758270396    1.6764870312
units bohr
}

basis {

assign 6-31g_2dfp_

[ 6-31g_2dfp_ ]
spherical

!----------------------------------------------------------------------
! Basis Set Exchange
! Version v0.8.13
! https://www.basissetexchange.org
!----------------------------------------------------------------------
!   Basis set: 6-31G(2df,p)
! Description: 6-31G(2df,p)
!        Role: orbital
!     Version: 0  (Data from the original Basis Set Exchange)
!----------------------------------------------------------------------

****
H     0
S    3   1.00
     18.7311370              0.03349460
      2.8253937              0.23472695
      0.6401217              0.81375733
S    1   1.00
      0.1612778              1.00000000
P    1   1.00
      1.5000000              1.0000000
P    1   1.00
      0.3750000              1.0000000
****
C     0
S    6   1.00
   3047.5249000              0.0018347
    457.3695100              0.0140373
    103.9486900              0.0688426
     29.2101550              0.2321844
      9.2866630              0.4679413
      3.1639270              0.3623120
SP   3   1.00
      7.8682724             -0.1193324              0.0689991
      1.8812885             -0.1608542              0.3164240
      0.5442493              1.1434564              0.7443083
SP   1   1.00
      0.1687144              1.0000000              1.0000000
D    1   1.00
      1.2520000              1.0000000
D    1   1.00
      0.3130000              1.0000000
F    1   1.00
      0.8000000              1.0000000
****
N     0
S    6   1.00
   4173.5110000              0.0018348
    627.4579000              0.0139950
    142.9021000              0.0685870
     40.2343300              0.2322410
     12.8202100              0.4690700
      4.3904370              0.3604550
SP   3   1.00
     11.6263580             -0.1149610              0.0675800
      2.7162800             -0.1691180              0.3239070
      0.7722180              1.1458520              0.7408950
SP   1   1.00
      0.2120313              1.0000000              1.0000000
D    1   1.00
      1.8260000              1.0000000
D    1   1.00
      0.4565000              1.0000000
F    1   1.00
      1.0000000              1.0000000
****
}

set {
opt_type min
reference rhf
freeze_core true
e_convergence 10
d_convergence 10
ensure_bt_convergence true
dft_spherical_points 590
dft_radial_points 99
}

e = energy('b3lyp')

print_out('Grab this energy {0}'.format(e))
--------------------------------------------------------------------------

    Molecular point group: c1

    Geometry (in Bohr), charge = 0, multiplicity = 1:

       Center              X                  Y                   Z               Mass
    ------------   -----------------  -----------------  -----------------  -----------------
         N            2.512502506296    -0.004888068107     0.008379311602    14.003074004430
         C            0.316630723196     0.004583083393    -0.007847169998    12.000000000000
         C           -2.454173103404     0.000974519893    -0.001675435998    12.000000000000
         H           -3.163072983404     0.964911128193    -1.671282547898     1.007825032230
         H           -3.147559141104    -1.939397173507    -0.007548144398     1.007825032230
         H           -3.147606820404     0.976229145493     1.675789640102     1.007825032230

  Charge       = 0
  Multiplicity = 1
  Basis Set: ANONYMOUSC5687160
    Blend: 6-31G_2DFP_
  Basis Set: (ANONYMOUSC5687160 AUX)
    Blend: DEF2-UNIVERSAL-JKFIT

    Orbital Energies [Eh]
    ---------------------

    Doubly Occupied:

       1A    -14.332933     2A    -10.235501     3A    -10.224438
       4A     -0.899008     5A     -0.776425     6A     -0.514739
       7A     -0.465663     8A     -0.464738     9A     -0.357646
      10A     -0.325656    11A     -0.325581

  @DF-RKS Final Energy:  -132.76126680351794

   => Energetics <=

    Nuclear Repulsion Energy =             58.2523170156835306
    One-Electron Energy =                -293.2332107464961837
    Two-Electron Energy =                 117.4395571125995446
    DFT Exchange-Correlation Energy =     -15.2199301853048450
    Empirical Dispersion Energy =           0.0000000000000000
    VV10 Nonlocal Energy =                  0.0000000000000000
    Total Energy =                       -132.7612668035179411

  Dipole Moment: [D]
     X:    -3.8278      Y:     0.0067      Z:    -0.0115     Total:     3.8278

*** Psi4 exiting successfully. Buy a developer a beer!
