                               Psi4 1.4a2.dev629

  ==> Input File <==

--------------------------------------------------------------------------
import os
memory 14 GB

molecule {
 N    2.5142094913   -0.0075301994   -0.0043448321
 X    0.3166073300    1.0000000000    0.0000000000
 C    0.3127410183    0.0019840488    0.0011478996
 X    0.3166073300    0.0000000000    1.0000000000
 C   -2.4508100676    0.0022572218    0.0013109094
 H   -3.1531897127    0.9717236753   -1.6751710256
 H   -3.1414052282   -1.9378123151    0.0019831997
 H   -3.1649480711    0.9693775686    1.6750738490
units bohr
}

basis {

assign 6-31g_2dfp_

[ 6-31g_2dfp_ ]
spherical

!----------------------------------------------------------------------
! Basis Set Exchange
! Version v0.8.13
! https://www.basissetexchange.org
!----------------------------------------------------------------------
!   Basis set: 6-31G(2df,p)
! Description: 6-31G(2df,p)
!        Role: orbital
!     Version: 0  (Data from the original Basis Set Exchange)
!----------------------------------------------------------------------

****
H     0
S    3   1.00
     18.7311370              0.03349460
      2.8253937              0.23472695
      0.6401217              0.81375733
S    1   1.00
      0.1612778              1.00000000
P    1   1.00
      1.5000000              1.0000000
P    1   1.00
      0.3750000              1.0000000
****
C     0
S    6   1.00
   3047.5249000              0.0018347
    457.3695100              0.0140373
    103.9486900              0.0688426
     29.2101550              0.2321844
      9.2866630              0.4679413
      3.1639270              0.3623120
SP   3   1.00
      7.8682724             -0.1193324              0.0689991
      1.8812885             -0.1608542              0.3164240
      0.5442493              1.1434564              0.7443083
SP   1   1.00
      0.1687144              1.0000000              1.0000000
D    1   1.00
      1.2520000              1.0000000
D    1   1.00
      0.3130000              1.0000000
F    1   1.00
      0.8000000              1.0000000
****
N     0
S    6   1.00
   4173.5110000              0.0018348
    627.4579000              0.0139950
    142.9021000              0.0685870
     40.2343300              0.2322410
     12.8202100              0.4690700
      4.3904370              0.3604550
SP   3   1.00
     11.6263580             -0.1149610              0.0675800
      2.7162800             -0.1691180              0.3239070
      0.7722180              1.1458520              0.7408950
SP   1   1.00
      0.2120313              1.0000000              1.0000000
D    1   1.00
      1.8260000              1.0000000
D    1   1.00
      0.4565000              1.0000000
F    1   1.00
      1.0000000              1.0000000
****
}

set {
opt_type min
reference rhf
freeze_core true
e_convergence 10
d_convergence 10
ensure_bt_convergence true
dft_spherical_points 590
dft_radial_points 99
}

e = energy('b3lyp')

print_out('Grab this energy {0}'.format(e))
--------------------------------------------------------------------------

    Molecular point group: c1

    Geometry (in Bohr), charge = 0, multiplicity = 1:

       Center              X                  Y                   Z               Mass
    ------------   -----------------  -----------------  -----------------  -----------------
         N            2.513812949619    -0.006281348872    -0.003627381649    14.003074004430
         C            0.312344476619     0.003232899328     0.001865350051    12.000000000000
         C           -2.451206609281     0.003506072328     0.002028359851    12.000000000000
         H           -3.153586254381     0.972972525828    -1.674453575149     1.007825032230
         H           -3.141801769881    -1.936563464572     0.002700650151     1.007825032230
         H           -3.165344612781     0.970626419128     1.675791299451     1.007825032230

  Charge       = 0
  Multiplicity = 1
  Basis Set: ANONYMOUSC9952F2E
    Blend: 6-31G_2DFP_
  Basis Set: (ANONYMOUSC9952F2E AUX)
    Blend: DEF2-UNIVERSAL-JKFIT

    Orbital Energies [Eh]
    ---------------------

    Doubly Occupied:

       1A    -14.333614     2A    -10.235461     3A    -10.225023
       4A     -0.898086     5A     -0.776876     6A     -0.515604
       7A     -0.465651     8A     -0.464718     9A     -0.357871
      10A     -0.324872    11A     -0.324871

  @DF-RKS Final Energy:  -132.76121525449713

   => Energetics <=

    Nuclear Repulsion Energy =             58.2359238266166201
    One-Electron Energy =                -293.2010524175140631
    Two-Electron Energy =                 117.4218927831664274
    DFT Exchange-Correlation Energy =     -15.2179794467661083
    Empirical Dispersion Energy =           0.0000000000000000
    VV10 Nonlocal Energy =                  0.0000000000000000
    Total Energy =                       -132.7612152544971309

  Dipole Moment: [D]
     X:    -3.8305      Y:     0.0082      Z:     0.0047     Total:     3.8305

*** Psi4 exiting successfully. Buy a developer a beer!
