                               Psi4 1.4a2.dev629

  ==> Input File <==

--------------------------------------------------------------------------
import os
memory 14 GB

molecule {
 N    2.5142156434    0.0027121786   -0.0047190426
 X    0.3166073300    1.0000000000   -0.0000000000
 C    0.3127435008   -0.0023807581    0.0041464197
 X    0.3166073300   -0.0000000000    1.0000000000
 C   -2.4508075696   -0.0021730867    0.0037672541
 H   -3.1493251273    0.9653680566   -1.6720680965
 H   -3.1551085797   -1.9395148831   -0.0071965887
 H   -3.1551204376    0.9759884928    1.6760700541
units bohr
}

basis {

assign 6-31g_2dfp_

[ 6-31g_2dfp_ ]
spherical

!----------------------------------------------------------------------
! Basis Set Exchange
! Version v0.8.13
! https://www.basissetexchange.org
!----------------------------------------------------------------------
!   Basis set: 6-31G(2df,p)
! Description: 6-31G(2df,p)
!        Role: orbital
!     Version: 0  (Data from the original Basis Set Exchange)
!----------------------------------------------------------------------

****
H     0
S    3   1.00
     18.7311370              0.03349460
      2.8253937              0.23472695
      0.6401217              0.81375733
S    1   1.00
      0.1612778              1.00000000
P    1   1.00
      1.5000000              1.0000000
P    1   1.00
      0.3750000              1.0000000
****
C     0
S    6   1.00
   3047.5249000              0.0018347
    457.3695100              0.0140373
    103.9486900              0.0688426
     29.2101550              0.2321844
      9.2866630              0.4679413
      3.1639270              0.3623120
SP   3   1.00
      7.8682724             -0.1193324              0.0689991
      1.8812885             -0.1608542              0.3164240
      0.5442493              1.1434564              0.7443083
SP   1   1.00
      0.1687144              1.0000000              1.0000000
D    1   1.00
      1.2520000              1.0000000
D    1   1.00
      0.3130000              1.0000000
F    1   1.00
      0.8000000              1.0000000
****
N     0
S    6   1.00
   4173.5110000              0.0018348
    627.4579000              0.0139950
    142.9021000              0.0685870
     40.2343300              0.2322410
     12.8202100              0.4690700
      4.3904370              0.3604550
SP   3   1.00
     11.6263580             -0.1149610              0.0675800
      2.7162800             -0.1691180              0.3239070
      0.7722180              1.1458520              0.7408950
SP   1   1.00
      0.2120313              1.0000000              1.0000000
D    1   1.00
      1.8260000              1.0000000
D    1   1.00
      0.4565000              1.0000000
F    1   1.00
      1.0000000              1.0000000
****
}

set {
opt_type min
reference rhf
freeze_core true
e_convergence 10
d_convergence 10
ensure_bt_convergence true
dft_spherical_points 590
dft_radial_points 99
}

e = energy('b3lyp')

print_out('Grab this energy {0}'.format(e))
--------------------------------------------------------------------------

    Molecular point group: c1

    Geometry (in Bohr), charge = 0, multiplicity = 1:

       Center              X                  Y                   Z               Mass
    ------------   -----------------  -----------------  -----------------  -----------------
         N            2.513815818610     0.003073194159    -0.005344573000    14.003074004430
         C            0.312343676010    -0.002019742541     0.003520889300    12.000000000000
         C           -2.451207394390    -0.001812071141     0.003141723700    12.000000000000
         H           -3.149724952090     0.965729072159    -1.672693626900     1.007825032230
         H           -3.155508404490    -1.939153867541    -0.007822119100     1.007825032230
         H           -3.155520262390     0.976349508359     1.675444523700     1.007825032230

  Charge       = 0
  Multiplicity = 1
  Basis Set: ANONYMOUSACCFDAD0
    Blend: 6-31G_2DFP_
  Basis Set: (ANONYMOUSACCFDAD0 AUX)
    Blend: DEF2-UNIVERSAL-JKFIT

    Orbital Energies [Eh]
    ---------------------

    Doubly Occupied:

       1A    -14.333614     2A    -10.235461     3A    -10.225022
       4A     -0.898086     5A     -0.776877     6A     -0.515601
       7A     -0.465711     8A     -0.464658     9A     -0.357872
      10A     -0.324967    11A     -0.324777

  @DF-RKS Final Energy:  -132.76121263597352

   => Energetics <=

    Nuclear Repulsion Energy =             58.2359042742902275
    One-Electron Energy =                -293.2010132063858237
    Two-Electron Energy =                 117.4218756960660812
    DFT Exchange-Correlation Energy =     -15.2179793999439923
    Empirical Dispersion Energy =           0.0000000000000000
    VV10 Nonlocal Energy =                  0.0000000000000000
    Total Energy =                       -132.7612126359735214

  Dipole Moment: [D]
     X:    -3.8305      Y:    -0.0016      Z:     0.0028     Total:     3.8305

*** Psi4 exiting successfully. Buy a developer a beer!
