                               Psi4 1.4a2.dev629

  ==> Input File <==

--------------------------------------------------------------------------
import os
memory 14 GB

molecule {
 N    2.5082084660   -0.0027180236    0.0046866076
 X    0.3166073300    1.0000000000    0.0000000000
 C    0.3157299540    0.0023844782   -0.0041074144
 X    0.3166073300    0.0000000000    1.0000000000
 C   -2.4509341099    0.0021601735   -0.0037382268
 H   -3.1559918515    0.9682327245   -1.6770298764
 H   -3.1502016980   -1.9276804695    0.0071796257
 H   -3.1502133305    0.9576211169    1.6730092842
units bohr
}

basis {

assign 6-31g_2dfp_

[ 6-31g_2dfp_ ]
spherical

!----------------------------------------------------------------------
! Basis Set Exchange
! Version v0.8.13
! https://www.basissetexchange.org
!----------------------------------------------------------------------
!   Basis set: 6-31G(2df,p)
! Description: 6-31G(2df,p)
!        Role: orbital
!     Version: 0  (Data from the original Basis Set Exchange)
!----------------------------------------------------------------------

****
H     0
S    3   1.00
     18.7311370              0.03349460
      2.8253937              0.23472695
      0.6401217              0.81375733
S    1   1.00
      0.1612778              1.00000000
P    1   1.00
      1.5000000              1.0000000
P    1   1.00
      0.3750000              1.0000000
****
C     0
S    6   1.00
   3047.5249000              0.0018347
    457.3695100              0.0140373
    103.9486900              0.0688426
     29.2101550              0.2321844
      9.2866630              0.4679413
      3.1639270              0.3623120
SP   3   1.00
      7.8682724             -0.1193324              0.0689991
      1.8812885             -0.1608542              0.3164240
      0.5442493              1.1434564              0.7443083
SP   1   1.00
      0.1687144              1.0000000              1.0000000
D    1   1.00
      1.2520000              1.0000000
D    1   1.00
      0.3130000              1.0000000
F    1   1.00
      0.8000000              1.0000000
****
N     0
S    6   1.00
   4173.5110000              0.0018348
    627.4579000              0.0139950
    142.9021000              0.0685870
     40.2343300              0.2322410
     12.8202100              0.4690700
      4.3904370              0.3604550
SP   3   1.00
     11.6263580             -0.1149610              0.0675800
      2.7162800             -0.1691180              0.3239070
      0.7722180              1.1458520              0.7408950
SP   1   1.00
      0.2120313              1.0000000              1.0000000
D    1   1.00
      1.8260000              1.0000000
D    1   1.00
      0.4565000              1.0000000
F    1   1.00
      1.0000000              1.0000000
****
}

set {
opt_type min
reference rhf
freeze_core true
e_convergence 10
d_convergence 10
ensure_bt_convergence true
dft_spherical_points 590
dft_radial_points 99
}

e = energy('b3lyp')

print_out('Grab this energy {0}'.format(e))
--------------------------------------------------------------------------

    Molecular point group: c1

    Geometry (in Bohr), charge = 0, multiplicity = 1:

       Center              X                  Y                   Z               Mass
    ------------   -----------------  -----------------  -----------------  -----------------
         N            2.508945176061    -0.003074724653     0.005304183995    14.003074004430
         C            0.316466664061     0.002027777147    -0.003489838005    12.000000000000
         C           -2.450197399839     0.001803472447    -0.003120650405    12.000000000000
         H           -3.155255141439     0.967876023447    -1.676412300005     1.007825032230
         H           -3.149464987939    -1.928037170553     0.007797202095     1.007825032230
         H           -3.149476620439     0.957264415847     1.673626860595     1.007825032230

  Charge       = 0
  Multiplicity = 1
  Basis Set: ANONYMOUS050D79CD
    Blend: 6-31G_2DFP_
  Basis Set: (ANONYMOUS050D79CD AUX)
    Blend: DEF2-UNIVERSAL-JKFIT

    Orbital Energies [Eh]
    ---------------------

    Doubly Occupied:

       1A    -14.332483     2A    -10.234581     3A    -10.223893
       4A     -0.899728     5A     -0.777165     6A     -0.515468
       7A     -0.466104     8A     -0.465045     9A     -0.357571
      10A     -0.326075    11A     -0.325885

  @DF-RKS Final Energy:  -132.76130895525239

   => Energetics <=

    Nuclear Repulsion Energy =             58.3443678443141920
    One-Electron Energy =                -293.4111054546639821
    Two-Electron Energy =                 117.5296309167567017
    DFT Exchange-Correlation Energy =     -15.2242022616593271
    Empirical Dispersion Energy =           0.0000000000000000
    VV10 Nonlocal Energy =                  0.0000000000000000
    Total Energy =                       -132.7613089552523888

  Dipole Moment: [D]
     X:    -3.8264      Y:     0.0017      Z:    -0.0028     Total:     3.8264

*** Psi4 exiting successfully. Buy a developer a beer!
