                               Psi4 1.4a2.dev629

  ==> Input File <==

--------------------------------------------------------------------------
import os
memory 14 GB

molecule {
 N    2.5125305385   -0.0073179650   -0.0046971182
 X    0.3166073300    1.0000000000    0.0000000000
 C    0.3166064953    0.0012467706    0.0023832033
 X    0.3166073300    0.0000000000    1.0000000000
 C   -2.4541998707    0.0045658312   -0.0027181663
 H   -3.1525878782    0.9705997080   -1.6732146644
 H   -3.1410927012   -1.9383470882    0.0024550308
 H   -3.1646591538    0.9692527434    1.6757917148
units bohr
}

basis {

assign 6-31g_2dfp_

[ 6-31g_2dfp_ ]
spherical

!----------------------------------------------------------------------
! Basis Set Exchange
! Version v0.8.13
! https://www.basissetexchange.org
!----------------------------------------------------------------------
!   Basis set: 6-31G(2df,p)
! Description: 6-31G(2df,p)
!        Role: orbital
!     Version: 0  (Data from the original Basis Set Exchange)
!----------------------------------------------------------------------

****
H     0
S    3   1.00
     18.7311370              0.03349460
      2.8253937              0.23472695
      0.6401217              0.81375733
S    1   1.00
      0.1612778              1.00000000
P    1   1.00
      1.5000000              1.0000000
P    1   1.00
      0.3750000              1.0000000
****
C     0
S    6   1.00
   3047.5249000              0.0018347
    457.3695100              0.0140373
    103.9486900              0.0688426
     29.2101550              0.2321844
      9.2866630              0.4679413
      3.1639270              0.3623120
SP   3   1.00
      7.8682724             -0.1193324              0.0689991
      1.8812885             -0.1608542              0.3164240
      0.5442493              1.1434564              0.7443083
SP   1   1.00
      0.1687144              1.0000000              1.0000000
D    1   1.00
      1.2520000              1.0000000
D    1   1.00
      0.3130000              1.0000000
F    1   1.00
      0.8000000              1.0000000
****
N     0
S    6   1.00
   4173.5110000              0.0018348
    627.4579000              0.0139950
    142.9021000              0.0685870
     40.2343300              0.2322410
     12.8202100              0.4690700
      4.3904370              0.3604550
SP   3   1.00
     11.6263580             -0.1149610              0.0675800
      2.7162800             -0.1691180              0.3239070
      0.7722180              1.1458520              0.7408950
SP   1   1.00
      0.2120313              1.0000000              1.0000000
D    1   1.00
      1.8260000              1.0000000
D    1   1.00
      0.4565000              1.0000000
F    1   1.00
      1.0000000              1.0000000
****
}

set {
opt_type min
reference rhf
freeze_core true
e_convergence 10
d_convergence 10
ensure_bt_convergence true
dft_spherical_points 590
dft_radial_points 99
}

e = energy('b3lyp')

print_out('Grab this energy {0}'.format(e))
--------------------------------------------------------------------------

    Molecular point group: c1

    Geometry (in Bohr), charge = 0, multiplicity = 1:

       Center              X                  Y                   Z               Mass
    ------------   -----------------  -----------------  -----------------  -----------------
         N            2.512538362269    -0.006557344333    -0.003119549680    14.003074004430
         C            0.316614319069     0.002007391267     0.003960771820    12.000000000000
         C           -2.454192046931     0.005326451867    -0.001140597780    12.000000000000
         H           -3.152580054431     0.971360328667    -1.671637095880     1.007825032230
         H           -3.141084877431    -1.937586467533     0.004032599320     1.007825032230
         H           -3.164651330031     0.970013364067     1.677369283320     1.007825032230

  Charge       = 0
  Multiplicity = 1
  Basis Set: ANONYMOUS568DD6E7
    Blend: 6-31G_2DFP_
  Basis Set: (ANONYMOUS568DD6E7 AUX)
    Blend: DEF2-UNIVERSAL-JKFIT

    Orbital Energies [Eh]
    ---------------------

    Doubly Occupied:

       1A    -14.332932     2A    -10.235503     3A    -10.224441
       4A     -0.899007     5A     -0.776428     6A     -0.514744
       7A     -0.465930     8A     -0.464474     9A     -0.357645
      10A     -0.325710    11A     -0.325526

  @DF-RKS Final Energy:  -132.76126431838193

   => Energetics <=

    Nuclear Repulsion Energy =             58.2522414100270680
    One-Electron Energy =                -293.2330277634179083
    Two-Electron Energy =                 117.4394538182508541
    DFT Exchange-Correlation Energy =     -15.2199317832419414
    Empirical Dispersion Energy =           0.0000000000000000
    VV10 Nonlocal Energy =                  0.0000000000000000
    Total Energy =                       -132.7612643183819330

  Dipole Moment: [D]
     X:    -3.8279      Y:     0.0087      Z:     0.0038     Total:     3.8279

*** Psi4 exiting successfully. Buy a developer a beer!
