                               Psi4 1.4a2.dev629

  ==> Input File <==

--------------------------------------------------------------------------
import os
memory 14 GB

molecule {
 N    2.5087090148   -0.0075138547   -0.0043354125
 X    0.3166073300    1.0000000000    0.0000000000
 C    0.3196858721    0.0019633607    0.0011359709
 X    0.3166073300    0.0000000000    1.0000000000
 C   -2.4497684705    0.0022582048    0.0013114834
 H   -3.1540183594    0.9723102536   -1.6761704146
 H   -3.1422412926   -1.9389761204    0.0019873036
 H   -3.1657693344    0.9699581560    1.6760710692
units bohr
}

basis {

assign 6-31g_2dfp_

[ 6-31g_2dfp_ ]
spherical

!----------------------------------------------------------------------
! Basis Set Exchange
! Version v0.8.13
! https://www.basissetexchange.org
!----------------------------------------------------------------------
!   Basis set: 6-31G(2df,p)
! Description: 6-31G(2df,p)
!        Role: orbital
!     Version: 0  (Data from the original Basis Set Exchange)
!----------------------------------------------------------------------

****
H     0
S    3   1.00
     18.7311370              0.03349460
      2.8253937              0.23472695
      0.6401217              0.81375733
S    1   1.00
      0.1612778              1.00000000
P    1   1.00
      1.5000000              1.0000000
P    1   1.00
      0.3750000              1.0000000
****
C     0
S    6   1.00
   3047.5249000              0.0018347
    457.3695100              0.0140373
    103.9486900              0.0688426
     29.2101550              0.2321844
      9.2866630              0.4679413
      3.1639270              0.3623120
SP   3   1.00
      7.8682724             -0.1193324              0.0689991
      1.8812885             -0.1608542              0.3164240
      0.5442493              1.1434564              0.7443083
SP   1   1.00
      0.1687144              1.0000000              1.0000000
D    1   1.00
      1.2520000              1.0000000
D    1   1.00
      0.3130000              1.0000000
F    1   1.00
      0.8000000              1.0000000
****
N     0
S    6   1.00
   4173.5110000              0.0018348
    627.4579000              0.0139950
    142.9021000              0.0685870
     40.2343300              0.2322410
     12.8202100              0.4690700
      4.3904370              0.3604550
SP   3   1.00
     11.6263580             -0.1149610              0.0675800
      2.7162800             -0.1691180              0.3239070
      0.7722180              1.1458520              0.7408950
SP   1   1.00
      0.2120313              1.0000000              1.0000000
D    1   1.00
      1.8260000              1.0000000
D    1   1.00
      0.4565000              1.0000000
F    1   1.00
      1.0000000              1.0000000
****
}

set {
opt_type min
reference rhf
freeze_core true
e_convergence 10
d_convergence 10
ensure_bt_convergence true
dft_spherical_points 590
dft_radial_points 99
}

e = energy('b3lyp')

print_out('Grab this energy {0}'.format(e))
--------------------------------------------------------------------------

    Molecular point group: c1

    Geometry (in Bohr), charge = 0, multiplicity = 1:

       Center              X                  Y                   Z               Mass
    ------------   -----------------  -----------------  -----------------  -----------------
         N            2.507914964568    -0.006264901837    -0.003617903482    14.003074004430
         C            0.318891821868     0.003212313563     0.001853479918    12.000000000000
         C           -2.450562520732     0.003507157663     0.002028992418    12.000000000000
         H           -3.154812409632     0.973559206463    -1.675452905582     1.007825032230
         H           -3.143035342832    -1.937727167537     0.002704812618     1.007825032230
         H           -3.166563384632     0.971207108863     1.676788578218     1.007825032230

  Charge       = 0
  Multiplicity = 1
  Basis Set: ANONYMOUSF3FE1655
    Blend: 6-31G_2DFP_
  Basis Set: (ANONYMOUSF3FE1655 AUX)
    Blend: DEF2-UNIVERSAL-JKFIT

    Orbital Energies [Eh]
    ---------------------

    Doubly Occupied:

       1A    -14.332125     2A    -10.235780     3A    -10.223588
       4A     -0.900364     5A     -0.776061     6A     -0.514779
       7A     -0.465111     8A     -0.464180     9A     -0.357501
      10A     -0.326380    11A     -0.326378

  @DF-RKS Final Energy:  -132.76138307026102

   => Energetics <=

    Nuclear Repulsion Energy =             58.3139151767063311
    One-Electron Energy =                -293.3555975774717695
    Two-Electron Energy =                 117.5019942159895550
    DFT Exchange-Correlation Energy =     -15.2216948854851264
    Empirical Dispersion Energy =           0.0000000000000000
    VV10 Nonlocal Energy =                  0.0000000000000000
    Total Energy =                       -132.7613830702610187

  Dipole Moment: [D]
     X:    -3.8228      Y:     0.0082      Z:     0.0047     Total:     3.8228

*** Psi4 exiting successfully. Buy a developer a beer!
