                               Psi4 1.4a2.dev629

  ==> Input File <==

--------------------------------------------------------------------------
import os
memory 14 GB

molecule {
 N    2.5020517949   -0.0027184123    0.0046872414
 X    0.3166073300    1.0000000000    0.0000000000
 C    0.3092427096    0.0023870355   -0.0041118489
 X    0.3166073300    0.0000000000    1.0000000000
 C   -2.4562595344    0.0021653642   -0.0037472574
 H   -3.1499949009    0.9727636033   -1.6848775605
 H   -3.1442154632   -1.9366895719    0.0072185522
 H   -3.1442271760    0.9620919811    1.6808308732
units bohr
}

basis {

assign 6-31g_2dfp_

[ 6-31g_2dfp_ ]
spherical

!----------------------------------------------------------------------
! Basis Set Exchange
! Version v0.8.13
! https://www.basissetexchange.org
!----------------------------------------------------------------------
!   Basis set: 6-31G(2df,p)
! Description: 6-31G(2df,p)
!        Role: orbital
!     Version: 0  (Data from the original Basis Set Exchange)
!----------------------------------------------------------------------

****
H     0
S    3   1.00
     18.7311370              0.03349460
      2.8253937              0.23472695
      0.6401217              0.81375733
S    1   1.00
      0.1612778              1.00000000
P    1   1.00
      1.5000000              1.0000000
P    1   1.00
      0.3750000              1.0000000
****
C     0
S    6   1.00
   3047.5249000              0.0018347
    457.3695100              0.0140373
    103.9486900              0.0688426
     29.2101550              0.2321844
      9.2866630              0.4679413
      3.1639270              0.3623120
SP   3   1.00
      7.8682724             -0.1193324              0.0689991
      1.8812885             -0.1608542              0.3164240
      0.5442493              1.1434564              0.7443083
SP   1   1.00
      0.1687144              1.0000000              1.0000000
D    1   1.00
      1.2520000              1.0000000
D    1   1.00
      0.3130000              1.0000000
F    1   1.00
      0.8000000              1.0000000
****
N     0
S    6   1.00
   4173.5110000              0.0018348
    627.4579000              0.0139950
    142.9021000              0.0685870
     40.2343300              0.2322410
     12.8202100              0.4690700
      4.3904370              0.3604550
SP   3   1.00
     11.6263580             -0.1149610              0.0675800
      2.7162800             -0.1691180              0.3239070
      0.7722180              1.1458520              0.7408950
SP   1   1.00
      0.2120313              1.0000000              1.0000000
D    1   1.00
      1.8260000              1.0000000
D    1   1.00
      0.4565000              1.0000000
F    1   1.00
      1.0000000              1.0000000
****
}

set {
opt_type min
reference rhf
freeze_core true
e_convergence 10
d_convergence 10
ensure_bt_convergence true
dft_spherical_points 590
dft_radial_points 99
}

e = energy('b3lyp')

print_out('Grab this energy {0}'.format(e))
--------------------------------------------------------------------------

    Molecular point group: c1

    Geometry (in Bohr), charge = 0, multiplicity = 1:

       Center              X                  Y                   Z               Mass
    ------------   -----------------  -----------------  -----------------  -----------------
         N            2.507903592675    -0.003077066138     0.005308224717    14.003074004430
         C            0.315094507375     0.002028381662    -0.003490865583    12.000000000000
         C           -2.450407736625     0.001806710362    -0.003126274083    12.000000000000
         H           -3.144143103125     0.972404949462    -1.684256577183     1.007825032230
         H           -3.138363665425    -1.937048225738     0.007839535517     1.007825032230
         H           -3.138375378225     0.961733327262     1.681451856517     1.007825032230

  Charge       = 0
  Multiplicity = 1
  Basis Set: ANONYMOUSE46BE902
    Blend: 6-31G_2DFP_
  Basis Set: (ANONYMOUSE46BE902 AUX)
    Blend: DEF2-UNIVERSAL-JKFIT

    Orbital Energies [Eh]
    ---------------------

    Doubly Occupied:

       1A    -14.332245     2A    -10.235268     3A    -10.223616
       4A     -0.899510     5A     -0.776959     6A     -0.514000
       7A     -0.466397     8A     -0.465339     9A     -0.357337
      10A     -0.325792    11A     -0.325601

  @DF-RKS Final Energy:  -132.76131319600606

   => Energetics <=

    Nuclear Repulsion Energy =             58.3367849446993318
    One-Electron Energy =                -293.4010916603509713
    Two-Electron Energy =                 117.5253772319140637
    DFT Exchange-Correlation Energy =     -15.2223837122684920
    Empirical Dispersion Energy =           0.0000000000000000
    VV10 Nonlocal Energy =                  0.0000000000000000
    Total Energy =                       -132.7613131960060571

  Dipole Moment: [D]
     X:    -3.8232      Y:     0.0017      Z:    -0.0029     Total:     3.8232

*** Psi4 exiting successfully. Buy a developer a beer!
