                               Psi4 1.4a2.dev629

  ==> Input File <==

--------------------------------------------------------------------------
import os
memory 14 GB

molecule {
 N    2.5020455842    0.0075251942    0.0043473092
 X    0.3166073300    1.0000000000   -0.0000000000
 C    0.3092403135   -0.0019702130   -0.0011350712
 X    0.3166073300   -0.0000000000    1.0000000000
 C   -2.4562619462   -0.0022401141   -0.0012855766
 H   -3.1461507582    0.9664275723   -1.6817468855
 H   -3.1579288288   -1.9384421247   -0.0019540255
 H   -3.1343469345    0.9686996853    1.6817742497
units bohr
}

basis {

assign 6-31g_2dfp_

[ 6-31g_2dfp_ ]
spherical

!----------------------------------------------------------------------
! Basis Set Exchange
! Version v0.8.13
! https://www.basissetexchange.org
!----------------------------------------------------------------------
!   Basis set: 6-31G(2df,p)
! Description: 6-31G(2df,p)
!        Role: orbital
!     Version: 0  (Data from the original Basis Set Exchange)
!----------------------------------------------------------------------

****
H     0
S    3   1.00
     18.7311370              0.03349460
      2.8253937              0.23472695
      0.6401217              0.81375733
S    1   1.00
      0.1612778              1.00000000
P    1   1.00
      1.5000000              1.0000000
P    1   1.00
      0.3750000              1.0000000
****
C     0
S    6   1.00
   3047.5249000              0.0018347
    457.3695100              0.0140373
    103.9486900              0.0688426
     29.2101550              0.2321844
      9.2866630              0.4679413
      3.1639270              0.3623120
SP   3   1.00
      7.8682724             -0.1193324              0.0689991
      1.8812885             -0.1608542              0.3164240
      0.5442493              1.1434564              0.7443083
SP   1   1.00
      0.1687144              1.0000000              1.0000000
D    1   1.00
      1.2520000              1.0000000
D    1   1.00
      0.3130000              1.0000000
F    1   1.00
      0.8000000              1.0000000
****
N     0
S    6   1.00
   4173.5110000              0.0018348
    627.4579000              0.0139950
    142.9021000              0.0685870
     40.2343300              0.2322410
     12.8202100              0.4690700
      4.3904370              0.3604550
SP   3   1.00
     11.6263580             -0.1149610              0.0675800
      2.7162800             -0.1691180              0.3239070
      0.7722180              1.1458520              0.7408950
SP   1   1.00
      0.2120313              1.0000000              1.0000000
D    1   1.00
      1.8260000              1.0000000
D    1   1.00
      0.4565000              1.0000000
F    1   1.00
      1.0000000              1.0000000
****
}

set {
opt_type min
reference rhf
freeze_core true
e_convergence 10
d_convergence 10
ensure_bt_convergence true
dft_spherical_points 590
dft_radial_points 99
}

e = energy('b3lyp')

print_out('Grab this energy {0}'.format(e))
--------------------------------------------------------------------------

    Molecular point group: c1

    Geometry (in Bohr), charge = 0, multiplicity = 1:

       Center              X                  Y                   Z               Mass
    ------------   -----------------  -----------------  -----------------  -----------------
         N            2.507900637401     0.006269638440     0.003618849653    14.003074004430
         C            0.315095366701    -0.003225768760    -0.001863530747    12.000000000000
         C           -2.450406892999    -0.003495669860    -0.002014036147    12.000000000000
         H           -3.140295704999     0.965172016540    -1.682475345047     1.007825032230
         H           -3.152073775599    -1.939697680460    -0.002682485047     1.007825032230
         H           -3.128491881299     0.967444129540     1.681045790153     1.007825032230

  Charge       = 0
  Multiplicity = 1
  Basis Set: ANONYMOUS22F31144
    Blend: 6-31G_2DFP_
  Basis Set: (ANONYMOUS22F31144 AUX)
    Blend: DEF2-UNIVERSAL-JKFIT

    Orbital Energies [Eh]
    ---------------------

    Doubly Occupied:

       1A    -14.332245     2A    -10.235269     3A    -10.223617
       4A     -0.899510     5A     -0.776958     6A     -0.514003
       7A     -0.466332     8A     -0.465405     9A     -0.357336
      10A     -0.325698    11A     -0.325695

  @DF-RKS Final Energy:  -132.76131586563795

   => Energetics <=

    Nuclear Repulsion Energy =             58.3368050142810688
    One-Electron Energy =                -293.4011317232121883
    Two-Electron Energy =                 117.5253946149987314
    DFT Exchange-Correlation Energy =     -15.2223837717055748
    Empirical Dispersion Energy =           0.0000000000000000
    VV10 Nonlocal Energy =                  0.0000000000000000
    Total Energy =                       -132.7613158656379539

  Dipole Moment: [D]
     X:    -3.8232      Y:    -0.0082      Z:    -0.0048     Total:     3.8232

*** Psi4 exiting successfully. Buy a developer a beer!
