                               Psi4 1.4a2.dev629

  ==> Input File <==

--------------------------------------------------------------------------
import os
memory 14 GB

molecule {
 N    2.5230198256    0.0027102321   -0.0047156245
 X    0.3166073300    1.0000000000   -0.0000000000
 C    0.3239719126   -0.0023780266    0.0041416868
 X    0.3166073300   -0.0000000000    1.0000000000
 C   -2.4521518768   -0.0021704219    0.0037626362
 H   -3.1555544187    0.9634504469   -1.6687467134
 H   -3.1613381157   -1.9356574345   -0.0071797853
 H   -3.1613498969    0.9740452039    1.6727378002
units bohr
}

basis {

assign 6-31g_2dfp_

[ 6-31g_2dfp_ ]
spherical

!----------------------------------------------------------------------
! Basis Set Exchange
! Version v0.8.13
! https://www.basissetexchange.org
!----------------------------------------------------------------------
!   Basis set: 6-31G(2df,p)
! Description: 6-31G(2df,p)
!        Role: orbital
!     Version: 0  (Data from the original Basis Set Exchange)
!----------------------------------------------------------------------

****
H     0
S    3   1.00
     18.7311370              0.03349460
      2.8253937              0.23472695
      0.6401217              0.81375733
S    1   1.00
      0.1612778              1.00000000
P    1   1.00
      1.5000000              1.0000000
P    1   1.00
      0.3750000              1.0000000
****
C     0
S    6   1.00
   3047.5249000              0.0018347
    457.3695100              0.0140373
    103.9486900              0.0688426
     29.2101550              0.2321844
      9.2866630              0.4679413
      3.1639270              0.3623120
SP   3   1.00
      7.8682724             -0.1193324              0.0689991
      1.8812885             -0.1608542              0.3164240
      0.5442493              1.1434564              0.7443083
SP   1   1.00
      0.1687144              1.0000000              1.0000000
D    1   1.00
      1.2520000              1.0000000
D    1   1.00
      0.3130000              1.0000000
F    1   1.00
      0.8000000              1.0000000
****
N     0
S    6   1.00
   4173.5110000              0.0018348
    627.4579000              0.0139950
    142.9021000              0.0685870
     40.2343300              0.2322410
     12.8202100              0.4690700
      4.3904370              0.3604550
SP   3   1.00
     11.6263580             -0.1149610              0.0675800
      2.7162800             -0.1691180              0.3239070
      0.7722180              1.1458520              0.7408950
SP   1   1.00
      0.2120313              1.0000000              1.0000000
D    1   1.00
      1.8260000              1.0000000
D    1   1.00
      0.4565000              1.0000000
F    1   1.00
      1.0000000              1.0000000
****
}

set {
opt_type min
reference rhf
freeze_core true
e_convergence 10
d_convergence 10
ensure_bt_convergence true
dft_spherical_points 590
dft_radial_points 99
}

e = energy('b3lyp')

print_out('Grab this energy {0}'.format(e))
--------------------------------------------------------------------------

    Molecular point group: c1

    Geometry (in Bohr), charge = 0, multiplicity = 1:

       Center              X                  Y                   Z               Mass
    ------------   -----------------  -----------------  -----------------  -----------------
         N            2.517183025197     0.003070418400    -0.005339732243    14.003074004430
         C            0.318135112197    -0.002017840300     0.003517579057    12.000000000000
         C           -2.457988677203    -0.001810235600     0.003138528457    12.000000000000
         H           -3.161391219103     0.963810633200    -1.669370821143     1.007825032230
         H           -3.167174916103    -1.935297248200    -0.007803893043     1.007825032230
         H           -3.167186697303     0.974405390200     1.672113692457     1.007825032230

  Charge       = 0
  Multiplicity = 1
  Basis Set: ANONYMOUS4144AE59
    Blend: 6-31G_2DFP_
  Basis Set: (ANONYMOUS4144AE59 AUX)
    Blend: DEF2-UNIVERSAL-JKFIT

    Orbital Energies [Eh]
    ---------------------

    Doubly Occupied:

       1A    -14.333618     2A    -10.235736     3A    -10.225264
       4A     -0.898505     5A     -0.775907     6A     -0.515464
       7A     -0.465069     8A     -0.464012     9A     -0.357954
      10A     -0.325633    11A     -0.325446

  @DF-RKS Final Energy:  -132.76118945807323

   => Energetics <=

    Nuclear Repulsion Energy =             58.1679105803369509
    One-Electron Energy =                -293.0653605930718868
    Two-Electron Energy =                 117.3537430433984099
    DFT Exchange-Correlation Energy =     -15.2174824887366977
    Empirical Dispersion Energy =           0.0000000000000000
    VV10 Nonlocal Energy =                  0.0000000000000000
    Total Energy =                       -132.7611894580732326

  Dipole Moment: [D]
     X:    -3.8325      Y:    -0.0016      Z:     0.0028     Total:     3.8325

*** Psi4 exiting successfully. Buy a developer a beer!
