                               Psi4 1.4a2.dev629

  ==> Input File <==

--------------------------------------------------------------------------
import os
memory 14 GB

molecule {
 N    2.5163703933   -0.0027259457    0.0047001580
 X    0.3166073300    1.0000000000    0.0000000000
 C    0.3135401992    0.0023947792   -0.0041250842
 X    0.3166073300    0.0000000000    1.0000000000
 C   -2.4586315008    0.0021624974   -0.0037422676
 H   -3.1554218426    0.9702620036   -1.6805446861
 H   -3.1496240363   -1.9317126008    0.0072003186
 H   -3.1496357829    0.9596192662    1.6765115614
units bohr
}

basis {

assign 6-31g_2dfp_

[ 6-31g_2dfp_ ]
spherical

!----------------------------------------------------------------------
! Basis Set Exchange
! Version v0.8.13
! https://www.basissetexchange.org
!----------------------------------------------------------------------
!   Basis set: 6-31G(2df,p)
! Description: 6-31G(2df,p)
!        Role: orbital
!     Version: 0  (Data from the original Basis Set Exchange)
!----------------------------------------------------------------------

****
H     0
S    3   1.00
     18.7311370              0.03349460
      2.8253937              0.23472695
      0.6401217              0.81375733
S    1   1.00
      0.1612778              1.00000000
P    1   1.00
      1.5000000              1.0000000
P    1   1.00
      0.3750000              1.0000000
****
C     0
S    6   1.00
   3047.5249000              0.0018347
    457.3695100              0.0140373
    103.9486900              0.0688426
     29.2101550              0.2321844
      9.2866630              0.4679413
      3.1639270              0.3623120
SP   3   1.00
      7.8682724             -0.1193324              0.0689991
      1.8812885             -0.1608542              0.3164240
      0.5442493              1.1434564              0.7443083
SP   1   1.00
      0.1687144              1.0000000              1.0000000
D    1   1.00
      1.2520000              1.0000000
D    1   1.00
      0.3130000              1.0000000
F    1   1.00
      0.8000000              1.0000000
****
N     0
S    6   1.00
   4173.5110000              0.0018348
    627.4579000              0.0139950
    142.9021000              0.0685870
     40.2343300              0.2322410
     12.8202100              0.4690700
      4.3904370              0.3604550
SP   3   1.00
     11.6263580             -0.1149610              0.0675800
      2.7162800             -0.1691180              0.3239070
      0.7722180              1.1458520              0.7408950
SP   1   1.00
      0.2120313              1.0000000              1.0000000
D    1   1.00
      1.8260000              1.0000000
D    1   1.00
      0.4565000              1.0000000
F    1   1.00
      1.0000000              1.0000000
****
}

set {
opt_type min
reference rhf
freeze_core true
e_convergence 10
d_convergence 10
ensure_bt_convergence true
dft_spherical_points 590
dft_radial_points 99
}

e = energy('b3lyp')

print_out('Grab this energy {0}'.format(e))
--------------------------------------------------------------------------

    Molecular point group: c1

    Geometry (in Bohr), charge = 0, multiplicity = 1:

       Center              X                  Y                   Z               Mass
    ------------   -----------------  -----------------  -----------------  -----------------
         N            2.517170841559    -0.003083519976     0.005319259157    14.003074004430
         C            0.314340647459     0.002037204924    -0.003505983043    12.000000000000
         C           -2.457831052541     0.001804923124    -0.003123166443    12.000000000000
         H           -3.154621394341     0.969904429324    -1.679925584943     1.007825032230
         H           -3.148823588041    -1.932070175076     0.007819419757     1.007825032230
         H           -3.148835334641     0.959261691924     1.677130662557     1.007825032230

  Charge       = 0
  Multiplicity = 1
  Basis Set: ANONYMOUS780AE7D9
    Blend: 6-31G_2DFP_
  Basis Set: (ANONYMOUS780AE7D9 AUX)
    Blend: DEF2-UNIVERSAL-JKFIT

    Orbital Energies [Eh]
    ---------------------

    Doubly Occupied:

       1A    -14.333735     2A    -10.235225     3A    -10.225287
       4A     -0.897653     5A     -0.776792     6A     -0.514693
       7A     -0.466300     8A     -0.465235     9A     -0.357786
      10A     -0.324954    11A     -0.324767

  @DF-RKS Final Energy:  -132.76109276075721

   => Energetics <=

    Nuclear Repulsion Energy =             58.1909191372101446
    One-Electron Energy =                -293.1110596123482424
    Two-Electron Energy =                 117.3772393343380287
    DFT Exchange-Correlation Energy =     -15.2181916199571390
    Empirical Dispersion Energy =           0.0000000000000000
    VV10 Nonlocal Energy =                  0.0000000000000000
    Total Energy =                       -132.7610927607572080

  Dipole Moment: [D]
     X:    -3.8329      Y:     0.0017      Z:    -0.0028     Total:     3.8329

*** Psi4 exiting successfully. Buy a developer a beer!
