                               Psi4 1.4a2.dev629

  ==> Input File <==

--------------------------------------------------------------------------
import os
memory 14 GB

molecule {
 N    2.5108620716   -0.0031464336   -0.0018129089
 X    0.3166073300    1.0000000000   -0.0000000000
 C    0.3204742159    0.0050815014    0.0029260720
 X    0.3166073300    0.0000000000    1.0000000000
 C   -2.4575964250    0.0008198891    0.0004695033
 H   -3.1523782313    0.9625650717   -1.6795699190
 H   -3.1525105672   -1.9323189571   -0.0030874438
 H   -3.1522536339    0.9669989285    1.6810746965
units bohr
}

basis {

assign 6-31g_2dfp_

[ 6-31g_2dfp_ ]
spherical

!----------------------------------------------------------------------
! Basis Set Exchange
! Version v0.8.13
! https://www.basissetexchange.org
!----------------------------------------------------------------------
!   Basis set: 6-31G(2df,p)
! Description: 6-31G(2df,p)
!        Role: orbital
!     Version: 0  (Data from the original Basis Set Exchange)
!----------------------------------------------------------------------

****
H     0
S    3   1.00
     18.7311370              0.03349460
      2.8253937              0.23472695
      0.6401217              0.81375733
S    1   1.00
      0.1612778              1.00000000
P    1   1.00
      1.5000000              1.0000000
P    1   1.00
      0.3750000              1.0000000
****
C     0
S    6   1.00
   3047.5249000              0.0018347
    457.3695100              0.0140373
    103.9486900              0.0688426
     29.2101550              0.2321844
      9.2866630              0.4679413
      3.1639270              0.3623120
SP   3   1.00
      7.8682724             -0.1193324              0.0689991
      1.8812885             -0.1608542              0.3164240
      0.5442493              1.1434564              0.7443083
SP   1   1.00
      0.1687144              1.0000000              1.0000000
D    1   1.00
      1.2520000              1.0000000
D    1   1.00
      0.3130000              1.0000000
F    1   1.00
      0.8000000              1.0000000
****
N     0
S    6   1.00
   4173.5110000              0.0018348
    627.4579000              0.0139950
    142.9021000              0.0685870
     40.2343300              0.2322410
     12.8202100              0.4690700
      4.3904370              0.3604550
SP   3   1.00
     11.6263580             -0.1149610              0.0675800
      2.7162800             -0.1691180              0.3239070
      0.7722180              1.1458520              0.7408950
SP   1   1.00
      0.2120313              1.0000000              1.0000000
D    1   1.00
      1.8260000              1.0000000
D    1   1.00
      0.4565000              1.0000000
F    1   1.00
      1.0000000              1.0000000
****
}

set {
opt_type min
reference rhf
freeze_core true
e_convergence 10
d_convergence 10
ensure_bt_convergence true
dft_spherical_points 590
dft_radial_points 99
}

e = energy('b3lyp')

print_out('Grab this energy {0}'.format(e))
--------------------------------------------------------------------------

    Molecular point group: c1

    Geometry (in Bohr), charge = 0, multiplicity = 1:

       Center              X                  Y                   Z               Mass
    ------------   -----------------  -----------------  -----------------  -----------------
         N            2.511272147094    -0.003730943617    -0.002148436886    14.003074004430
         C            0.320884291394     0.004496991383     0.002590544014    12.000000000000
         C           -2.457186349506     0.000235379083     0.000133975314    12.000000000000
         H           -3.151968155806     0.961980561683    -1.679905446986     1.007825032230
         H           -3.152100491706    -1.932903467117    -0.003422971786     1.007825032230
         H           -3.151843558406     0.966414418483     1.680739168514     1.007825032230

  Charge       = 0
  Multiplicity = 1
  Basis Set: ANONYMOUSB0BB3AE8
    Blend: 6-31G_2DFP_
  Basis Set: (ANONYMOUSB0BB3AE8 AUX)
    Blend: DEF2-UNIVERSAL-JKFIT

    Orbital Energies [Eh]
    ---------------------

    Doubly Occupied:

       1A    -14.332245     2A    -10.235544     3A    -10.223849
       4A     -0.899931     5A     -0.775979     6A     -0.513866
       7A     -0.465540     8A     -0.464915     9A     -0.357417
      10A     -0.326399    11A     -0.326334

  @DF-RKS Final Energy:  -132.76128093094852

   => Energetics <=

    Nuclear Repulsion Energy =             58.2688694232747295
    One-Electron Energy =                -293.2655795359718809
    Two-Electron Energy =                 117.4573354426962482
    DFT Exchange-Correlation Energy =     -15.2219062609476072
    Empirical Dispersion Energy =           0.0000000000000000
    VV10 Nonlocal Energy =                  0.0000000000000000
    Total Energy =                       -132.7612809309485158

  Dipole Moment: [D]
     X:    -3.8253      Y:     0.0016      Z:     0.0009     Total:     3.8253

*** Psi4 exiting successfully. Buy a developer a beer!
