                               Psi4 1.4a2.dev629

  ==> Input File <==

--------------------------------------------------------------------------
import os
memory 14 GB

molecule {
 N    2.5163648331   -0.0015662926    0.0026635179
 X    0.3166073300    1.0000000000   -0.0000000000
 C    0.3135355426    0.0036761217   -0.0063145061
 X    0.3166073300    0.0000000000    1.0000000000
 C   -2.4586273955    0.0001645098   -0.0002773195
 H   -3.1487800030    0.9655780732   -1.6724339107
 H   -3.1529341294   -1.9364279553   -0.0004211542
 H   -3.1529614179    0.9685755432    1.6767833726
units bohr
}

basis {

assign 6-31g_2dfp_

[ 6-31g_2dfp_ ]
spherical

!----------------------------------------------------------------------
! Basis Set Exchange
! Version v0.8.13
! https://www.basissetexchange.org
!----------------------------------------------------------------------
!   Basis set: 6-31G(2df,p)
! Description: 6-31G(2df,p)
!        Role: orbital
!     Version: 0  (Data from the original Basis Set Exchange)
!----------------------------------------------------------------------

****
H     0
S    3   1.00
     18.7311370              0.03349460
      2.8253937              0.23472695
      0.6401217              0.81375733
S    1   1.00
      0.1612778              1.00000000
P    1   1.00
      1.5000000              1.0000000
P    1   1.00
      0.3750000              1.0000000
****
C     0
S    6   1.00
   3047.5249000              0.0018347
    457.3695100              0.0140373
    103.9486900              0.0688426
     29.2101550              0.2321844
      9.2866630              0.4679413
      3.1639270              0.3623120
SP   3   1.00
      7.8682724             -0.1193324              0.0689991
      1.8812885             -0.1608542              0.3164240
      0.5442493              1.1434564              0.7443083
SP   1   1.00
      0.1687144              1.0000000              1.0000000
D    1   1.00
      1.2520000              1.0000000
D    1   1.00
      0.3130000              1.0000000
F    1   1.00
      0.8000000              1.0000000
****
N     0
S    6   1.00
   4173.5110000              0.0018348
    627.4579000              0.0139950
    142.9021000              0.0685870
     40.2343300              0.2322410
     12.8202100              0.4690700
      4.3904370              0.3604550
SP   3   1.00
     11.6263580             -0.1149610              0.0675800
      2.7162800             -0.1691180              0.3239070
      0.7722180              1.1458520              0.7408950
SP   1   1.00
      0.2120313              1.0000000              1.0000000
D    1   1.00
      1.8260000              1.0000000
D    1   1.00
      0.4565000              1.0000000
F    1   1.00
      1.0000000              1.0000000
****
}

set {
opt_type min
reference rhf
freeze_core true
e_convergence 10
d_convergence 10
ensure_bt_convergence true
dft_spherical_points 590
dft_radial_points 99
}

e = energy('b3lyp')

print_out('Grab this energy {0}'.format(e))
--------------------------------------------------------------------------

    Molecular point group: c1

    Geometry (in Bohr), charge = 0, multiplicity = 1:

       Center              X                  Y                   Z               Mass
    ------------   -----------------  -----------------  -----------------  -----------------
         N            2.517167190273    -0.002099180001     0.003585979646    14.003074004430
         C            0.314337899773     0.003143234299    -0.005392044354    12.000000000000
         C           -2.457825038327    -0.000368377601     0.000645142246    12.000000000000
         H           -3.147977645827     0.965045185799    -1.671511448954     1.007825032230
         H           -3.152131772227    -1.936960842701     0.000501307546     1.007825032230
         H           -3.152159060727     0.968042655799     1.677705834346     1.007825032230

  Charge       = 0
  Multiplicity = 1
  Basis Set: ANONYMOUSEAB037D4
    Blend: 6-31G_2DFP_
  Basis Set: (ANONYMOUSEAB037D4 AUX)
    Blend: DEF2-UNIVERSAL-JKFIT

    Orbital Energies [Eh]
    ---------------------

    Doubly Occupied:

       1A    -14.333737     2A    -10.235224     3A    -10.225287
       4A     -0.897654     5A     -0.776791     6A     -0.514687
       7A     -0.466048     8A     -0.465491     9A     -0.357788
      10A     -0.324866    11A     -0.324856

  @DF-RKS Final Energy:  -132.76109339522827

   => Energetics <=

    Nuclear Repulsion Energy =             58.1909571462271913
    One-Electron Energy =                -293.1111317902870042
    Two-Electron Energy =                 117.3772754331164236
    DFT Exchange-Correlation Energy =     -15.2181941842848705
    Empirical Dispersion Energy =           0.0000000000000000
    VV10 Nonlocal Energy =                  0.0000000000000000
    Total Energy =                       -132.7610933952282721

  Dipole Moment: [D]
     X:    -3.8329      Y:     0.0021      Z:    -0.0037     Total:     3.8329

*** Psi4 exiting successfully. Buy a developer a beer!
