                               Psi4 1.4a2.dev629

  ==> Input File <==

--------------------------------------------------------------------------
import os
memory 14 GB

molecule {
 N    2.5087328319    0.0002047192    0.0001211511
 X    0.3166073300    1.0000000000    0.0000000000
 C    0.3196827576   -0.0009710767   -0.0005588909
 X    0.3166073300   -0.0000000000    1.0000000000
 C   -2.4497668289    0.0034838683    0.0020130552
 H   -3.1540242681    0.9679588521   -1.6786784293
 H   -3.1540944167   -1.9386616805   -0.0005403851
 H   -3.1539326458    0.9679853177    1.6776434989
units bohr
}

basis {

assign 6-31g_2dfp_

[ 6-31g_2dfp_ ]
spherical

!----------------------------------------------------------------------
! Basis Set Exchange
! Version v0.8.13
! https://www.basissetexchange.org
!----------------------------------------------------------------------
!   Basis set: 6-31G(2df,p)
! Description: 6-31G(2df,p)
!        Role: orbital
!     Version: 0  (Data from the original Basis Set Exchange)
!----------------------------------------------------------------------

****
H     0
S    3   1.00
     18.7311370              0.03349460
      2.8253937              0.23472695
      0.6401217              0.81375733
S    1   1.00
      0.1612778              1.00000000
P    1   1.00
      1.5000000              1.0000000
P    1   1.00
      0.3750000              1.0000000
****
C     0
S    6   1.00
   3047.5249000              0.0018347
    457.3695100              0.0140373
    103.9486900              0.0688426
     29.2101550              0.2321844
      9.2866630              0.4679413
      3.1639270              0.3623120
SP   3   1.00
      7.8682724             -0.1193324              0.0689991
      1.8812885             -0.1608542              0.3164240
      0.5442493              1.1434564              0.7443083
SP   1   1.00
      0.1687144              1.0000000              1.0000000
D    1   1.00
      1.2520000              1.0000000
D    1   1.00
      0.3130000              1.0000000
F    1   1.00
      0.8000000              1.0000000
****
N     0
S    6   1.00
   4173.5110000              0.0018348
    627.4579000              0.0139950
    142.9021000              0.0685870
     40.2343300              0.2322410
     12.8202100              0.4690700
      4.3904370              0.3604550
SP   3   1.00
     11.6263580             -0.1149610              0.0675800
      2.7162800             -0.1691180              0.3239070
      0.7722180              1.1458520              0.7408950
SP   1   1.00
      0.2120313              1.0000000              1.0000000
D    1   1.00
      1.8260000              1.0000000
D    1   1.00
      0.4565000              1.0000000
F    1   1.00
      1.0000000              1.0000000
****
}

set {
opt_type min
reference rhf
freeze_core true
e_convergence 10
d_convergence 10
ensure_bt_convergence true
dft_spherical_points 590
dft_radial_points 99
}

e = energy('b3lyp')

print_out('Grab this energy {0}'.format(e))
--------------------------------------------------------------------------

    Molecular point group: c1

    Geometry (in Bohr), charge = 0, multiplicity = 1:

       Center              X                  Y                   Z               Mass
    ------------   -----------------  -----------------  -----------------  -----------------
         N            2.507931632181    -0.000533374124    -0.000306835592    14.003074004430
         C            0.318881557881    -0.001709170024    -0.000986877592    12.000000000000
         C           -2.450568028619     0.002745774976     0.001585068508    12.000000000000
         H           -3.154825467819     0.967220758776    -1.679106415992     1.007825032230
         H           -3.154895616419    -1.939399773824    -0.000968371792     1.007825032230
         H           -3.154733845519     0.967247224376     1.677215512208     1.007825032230

  Charge       = 0
  Multiplicity = 1
  Basis Set: ANONYMOUS6A4CA30E
    Blend: 6-31G_2DFP_
  Basis Set: (ANONYMOUS6A4CA30E AUX)
    Blend: DEF2-UNIVERSAL-JKFIT

    Orbital Energies [Eh]
    ---------------------

    Doubly Occupied:

       1A    -14.332126     2A    -10.235779     3A    -10.223588
       4A     -0.900364     5A     -0.776061     6A     -0.514776
       7A     -0.465141     8A     -0.464155     9A     -0.357502
      10A     -0.326462    11A     -0.326298

  @DF-RKS Final Energy:  -132.76138361896966

   => Energetics <=

    Nuclear Repulsion Energy =             58.3138707959814511
    One-Electron Energy =                -293.3555009911639218
    Two-Electron Energy =                 117.5019436148818954
    DFT Exchange-Correlation Energy =     -15.2216970386690811
    Empirical Dispersion Energy =           0.0000000000000000
    VV10 Nonlocal Energy =                  0.0000000000000000
    Total Energy =                       -132.7613836189696599

  Dipole Moment: [D]
     X:    -3.8228      Y:     0.0007      Z:     0.0004     Total:     3.8228

*** Psi4 exiting successfully. Buy a developer a beer!
