                               Psi4 1.4a2.dev629

  ==> Input File <==

--------------------------------------------------------------------------
import os
memory 14 GB

molecule {
 N    2.5168552004   -0.0075349928   -0.0043476425
 X    0.3166073300    1.0000000000    0.0000000000
 C    0.3174803552    0.0019708597    0.0011402879
 X    0.3166073300    0.0000000000    1.0000000000
 C   -2.4574816286    0.0022459781    0.0013044626
 H   -3.1534274809    0.9743215421   -1.6796907993
 H   -3.1416152466   -1.9429972614    0.0019781769
 H   -3.1652137694    0.9719938744    1.6796155145
units bohr
}

basis {

assign 6-31g_2dfp_

[ 6-31g_2dfp_ ]
spherical

!----------------------------------------------------------------------
! Basis Set Exchange
! Version v0.8.13
! https://www.basissetexchange.org
!----------------------------------------------------------------------
!   Basis set: 6-31G(2df,p)
! Description: 6-31G(2df,p)
!        Role: orbital
!     Version: 0  (Data from the original Basis Set Exchange)
!----------------------------------------------------------------------

****
H     0
S    3   1.00
     18.7311370              0.03349460
      2.8253937              0.23472695
      0.6401217              0.81375733
S    1   1.00
      0.1612778              1.00000000
P    1   1.00
      1.5000000              1.0000000
P    1   1.00
      0.3750000              1.0000000
****
C     0
S    6   1.00
   3047.5249000              0.0018347
    457.3695100              0.0140373
    103.9486900              0.0688426
     29.2101550              0.2321844
      9.2866630              0.4679413
      3.1639270              0.3623120
SP   3   1.00
      7.8682724             -0.1193324              0.0689991
      1.8812885             -0.1608542              0.3164240
      0.5442493              1.1434564              0.7443083
SP   1   1.00
      0.1687144              1.0000000              1.0000000
D    1   1.00
      1.2520000              1.0000000
D    1   1.00
      0.3130000              1.0000000
F    1   1.00
      0.8000000              1.0000000
****
N     0
S    6   1.00
   4173.5110000              0.0018348
    627.4579000              0.0139950
    142.9021000              0.0685870
     40.2343300              0.2322410
     12.8202100              0.4690700
      4.3904370              0.3604550
SP   3   1.00
     11.6263580             -0.1149610              0.0675800
      2.7162800             -0.1691180              0.3239070
      0.7722180              1.1458520              0.7408950
SP   1   1.00
      0.2120313              1.0000000              1.0000000
D    1   1.00
      1.8260000              1.0000000
D    1   1.00
      0.4565000              1.0000000
F    1   1.00
      1.0000000              1.0000000
****
}

set {
opt_type min
reference rhf
freeze_core true
e_convergence 10
d_convergence 10
ensure_bt_convergence true
dft_spherical_points 590
dft_radial_points 99
}

e = energy('b3lyp')

print_out('Grab this energy {0}'.format(e))
--------------------------------------------------------------------------

    Molecular point group: c1

    Geometry (in Bohr), charge = 0, multiplicity = 1:

       Center              X                  Y                   Z               Mass
    ------------   -----------------  -----------------  -----------------  -----------------
         N            2.516138322169    -0.006278077715    -0.003625535181    14.003074004430
         C            0.316763476969     0.003227774785     0.001862395219    12.000000000000
         C           -2.458198506831     0.003502893185     0.002026569919    12.000000000000
         H           -3.154144359131     0.975578457185    -1.678968691981     1.007825032230
         H           -3.142332124831    -1.941740346315     0.002700284219     1.007825032230
         H           -3.165930647631     0.973250789485     1.680337621819     1.007825032230

  Charge       = 0
  Multiplicity = 1
  Basis Set: ANONYMOUS0BBF6881
    Blend: 6-31G_2DFP_
  Basis Set: (ANONYMOUS0BBF6881 AUX)
    Blend: DEF2-UNIVERSAL-JKFIT

    Orbital Energies [Eh]
    ---------------------

    Doubly Occupied:

       1A    -14.333379     2A    -10.236423     3A    -10.224984
       4A     -0.898285     5A     -0.775693     6A     -0.514009
       7A     -0.465297     8A     -0.464371     9A     -0.357717
      10A     -0.325258    11A     -0.325256

  @DF-RKS Final Energy:  -132.76119677582167

   => Energetics <=

    Nuclear Repulsion Energy =             58.1603061180355283
    One-Electron Energy =                -293.0553121138210599
    Two-Electron Energy =                 117.3494801583205032
    DFT Exchange-Correlation Energy =     -15.2156709383566291
    Empirical Dispersion Energy =           0.0000000000000000
    VV10 Nonlocal Energy =                  0.0000000000000000
    Total Energy =                       -132.7611967758216736

  Dipole Moment: [D]
     X:    -3.8294      Y:     0.0082      Z:     0.0047     Total:     3.8294

*** Psi4 exiting successfully. Buy a developer a beer!
