                               Psi4 1.4a2.dev629

  ==> Input File <==

--------------------------------------------------------------------------
import os
memory 14 GB

molecule {
 N    2.5125180333   -0.0017727786    0.0029868498
 X    0.3166073300    1.0000000000   -0.0000000000
 C    0.3165998185    0.0044069811   -0.0075437576
 X    0.3166073300    0.0000000000    1.0000000000
 C   -2.4541824857   -0.0021525433    0.0037413336
 H   -3.1501559598    0.9673000828   -1.6754190791
 H   -3.1540678735   -1.9370272900   -0.0008513567
 H   -3.1541141028    0.9692455479    1.6770860100
units bohr
}

basis {

assign 6-31g_2dfp_

[ 6-31g_2dfp_ ]
spherical

!----------------------------------------------------------------------
! Basis Set Exchange
! Version v0.8.13
! https://www.basissetexchange.org
!----------------------------------------------------------------------
!   Basis set: 6-31G(2df,p)
! Description: 6-31G(2df,p)
!        Role: orbital
!     Version: 0  (Data from the original Basis Set Exchange)
!----------------------------------------------------------------------

****
H     0
S    3   1.00
     18.7311370              0.03349460
      2.8253937              0.23472695
      0.6401217              0.81375733
S    1   1.00
      0.1612778              1.00000000
P    1   1.00
      1.5000000              1.0000000
P    1   1.00
      0.3750000              1.0000000
****
C     0
S    6   1.00
   3047.5249000              0.0018347
    457.3695100              0.0140373
    103.9486900              0.0688426
     29.2101550              0.2321844
      9.2866630              0.4679413
      3.1639270              0.3623120
SP   3   1.00
      7.8682724             -0.1193324              0.0689991
      1.8812885             -0.1608542              0.3164240
      0.5442493              1.1434564              0.7443083
SP   1   1.00
      0.1687144              1.0000000              1.0000000
D    1   1.00
      1.2520000              1.0000000
D    1   1.00
      0.3130000              1.0000000
F    1   1.00
      0.8000000              1.0000000
****
N     0
S    6   1.00
   4173.5110000              0.0018348
    627.4579000              0.0139950
    142.9021000              0.0685870
     40.2343300              0.2322410
     12.8202100              0.4690700
      4.3904370              0.3604550
SP   3   1.00
     11.6263580             -0.1149610              0.0675800
      2.7162800             -0.1691180              0.3239070
      0.7722180              1.1458520              0.7408950
SP   1   1.00
      0.2120313              1.0000000              1.0000000
D    1   1.00
      1.8260000              1.0000000
D    1   1.00
      0.4565000              1.0000000
F    1   1.00
      1.0000000              1.0000000
****
}

set {
opt_type min
reference rhf
freeze_core true
e_convergence 10
d_convergence 10
ensure_bt_convergence true
dft_spherical_points 590
dft_radial_points 99
}

e = energy('b3lyp')

print_out('Grab this energy {0}'.format(e))
--------------------------------------------------------------------------

    Molecular point group: c1

    Geometry (in Bohr), charge = 0, multiplicity = 1:

       Center              X                  Y                   Z               Mass
    ------------   -----------------  -----------------  -----------------  -----------------
         N            2.512526949086    -0.001815274872     0.003059535736    14.003074004430
         C            0.316608734286     0.004364484828    -0.007471071664    12.000000000000
         C           -2.454173569914    -0.002195039572     0.003814019536    12.000000000000
         H           -3.150147044014     0.967257586528    -1.675346393164     1.007825032230
         H           -3.154058957714    -1.937069786272    -0.000778670764     1.007825032230
         H           -3.154105187014     0.969203051628     1.677158695936     1.007825032230

  Charge       = 0
  Multiplicity = 1
  Basis Set: ANONYMOUS91A541B2
    Blend: 6-31G_2DFP_
  Basis Set: (ANONYMOUS91A541B2 AUX)
    Blend: DEF2-UNIVERSAL-JKFIT

    Orbital Energies [Eh]
    ---------------------

    Doubly Occupied:

       1A    -14.332934     2A    -10.235501     3A    -10.224440
       4A     -0.899009     5A     -0.776425     6A     -0.514735
       7A     -0.465488     8A     -0.464917     9A     -0.357649
      10A     -0.325705    11A     -0.325531

  @DF-RKS Final Energy:  -132.76127205775319

   => Energetics <=

    Nuclear Repulsion Energy =             58.2522654170166660
    One-Electron Energy =                -293.2331092983109784
    Two-Electron Energy =                 117.4395006268302808
    DFT Exchange-Correlation Energy =     -15.2199288032891697
    Empirical Dispersion Energy =           0.0000000000000000
    VV10 Nonlocal Energy =                  0.0000000000000000
    Total Energy =                       -132.7612720577531888

  Dipole Moment: [D]
     X:    -3.8278      Y:     0.0017      Z:    -0.0028     Total:     3.8278

*** Psi4 exiting successfully. Buy a developer a beer!
