                               Psi4 1.4a2.dev629

  ==> Input File <==

--------------------------------------------------------------------------
import os
memory 14 GB

molecule {
 N    2.5163880143   -0.0002019781   -0.0001136444
 X    0.3166073300    1.0000000000   -0.0000000000
 C    0.3135346075    0.0009730700    0.0005635511
 X    0.3166073300    0.0000000000    1.0000000000
 C   -2.4586323385   -0.0034898443   -0.0020132240
 H   -3.1515714484    0.9682537753   -1.6749312611
 H   -3.1514932685   -1.9337835591    0.0005241305
 H   -3.1516281364    0.9682485363    1.6759704479
units bohr
}

basis {

assign 6-31g_2dfp_

[ 6-31g_2dfp_ ]
spherical

!----------------------------------------------------------------------
! Basis Set Exchange
! Version v0.8.13
! https://www.basissetexchange.org
!----------------------------------------------------------------------
!   Basis set: 6-31G(2df,p)
! Description: 6-31G(2df,p)
!        Role: orbital
!     Version: 0  (Data from the original Basis Set Exchange)
!----------------------------------------------------------------------

****
H     0
S    3   1.00
     18.7311370              0.03349460
      2.8253937              0.23472695
      0.6401217              0.81375733
S    1   1.00
      0.1612778              1.00000000
P    1   1.00
      1.5000000              1.0000000
P    1   1.00
      0.3750000              1.0000000
****
C     0
S    6   1.00
   3047.5249000              0.0018347
    457.3695100              0.0140373
    103.9486900              0.0688426
     29.2101550              0.2321844
      9.2866630              0.4679413
      3.1639270              0.3623120
SP   3   1.00
      7.8682724             -0.1193324              0.0689991
      1.8812885             -0.1608542              0.3164240
      0.5442493              1.1434564              0.7443083
SP   1   1.00
      0.1687144              1.0000000              1.0000000
D    1   1.00
      1.2520000              1.0000000
D    1   1.00
      0.3130000              1.0000000
F    1   1.00
      0.8000000              1.0000000
****
N     0
S    6   1.00
   4173.5110000              0.0018348
    627.4579000              0.0139950
    142.9021000              0.0685870
     40.2343300              0.2322410
     12.8202100              0.4690700
      4.3904370              0.3604550
SP   3   1.00
     11.6263580             -0.1149610              0.0675800
      2.7162800             -0.1691180              0.3239070
      0.7722180              1.1458520              0.7408950
SP   1   1.00
      0.2120313              1.0000000              1.0000000
D    1   1.00
      1.8260000              1.0000000
D    1   1.00
      0.4565000              1.0000000
F    1   1.00
      1.0000000              1.0000000
****
}

set {
opt_type min
reference rhf
freeze_core true
e_convergence 10
d_convergence 10
ensure_bt_convergence true
dft_spherical_points 590
dft_radial_points 99
}

e = energy('b3lyp')

print_out('Grab this energy {0}'.format(e))
--------------------------------------------------------------------------

    Molecular point group: c1

    Geometry (in Bohr), charge = 0, multiplicity = 1:

       Center              X                  Y                   Z               Mass
    ------------   -----------------  -----------------  -----------------  -----------------
         N            2.517184603685     0.000536314048     0.000310761157    14.003074004430
         C            0.314331196885     0.001711362148     0.000987956657    12.000000000000
         C           -2.457835749115    -0.002751552152    -0.001588818443    12.000000000000
         H           -3.150774859015     0.968992067448    -1.674506855543     1.007825032230
         H           -3.150696679115    -1.933045266952     0.000948536057     1.007825032230
         H           -3.150831547015     0.968986828448     1.676394853457     1.007825032230

  Charge       = 0
  Multiplicity = 1
  Basis Set: ANONYMOUSD4F46E97
    Blend: 6-31G_2DFP_
  Basis Set: (ANONYMOUSD4F46E97 AUX)
    Blend: DEF2-UNIVERSAL-JKFIT

    Orbital Energies [Eh]
    ---------------------

    Doubly Occupied:

       1A    -14.333736     2A    -10.235225     3A    -10.225288
       4A     -0.897653     5A     -0.776791     6A     -0.514693
       7A     -0.466269     8A     -0.465270     9A     -0.357786
      10A     -0.324941    11A     -0.324781

  @DF-RKS Final Energy:  -132.76109587341406

   => Energetics <=

    Nuclear Repulsion Energy =             58.1908945363294023
    One-Electron Energy =                -293.1110026448483268
    Two-Electron Energy =                 117.3772060610919254
    DFT Exchange-Correlation Energy =     -15.2181938259870808
    Empirical Dispersion Energy =           0.0000000000000000
    VV10 Nonlocal Energy =                  0.0000000000000000
    Total Energy =                       -132.7610958734140638

  Dipole Moment: [D]
     X:    -3.8329      Y:    -0.0007      Z:    -0.0004     Total:     3.8329

*** Psi4 exiting successfully. Buy a developer a beer!
