                               Psi4 1.4a2.dev629

  ==> Input File <==

--------------------------------------------------------------------------
import os
memory 14 GB

molecule {
 N    2.5082021662    0.0075106719    0.0043389927
 X    0.3166073300    1.0000000000   -0.0000000000
 C    0.3157275033   -0.0019858444   -0.0011441095
 X    0.3166073300   -0.0000000000    1.0000000000
 C   -2.4509365766   -0.0022592715   -0.0012967067
 H   -3.1521405583    0.9618981672   -1.6739388252
 H   -3.1638669342   -1.9293665652   -0.0019633301
 H   -3.1403881703    0.9642028420    1.6740039788
units bohr
}

basis {

assign 6-31g_2dfp_

[ 6-31g_2dfp_ ]
spherical

!----------------------------------------------------------------------
! Basis Set Exchange
! Version v0.8.13
! https://www.basissetexchange.org
!----------------------------------------------------------------------
!   Basis set: 6-31G(2df,p)
! Description: 6-31G(2df,p)
!        Role: orbital
!     Version: 0  (Data from the original Basis Set Exchange)
!----------------------------------------------------------------------

****
H     0
S    3   1.00
     18.7311370              0.03349460
      2.8253937              0.23472695
      0.6401217              0.81375733
S    1   1.00
      0.1612778              1.00000000
P    1   1.00
      1.5000000              1.0000000
P    1   1.00
      0.3750000              1.0000000
****
C     0
S    6   1.00
   3047.5249000              0.0018347
    457.3695100              0.0140373
    103.9486900              0.0688426
     29.2101550              0.2321844
      9.2866630              0.4679413
      3.1639270              0.3623120
SP   3   1.00
      7.8682724             -0.1193324              0.0689991
      1.8812885             -0.1608542              0.3164240
      0.5442493              1.1434564              0.7443083
SP   1   1.00
      0.1687144              1.0000000              1.0000000
D    1   1.00
      1.2520000              1.0000000
D    1   1.00
      0.3130000              1.0000000
F    1   1.00
      0.8000000              1.0000000
****
N     0
S    6   1.00
   4173.5110000              0.0018348
    627.4579000              0.0139950
    142.9021000              0.0685870
     40.2343300              0.2322410
     12.8202100              0.4690700
      4.3904370              0.3604550
SP   3   1.00
     11.6263580             -0.1149610              0.0675800
      2.7162800             -0.1691180              0.3239070
      0.7722180              1.1458520              0.7408950
SP   1   1.00
      0.2120313              1.0000000              1.0000000
D    1   1.00
      1.8260000              1.0000000
D    1   1.00
      0.4565000              1.0000000
F    1   1.00
      1.0000000              1.0000000
****
}

set {
opt_type min
reference rhf
freeze_core true
e_convergence 10
d_convergence 10
ensure_bt_convergence true
dft_spherical_points 590
dft_radial_points 99
}

e = energy('b3lyp')

print_out('Grab this energy {0}'.format(e))
--------------------------------------------------------------------------

    Molecular point group: c1

    Geometry (in Bohr), charge = 0, multiplicity = 1:

       Center              X                  Y                   Z               Mass
    ------------   -----------------  -----------------  -----------------  -----------------
         N            2.508942189247     0.006269037015     0.003618571111    14.003074004430
         C            0.316467526347    -0.003227479285    -0.001864531089    12.000000000000
         C           -2.450196553553    -0.003500906385    -0.002017128289    12.000000000000
         H           -3.151400535253     0.960656532315    -1.674659246789     1.007825032230
         H           -3.163126911153    -1.930608200085    -0.002683751689     1.007825032230
         H           -3.139648147253     0.962961207115     1.673283557211     1.007825032230

  Charge       = 0
  Multiplicity = 1
  Basis Set: ANONYMOUS9CEE932B
    Blend: 6-31G_2DFP_
  Basis Set: (ANONYMOUS9CEE932B AUX)
    Blend: DEF2-UNIVERSAL-JKFIT

    Orbital Energies [Eh]
    ---------------------

    Doubly Occupied:

       1A    -14.332483     2A    -10.234581     3A    -10.223894
       4A     -0.899728     5A     -0.777164     6A     -0.515470
       7A     -0.466043     8A     -0.465106     9A     -0.357570
      10A     -0.325981    11A     -0.325979

  @DF-RKS Final Energy:  -132.76131165057990

   => Energetics <=

    Nuclear Repulsion Energy =             58.3443875121671525
    One-Electron Energy =                -293.4111450704746744
    Two-Electron Energy =                 117.5296482192169520
    DFT Exchange-Correlation Energy =     -15.2242023114893286
    Empirical Dispersion Energy =           0.0000000000000000
    VV10 Nonlocal Energy =                  0.0000000000000000
    Total Energy =                       -132.7613116505798985

  Dipole Moment: [D]
     X:    -3.8264      Y:    -0.0082      Z:    -0.0047     Total:     3.8264

*** Psi4 exiting successfully. Buy a developer a beer!
