                               Psi4 1.4a2.dev629

  ==> Input File <==

--------------------------------------------------------------------------
import os
memory 14 GB

molecule {
 N    2.5020693847   -0.0001949227   -0.0001095682
 X    0.3166073300    1.0000000000   -0.0000000000
 C    0.3092371119    0.0009667702    0.0005599222
 X    0.3166073300    0.0000000000    1.0000000000
 C   -2.4562603645   -0.0034956631   -0.0020165843
 H   -3.1461567444    0.9707574056   -1.6792428104
 H   -3.1460833890   -1.9387766891    0.0005303366
 H   -3.1462085687    0.9707430991    1.6802787040
units bohr
}

basis {

assign 6-31g_2dfp_

[ 6-31g_2dfp_ ]
spherical

!----------------------------------------------------------------------
! Basis Set Exchange
! Version v0.8.13
! https://www.basissetexchange.org
!----------------------------------------------------------------------
!   Basis set: 6-31G(2df,p)
! Description: 6-31G(2df,p)
!        Role: orbital
!     Version: 0  (Data from the original Basis Set Exchange)
!----------------------------------------------------------------------

****
H     0
S    3   1.00
     18.7311370              0.03349460
      2.8253937              0.23472695
      0.6401217              0.81375733
S    1   1.00
      0.1612778              1.00000000
P    1   1.00
      1.5000000              1.0000000
P    1   1.00
      0.3750000              1.0000000
****
C     0
S    6   1.00
   3047.5249000              0.0018347
    457.3695100              0.0140373
    103.9486900              0.0688426
     29.2101550              0.2321844
      9.2866630              0.4679413
      3.1639270              0.3623120
SP   3   1.00
      7.8682724             -0.1193324              0.0689991
      1.8812885             -0.1608542              0.3164240
      0.5442493              1.1434564              0.7443083
SP   1   1.00
      0.1687144              1.0000000              1.0000000
D    1   1.00
      1.2520000              1.0000000
D    1   1.00
      0.3130000              1.0000000
F    1   1.00
      0.8000000              1.0000000
****
N     0
S    6   1.00
   4173.5110000              0.0018348
    627.4579000              0.0139950
    142.9021000              0.0685870
     40.2343300              0.2322410
     12.8202100              0.4690700
      4.3904370              0.3604550
SP   3   1.00
     11.6263580             -0.1149610              0.0675800
      2.7162800             -0.1691180              0.3239070
      0.7722180              1.1458520              0.7408950
SP   1   1.00
      0.2120313              1.0000000              1.0000000
D    1   1.00
      1.8260000              1.0000000
D    1   1.00
      0.4565000              1.0000000
F    1   1.00
      1.0000000              1.0000000
****
}

set {
opt_type min
reference rhf
freeze_core true
e_convergence 10
d_convergence 10
ensure_bt_convergence true
dft_spherical_points 590
dft_radial_points 99
}

e = energy('b3lyp')

print_out('Grab this energy {0}'.format(e))
--------------------------------------------------------------------------

    Molecular point group: c1

    Geometry (in Bohr), charge = 0, multiplicity = 1:

       Center              X                  Y                   Z               Mass
    ------------   -----------------  -----------------  -----------------  -----------------
         N            2.507917333057     0.000544381553     0.000315418819    14.003074004430
         C            0.315085060257     0.001706074453     0.000984909219    12.000000000000
         C           -2.450412416143    -0.002756358847    -0.001591597281    12.000000000000
         H           -3.140308796043     0.971496709853    -1.678817823381     1.007825032230
         H           -3.140235440643    -1.938037384847     0.000955323619     1.007825032230
         H           -3.140360620343     0.971482403353     1.680703691019     1.007825032230

  Charge       = 0
  Multiplicity = 1
  Basis Set: ANONYMOUS73B0C92A
    Blend: 6-31G_2DFP_
  Basis Set: (ANONYMOUS73B0C92A AUX)
    Blend: DEF2-UNIVERSAL-JKFIT

    Orbital Energies [Eh]
    ---------------------

    Doubly Occupied:

       1A    -14.332246     2A    -10.235269     3A    -10.223616
       4A     -0.899510     5A     -0.776958     6A     -0.513999
       7A     -0.466368     8A     -0.465373     9A     -0.357337
      10A     -0.325779    11A     -0.325615

  @DF-RKS Final Energy:  -132.76131635104241

   => Energetics <=

    Nuclear Repulsion Energy =             58.3367601375071203
    One-Electron Energy =                -293.4010343277363972
    Two-Electron Energy =                 117.5253437460609689
    DFT Exchange-Correlation Energy =     -15.2223859068741145
    Empirical Dispersion Energy =           0.0000000000000000
    VV10 Nonlocal Energy =                  0.0000000000000000
    Total Energy =                       -132.7613163510424101

  Dipole Moment: [D]
     X:    -3.8232      Y:    -0.0007      Z:    -0.0004     Total:     3.8232

*** Psi4 exiting successfully. Buy a developer a beer!
