                               Psi4 1.4a2.dev629

  ==> Input File <==

--------------------------------------------------------------------------
import os
memory 14 GB

molecule {
 N    2.5230136374   -0.0075205713   -0.0043392479
 X    0.3166073300    1.0000000000    0.0000000000
 C    0.3239694010    0.0019866419    0.0011493860
 X    0.3166073300    0.0000000000    1.0000000000
 C   -2.4521544031    0.0022651893    0.0013154844
 H   -3.1594191370    0.9698059694   -1.6718325535
 H   -3.1476584210   -1.9339830784    0.0019874086
 H   -3.1711536473    0.9674458491    1.6717195225
units bohr
}

basis {

assign 6-31g_2dfp_

[ 6-31g_2dfp_ ]
spherical

!----------------------------------------------------------------------
! Basis Set Exchange
! Version v0.8.13
! https://www.basissetexchange.org
!----------------------------------------------------------------------
!   Basis set: 6-31G(2df,p)
! Description: 6-31G(2df,p)
!        Role: orbital
!     Version: 0  (Data from the original Basis Set Exchange)
!----------------------------------------------------------------------

****
H     0
S    3   1.00
     18.7311370              0.03349460
      2.8253937              0.23472695
      0.6401217              0.81375733
S    1   1.00
      0.1612778              1.00000000
P    1   1.00
      1.5000000              1.0000000
P    1   1.00
      0.3750000              1.0000000
****
C     0
S    6   1.00
   3047.5249000              0.0018347
    457.3695100              0.0140373
    103.9486900              0.0688426
     29.2101550              0.2321844
      9.2866630              0.4679413
      3.1639270              0.3623120
SP   3   1.00
      7.8682724             -0.1193324              0.0689991
      1.8812885             -0.1608542              0.3164240
      0.5442493              1.1434564              0.7443083
SP   1   1.00
      0.1687144              1.0000000              1.0000000
D    1   1.00
      1.2520000              1.0000000
D    1   1.00
      0.3130000              1.0000000
F    1   1.00
      0.8000000              1.0000000
****
N     0
S    6   1.00
   4173.5110000              0.0018348
    627.4579000              0.0139950
    142.9021000              0.0685870
     40.2343300              0.2322410
     12.8202100              0.4690700
      4.3904370              0.3604550
SP   3   1.00
     11.6263580             -0.1149610              0.0675800
      2.7162800             -0.1691180              0.3239070
      0.7722180              1.1458520              0.7408950
SP   1   1.00
      0.2120313              1.0000000              1.0000000
D    1   1.00
      1.8260000              1.0000000
D    1   1.00
      0.4565000              1.0000000
F    1   1.00
      1.0000000              1.0000000
****
}

set {
opt_type min
reference rhf
freeze_core true
e_convergence 10
d_convergence 10
ensure_bt_convergence true
dft_spherical_points 590
dft_radial_points 99
}

e = energy('b3lyp')

print_out('Grab this energy {0}'.format(e))
--------------------------------------------------------------------------

    Molecular point group: c1

    Geometry (in Bohr), charge = 0, multiplicity = 1:

       Center              X                  Y                   Z               Mass
    ------------   -----------------  -----------------  -----------------  -----------------
         N            2.517180146922    -0.006277599978    -0.003625190280    14.003074004430
         C            0.318135910522     0.003229613222     0.001863443620    12.000000000000
         C           -2.457987893578     0.003508160622     0.002029542020    12.000000000000
         H           -3.165252627478     0.971048940722    -1.671118495880     1.007825032230
         H           -3.153491911478    -1.932740107078     0.002701466220     1.007825032230
         H           -3.176987137778     0.968688820422     1.672433580120     1.007825032230

  Charge       = 0
  Multiplicity = 1
  Basis Set: ANONYMOUSD971EAF5
    Blend: 6-31G_2DFP_
  Basis Set: (ANONYMOUSD971EAF5 AUX)
    Blend: DEF2-UNIVERSAL-JKFIT

    Orbital Energies [Eh]
    ---------------------

    Doubly Occupied:

       1A    -14.333617     2A    -10.235737     3A    -10.225265
       4A     -0.898505     5A     -0.775907     6A     -0.515466
       7A     -0.465009     8A     -0.464072     9A     -0.357953
      10A     -0.325541    11A     -0.325538

  @DF-RKS Final Energy:  -132.76119211280601

   => Energetics <=

    Nuclear Repulsion Energy =             58.1679298054402310
    One-Electron Energy =                -293.0653993782725593
    Two-Electron Energy =                 117.3537599924221695
    DFT Exchange-Correlation Energy =     -15.2174825323958451
    Empirical Dispersion Energy =           0.0000000000000000
    VV10 Nonlocal Energy =                  0.0000000000000000
    Total Energy =                       -132.7611921128060146

  Dipole Moment: [D]
     X:    -3.8325      Y:     0.0082      Z:     0.0047     Total:     3.8325

*** Psi4 exiting successfully. Buy a developer a beer!
