                               Psi4 1.4a2.dev629

  ==> Input File <==

--------------------------------------------------------------------------
import os
memory 14 GB

molecule {
 N    2.5020478413   -0.0031464503   -0.0018129298
 X    0.3166073300    1.0000000000   -0.0000000000
 C    0.3092357081    0.0050799194    0.0029251604
 X    0.3166073300    0.0000000000    1.0000000000
 C   -2.4562622056    0.0008238321    0.0004717905
 H   -3.1461387103    0.9644722131   -1.6828778691
 H   -3.1462700871   -1.9361368552   -0.0030886292
 H   -3.1460151164    0.9689073409    1.6843824772
units bohr
}

basis {

assign 6-31g_2dfp_

[ 6-31g_2dfp_ ]
spherical

!----------------------------------------------------------------------
! Basis Set Exchange
! Version v0.8.13
! https://www.basissetexchange.org
!----------------------------------------------------------------------
!   Basis set: 6-31G(2df,p)
! Description: 6-31G(2df,p)
!        Role: orbital
!     Version: 0  (Data from the original Basis Set Exchange)
!----------------------------------------------------------------------

****
H     0
S    3   1.00
     18.7311370              0.03349460
      2.8253937              0.23472695
      0.6401217              0.81375733
S    1   1.00
      0.1612778              1.00000000
P    1   1.00
      1.5000000              1.0000000
P    1   1.00
      0.3750000              1.0000000
****
C     0
S    6   1.00
   3047.5249000              0.0018347
    457.3695100              0.0140373
    103.9486900              0.0688426
     29.2101550              0.2321844
      9.2866630              0.4679413
      3.1639270              0.3623120
SP   3   1.00
      7.8682724             -0.1193324              0.0689991
      1.8812885             -0.1608542              0.3164240
      0.5442493              1.1434564              0.7443083
SP   1   1.00
      0.1687144              1.0000000              1.0000000
D    1   1.00
      1.2520000              1.0000000
D    1   1.00
      0.3130000              1.0000000
F    1   1.00
      0.8000000              1.0000000
****
N     0
S    6   1.00
   4173.5110000              0.0018348
    627.4579000              0.0139950
    142.9021000              0.0685870
     40.2343300              0.2322410
     12.8202100              0.4690700
      4.3904370              0.3604550
SP   3   1.00
     11.6263580             -0.1149610              0.0675800
      2.7162800             -0.1691180              0.3239070
      0.7722180              1.1458520              0.7408950
SP   1   1.00
      0.2120313              1.0000000              1.0000000
D    1   1.00
      1.8260000              1.0000000
D    1   1.00
      0.4565000              1.0000000
F    1   1.00
      1.0000000              1.0000000
****
}

set {
opt_type min
reference rhf
freeze_core true
e_convergence 10
d_convergence 10
ensure_bt_convergence true
dft_spherical_points 590
dft_radial_points 99
}

e = energy('b3lyp')

print_out('Grab this energy {0}'.format(e))
--------------------------------------------------------------------------

    Molecular point group: c1

    Geometry (in Bohr), charge = 0, multiplicity = 1:

       Center              X                  Y                   Z               Mass
    ------------   -----------------  -----------------  -----------------  -----------------
         N            2.507903482977    -0.003731587606    -0.002148819726    14.003074004430
         C            0.315091349777     0.004494782094     0.002589270474    12.000000000000
         C           -2.450406563923     0.000238694794     0.000135900574    12.000000000000
         H           -3.140283068623     0.963887075794    -1.683213759026     1.007825032230
         H           -3.140414445423    -1.936721992506    -0.003424519126     1.007825032230
         H           -3.140159474723     0.968322203594     1.684046587274     1.007825032230

  Charge       = 0
  Multiplicity = 1
  Basis Set: ANONYMOUS50DFE6FB
    Blend: 6-31G_2DFP_
  Basis Set: (ANONYMOUS50DFE6FB AUX)
    Blend: DEF2-UNIVERSAL-JKFIT

    Orbital Energies [Eh]
    ---------------------

    Doubly Occupied:

       1A    -14.332246     2A    -10.235268     3A    -10.223616
       4A     -0.899511     5A     -0.776957     6A     -0.514003
       7A     -0.466178     8A     -0.465556     9A     -0.357338
      10A     -0.325730    11A     -0.325664

  @DF-RKS Final Energy:  -132.76131570469414

   => Energetics <=

    Nuclear Repulsion Energy =             58.3367931326907083
    One-Electron Energy =                -293.4011095603535750
    Two-Electron Energy =                 117.5253851463376549
    DFT Exchange-Correlation Energy =     -15.2223844233689221
    Empirical Dispersion Energy =           0.0000000000000000
    VV10 Nonlocal Energy =                  0.0000000000000000
    Total Energy =                       -132.7613157046941410

  Dipole Moment: [D]
     X:    -3.8232      Y:     0.0016      Z:     0.0009     Total:     3.8232

*** Psi4 exiting successfully. Buy a developer a beer!
