                               Psi4 1.4a2.dev629

  ==> Input File <==

--------------------------------------------------------------------------
import os
memory 14 GB

molecule {
 N    2.5108598052    0.0075154806    0.0043417262
 X    0.3166073300    1.0000000000   -0.0000000000
 C    0.3204787700   -0.0019726588   -0.0011364938
 X    0.3166073300   -0.0000000000    1.0000000000
 C   -2.4575962079   -0.0022480970   -0.0012902105
 H   -3.1523902565    0.9645110028   -1.6784443739
 H   -3.1641445111   -1.9346029931   -0.0019583150
 H   -3.1406101696    0.9667972655    1.6784876671
units bohr
}

basis {

assign 6-31g_2dfp_

[ 6-31g_2dfp_ ]
spherical

!----------------------------------------------------------------------
! Basis Set Exchange
! Version v0.8.13
! https://www.basissetexchange.org
!----------------------------------------------------------------------
!   Basis set: 6-31G(2df,p)
! Description: 6-31G(2df,p)
!        Role: orbital
!     Version: 0  (Data from the original Basis Set Exchange)
!----------------------------------------------------------------------

****
H     0
S    3   1.00
     18.7311370              0.03349460
      2.8253937              0.23472695
      0.6401217              0.81375733
S    1   1.00
      0.1612778              1.00000000
P    1   1.00
      1.5000000              1.0000000
P    1   1.00
      0.3750000              1.0000000
****
C     0
S    6   1.00
   3047.5249000              0.0018347
    457.3695100              0.0140373
    103.9486900              0.0688426
     29.2101550              0.2321844
      9.2866630              0.4679413
      3.1639270              0.3623120
SP   3   1.00
      7.8682724             -0.1193324              0.0689991
      1.8812885             -0.1608542              0.3164240
      0.5442493              1.1434564              0.7443083
SP   1   1.00
      0.1687144              1.0000000              1.0000000
D    1   1.00
      1.2520000              1.0000000
D    1   1.00
      0.3130000              1.0000000
F    1   1.00
      0.8000000              1.0000000
****
N     0
S    6   1.00
   4173.5110000              0.0018348
    627.4579000              0.0139950
    142.9021000              0.0685870
     40.2343300              0.2322410
     12.8202100              0.4690700
      4.3904370              0.3604550
SP   3   1.00
     11.6263580             -0.1149610              0.0675800
      2.7162800             -0.1691180              0.3239070
      0.7722180              1.1458520              0.7408950
SP   1   1.00
      0.2120313              1.0000000              1.0000000
D    1   1.00
      1.8260000              1.0000000
D    1   1.00
      0.4565000              1.0000000
F    1   1.00
      1.0000000              1.0000000
****
}

set {
opt_type min
reference rhf
freeze_core true
e_convergence 10
d_convergence 10
ensure_bt_convergence true
dft_spherical_points 590
dft_radial_points 99
}

e = energy('b3lyp')

print_out('Grab this energy {0}'.format(e))
--------------------------------------------------------------------------

    Molecular point group: c1

    Geometry (in Bohr), charge = 0, multiplicity = 1:

       Center              X                  Y                   Z               Mass
    ------------   -----------------  -----------------  -----------------  -----------------
         N            2.511269320242     0.006265795788     0.003616657789    14.003074004430
         C            0.320888285042    -0.003222343612    -0.001861562211    12.000000000000
         C           -2.457186692858    -0.003497781812    -0.002015278911    12.000000000000
         H           -3.151980741458     0.963261317988    -1.679169442311     1.007825032230
         H           -3.163734996058    -1.935852677912    -0.002683383411     1.007825032230
         H           -3.140200654558     0.965547580688     1.677762598689     1.007825032230

  Charge       = 0
  Multiplicity = 1
  Basis Set: ANONYMOUSB8F497BC
    Blend: 6-31G_2DFP_
  Basis Set: (ANONYMOUSB8F497BC AUX)
    Blend: DEF2-UNIVERSAL-JKFIT

    Orbital Energies [Eh]
    ---------------------

    Doubly Occupied:

       1A    -14.332244     2A    -10.235545     3A    -10.223849
       4A     -0.899931     5A     -0.775980     6A     -0.513866
       7A     -0.465693     8A     -0.464764     9A     -0.357415
      10A     -0.326366    11A     -0.326365

  @DF-RKS Final Energy:  -132.76128111993299

   => Energetics <=

    Nuclear Repulsion Energy =             58.2688809708389144
    One-Electron Energy =                -293.2656012059138675
    Two-Electron Energy =                 117.4573447196051603
    DFT Exchange-Correlation Energy =     -15.2219056044631920
    Empirical Dispersion Energy =           0.0000000000000000
    VV10 Nonlocal Energy =                  0.0000000000000000
    Total Energy =                       -132.7612811199329883

  Dipole Moment: [D]
     X:    -3.8254      Y:    -0.0082      Z:    -0.0047     Total:     3.8254

*** Psi4 exiting successfully. Buy a developer a beer!
