                               Psi4 1.4a2.dev629

  ==> Input File <==

--------------------------------------------------------------------------
import os
memory 14 GB

molecule {
 N    2.5230240840    0.0020264245    0.0011750577
 X    0.3166073300    1.0000000000    0.0000000000
 C    0.3239682669   -0.0051931410   -0.0030031465
 X    0.3166073300   -0.0000000000    1.0000000000
 C   -2.4521503946   -0.0005590532   -0.0003230159
 H   -3.1594183541    0.9648567402   -1.6746967200
 H   -3.1570297228   -1.9287537544   -0.0008799412
 H   -3.1617964494    0.9676227840    1.6777277659
units bohr
}

basis {

assign 6-31g_2dfp_

[ 6-31g_2dfp_ ]
spherical

!----------------------------------------------------------------------
! Basis Set Exchange
! Version v0.8.13
! https://www.basissetexchange.org
!----------------------------------------------------------------------
!   Basis set: 6-31G(2df,p)
! Description: 6-31G(2df,p)
!        Role: orbital
!     Version: 0  (Data from the original Basis Set Exchange)
!----------------------------------------------------------------------

****
H     0
S    3   1.00
     18.7311370              0.03349460
      2.8253937              0.23472695
      0.6401217              0.81375733
S    1   1.00
      0.1612778              1.00000000
P    1   1.00
      1.5000000              1.0000000
P    1   1.00
      0.3750000              1.0000000
****
C     0
S    6   1.00
   3047.5249000              0.0018347
    457.3695100              0.0140373
    103.9486900              0.0688426
     29.2101550              0.2321844
      9.2866630              0.4679413
      3.1639270              0.3623120
SP   3   1.00
      7.8682724             -0.1193324              0.0689991
      1.8812885             -0.1608542              0.3164240
      0.5442493              1.1434564              0.7443083
SP   1   1.00
      0.1687144              1.0000000              1.0000000
D    1   1.00
      1.2520000              1.0000000
D    1   1.00
      0.3130000              1.0000000
F    1   1.00
      0.8000000              1.0000000
****
N     0
S    6   1.00
   4173.5110000              0.0018348
    627.4579000              0.0139950
    142.9021000              0.0685870
     40.2343300              0.2322410
     12.8202100              0.4690700
      4.3904370              0.3604550
SP   3   1.00
     11.6263580             -0.1149610              0.0675800
      2.7162800             -0.1691180              0.3239070
      0.7722180              1.1458520              0.7408950
SP   1   1.00
      0.2120313              1.0000000              1.0000000
D    1   1.00
      1.8260000              1.0000000
D    1   1.00
      0.4565000              1.0000000
F    1   1.00
      1.0000000              1.0000000
****
}

set {
opt_type min
reference rhf
freeze_core true
e_convergence 10
d_convergence 10
ensure_bt_convergence true
dft_spherical_points 590
dft_radial_points 99
}

e = energy('b3lyp')

print_out('Grab this energy {0}'.format(e))
--------------------------------------------------------------------------

    Molecular point group: c1

    Geometry (in Bohr), charge = 0, multiplicity = 1:

       Center              X                  Y                   Z               Mass
    ------------   -----------------  -----------------  -----------------  -----------------
         N            2.517186514405     0.002925725926     0.001694028761    14.003074004430
         C            0.318130697305    -0.004293839574    -0.002484175439    12.000000000000
         C           -2.457987964195     0.000340248226     0.000195955161    12.000000000000
         H           -3.165255923695     0.965756041626    -1.674177748939     1.007825032230
         H           -3.162867292395    -1.927854452974    -0.000360970139     1.007825032230
         H           -3.167634018995     0.968522085426     1.678246736961     1.007825032230

  Charge       = 0
  Multiplicity = 1
  Basis Set: ANONYMOUSBB6F84D1
    Blend: 6-31G_2DFP_
  Basis Set: (ANONYMOUSBB6F84D1 AUX)
    Blend: DEF2-UNIVERSAL-JKFIT

    Orbital Energies [Eh]
    ---------------------

    Doubly Occupied:

       1A    -14.333619     2A    -10.235735     3A    -10.225264
       4A     -0.898505     5A     -0.775907     6A     -0.515459
       7A     -0.464817     8A     -0.464270     9A     -0.357955
      10A     -0.325549    11A     -0.325531

  @DF-RKS Final Energy:  -132.76118795894664

   => Energetics <=

    Nuclear Repulsion Energy =             58.1679342652744822
    One-Electron Energy =                -293.0653948829389606
    Two-Electron Energy =                 117.3537589389244289
    DFT Exchange-Correlation Energy =     -15.2174862802065967
    Empirical Dispersion Energy =           0.0000000000000000
    VV10 Nonlocal Energy =                  0.0000000000000000
    Total Energy =                       -132.7611879589466355

  Dipole Moment: [D]
     X:    -3.8325      Y:    -0.0036      Z:    -0.0021     Total:     3.8325

*** Psi4 exiting successfully. Buy a developer a beer!
