                               Psi4 1.4a2.dev629

  ==> Input File <==

--------------------------------------------------------------------------
import os
memory 14 GB

molecule {
 N    2.5082029334   -0.0015546709    0.0026437056
 X    0.3166073300    1.0000000000   -0.0000000000
 C    0.3157252961    0.0036662165   -0.0062976632
 X    0.3166073300    0.0000000000    1.0000000000
 C   -2.4509300412    0.0001657159   -0.0002793602
 H   -3.1493330385    0.9635658646   -1.6689486804
 H   -3.1535203266   -1.9323786709   -0.0004034398
 H   -3.1535473933    0.9665355448    1.6732854379
units bohr
}

basis {

assign 6-31g_2dfp_

[ 6-31g_2dfp_ ]
spherical

!----------------------------------------------------------------------
! Basis Set Exchange
! Version v0.8.13
! https://www.basissetexchange.org
!----------------------------------------------------------------------
!   Basis set: 6-31G(2df,p)
! Description: 6-31G(2df,p)
!        Role: orbital
!     Version: 0  (Data from the original Basis Set Exchange)
!----------------------------------------------------------------------

****
H     0
S    3   1.00
     18.7311370              0.03349460
      2.8253937              0.23472695
      0.6401217              0.81375733
S    1   1.00
      0.1612778              1.00000000
P    1   1.00
      1.5000000              1.0000000
P    1   1.00
      0.3750000              1.0000000
****
C     0
S    6   1.00
   3047.5249000              0.0018347
    457.3695100              0.0140373
    103.9486900              0.0688426
     29.2101550              0.2321844
      9.2866630              0.4679413
      3.1639270              0.3623120
SP   3   1.00
      7.8682724             -0.1193324              0.0689991
      1.8812885             -0.1608542              0.3164240
      0.5442493              1.1434564              0.7443083
SP   1   1.00
      0.1687144              1.0000000              1.0000000
D    1   1.00
      1.2520000              1.0000000
D    1   1.00
      0.3130000              1.0000000
F    1   1.00
      0.8000000              1.0000000
****
N     0
S    6   1.00
   4173.5110000              0.0018348
    627.4579000              0.0139950
    142.9021000              0.0685870
     40.2343300              0.2322410
     12.8202100              0.4690700
      4.3904370              0.3604550
SP   3   1.00
     11.6263580             -0.1149610              0.0675800
      2.7162800             -0.1691180              0.3239070
      0.7722180              1.1458520              0.7408950
SP   1   1.00
      0.2120313              1.0000000              1.0000000
D    1   1.00
      1.8260000              1.0000000
D    1   1.00
      0.4565000              1.0000000
F    1   1.00
      1.0000000              1.0000000
****
}

set {
opt_type min
reference rhf
freeze_core true
e_convergence 10
d_convergence 10
ensure_bt_convergence true
dft_spherical_points 590
dft_radial_points 99
}

e = energy('b3lyp')

print_out('Grab this energy {0}'.format(e))
--------------------------------------------------------------------------

    Molecular point group: c1

    Geometry (in Bohr), charge = 0, multiplicity = 1:

       Center              X                  Y                   Z               Mass
    ------------   -----------------  -----------------  -----------------  -----------------
         N            2.508941553792    -0.002088908765     0.003568477009    14.003074004430
         C            0.316463916492     0.003131978635    -0.005372891791    12.000000000000
         C           -2.450191420808    -0.000368521965     0.000645411209    12.000000000000
         H           -3.148594418108     0.963031626735    -1.668023908991     1.007825032230
         H           -3.152781706208    -1.932912908765     0.000521331609     1.007825032230
         H           -3.152808772908     0.966001306935     1.674210209309     1.007825032230

  Charge       = 0
  Multiplicity = 1
  Basis Set: ANONYMOUSC1F9ABC9
    Blend: 6-31G_2DFP_
  Basis Set: (ANONYMOUSC1F9ABC9 AUX)
    Blend: DEF2-UNIVERSAL-JKFIT

    Orbital Energies [Eh]
    ---------------------

    Doubly Occupied:

       1A    -14.332484     2A    -10.234580     3A    -10.223893
       4A     -0.899729     5A     -0.777163     6A     -0.515461
       7A     -0.465856     8A     -0.465298     9A     -0.357572
      10A     -0.325987    11A     -0.325975

  @DF-RKS Final Energy:  -132.76130955373151

   => Energetics <=

    Nuclear Repulsion Energy =             58.3444059473672070
    One-Electron Energy =                -293.4111778094672331
    Two-Electron Energy =                 117.5296671268118587
    DFT Exchange-Correlation Energy =     -15.2242048184433276
    Empirical Dispersion Energy =           0.0000000000000000
    VV10 Nonlocal Energy =                  0.0000000000000000
    Total Energy =                       -132.7613095537315075

  Dipole Moment: [D]
     X:    -3.8263      Y:     0.0022      Z:    -0.0037     Total:     3.8263

*** Psi4 exiting successfully. Buy a developer a beer!
