                               Psi4 1.4a2.dev629

  ==> Input File <==

--------------------------------------------------------------------------
import os
memory 14 GB

molecule {
 N    2.5168571049    0.0031836133    0.0018417204
 X    0.3166073300    1.0000000000    0.0000000000
 C    0.3174757936   -0.0051196830   -0.0029636115
 X    0.3166073300   -0.0000000000    1.0000000000
 C   -2.4574817818   -0.0008286909   -0.0004823032
 H   -3.1534152464    0.9762748421   -1.6785651082
 H   -3.1533129365   -1.9453412842    0.0031002678
 H   -3.1535255038    0.9718312028    1.6770690347
units bohr
}

basis {

assign 6-31g_2dfp_

[ 6-31g_2dfp_ ]
spherical

!----------------------------------------------------------------------
! Basis Set Exchange
! Version v0.8.13
! https://www.basissetexchange.org
!----------------------------------------------------------------------
!   Basis set: 6-31G(2df,p)
! Description: 6-31G(2df,p)
!        Role: orbital
!     Version: 0  (Data from the original Basis Set Exchange)
!----------------------------------------------------------------------

****
H     0
S    3   1.00
     18.7311370              0.03349460
      2.8253937              0.23472695
      0.6401217              0.81375733
S    1   1.00
      0.1612778              1.00000000
P    1   1.00
      1.5000000              1.0000000
P    1   1.00
      0.3750000              1.0000000
****
C     0
S    6   1.00
   3047.5249000              0.0018347
    457.3695100              0.0140373
    103.9486900              0.0688426
     29.2101550              0.2321844
      9.2866630              0.4679413
      3.1639270              0.3623120
SP   3   1.00
      7.8682724             -0.1193324              0.0689991
      1.8812885             -0.1608542              0.3164240
      0.5442493              1.1434564              0.7443083
SP   1   1.00
      0.1687144              1.0000000              1.0000000
D    1   1.00
      1.2520000              1.0000000
D    1   1.00
      0.3130000              1.0000000
F    1   1.00
      0.8000000              1.0000000
****
N     0
S    6   1.00
   4173.5110000              0.0018348
    627.4579000              0.0139950
    142.9021000              0.0685870
     40.2343300              0.2322410
     12.8202100              0.4690700
      4.3904370              0.3604550
SP   3   1.00
     11.6263580             -0.1149610              0.0675800
      2.7162800             -0.1691180              0.3239070
      0.7722180              1.1458520              0.7408950
SP   1   1.00
      0.2120313              1.0000000              1.0000000
D    1   1.00
      1.8260000              1.0000000
D    1   1.00
      0.4565000              1.0000000
F    1   1.00
      1.0000000              1.0000000
****
}

set {
opt_type min
reference rhf
freeze_core true
e_convergence 10
d_convergence 10
ensure_bt_convergence true
dft_spherical_points 590
dft_radial_points 99
}

e = energy('b3lyp')

print_out('Grab this energy {0}'.format(e))
--------------------------------------------------------------------------

    Molecular point group: c1

    Geometry (in Bohr), charge = 0, multiplicity = 1:

       Center              X                  Y                   Z               Mass
    ------------   -----------------  -----------------  -----------------  -----------------
         N            2.516140886645     0.003768934748     0.002181609630    14.003074004430
         C            0.316759575345    -0.004534361552    -0.002623722270    12.000000000000
         C           -2.458198000055    -0.000243369452    -0.000142413970    12.000000000000
         H           -3.154131464655     0.976860163548    -1.678225218970     1.007825032230
         H           -3.154029154755    -1.944755962752     0.003440157030     1.007825032230
         H           -3.154241722055     0.972416524248     1.677408923930     1.007825032230

  Charge       = 0
  Multiplicity = 1
  Basis Set: ANONYMOUSBBFD0C25
    Blend: 6-31G_2DFP_
  Basis Set: (ANONYMOUSBBFD0C25 AUX)
    Blend: DEF2-UNIVERSAL-JKFIT

    Orbital Energies [Eh]
    ---------------------

    Doubly Occupied:

       1A    -14.333380     2A    -10.236422     3A    -10.224983
       4A     -0.898285     5A     -0.775691     6A     -0.514009
       7A     -0.465144     8A     -0.464522     9A     -0.357718
      10A     -0.325290    11A     -0.325225

  @DF-RKS Final Energy:  -132.76119660724416

   => Energetics <=

    Nuclear Repulsion Energy =             58.1602953510269316
    One-Electron Energy =                -293.0552920620655186
    Two-Electron Energy =                 117.3494716993060223
    DFT Exchange-Correlation Energy =     -15.2156715955116209
    Empirical Dispersion Energy =           0.0000000000000000
    VV10 Nonlocal Energy =                  0.0000000000000000
    Total Energy =                       -132.7611966072441589

  Dipole Moment: [D]
     X:    -3.8294      Y:    -0.0016      Z:    -0.0009     Total:     3.8294

*** Psi4 exiting successfully. Buy a developer a beer!
