                               Psi4 1.4a2.dev629

  ==> Input File <==

--------------------------------------------------------------------------
import os
memory 14 GB

molecule {
 N    2.5108684683   -0.0037189486    0.0064378363
 X    0.3166073300    1.0000000000   -0.0000000000
 C    0.3204762048    0.0004927856   -0.0008497166
 X    0.3166073300    0.0000000000    1.0000000000
 C   -2.4575987860    0.0004079062   -0.0007059627
 H   -3.1655160100    0.9660756034   -1.6732922987
 H   -3.1458152365   -1.9376412469   -0.0064241830
 H   -3.1458172106    0.9743839003    1.6748343248
units bohr
}

basis {

assign 6-31g_2dfp_

[ 6-31g_2dfp_ ]
spherical

!----------------------------------------------------------------------
! Basis Set Exchange
! Version v0.8.13
! https://www.basissetexchange.org
!----------------------------------------------------------------------
!   Basis set: 6-31G(2df,p)
! Description: 6-31G(2df,p)
!        Role: orbital
!     Version: 0  (Data from the original Basis Set Exchange)
!----------------------------------------------------------------------

****
H     0
S    3   1.00
     18.7311370              0.03349460
      2.8253937              0.23472695
      0.6401217              0.81375733
S    1   1.00
      0.1612778              1.00000000
P    1   1.00
      1.5000000              1.0000000
P    1   1.00
      0.3750000              1.0000000
****
C     0
S    6   1.00
   3047.5249000              0.0018347
    457.3695100              0.0140373
    103.9486900              0.0688426
     29.2101550              0.2321844
      9.2866630              0.4679413
      3.1639270              0.3623120
SP   3   1.00
      7.8682724             -0.1193324              0.0689991
      1.8812885             -0.1608542              0.3164240
      0.5442493              1.1434564              0.7443083
SP   1   1.00
      0.1687144              1.0000000              1.0000000
D    1   1.00
      1.2520000              1.0000000
D    1   1.00
      0.3130000              1.0000000
F    1   1.00
      0.8000000              1.0000000
****
N     0
S    6   1.00
   4173.5110000              0.0018348
    627.4579000              0.0139950
    142.9021000              0.0685870
     40.2343300              0.2322410
     12.8202100              0.4690700
      4.3904370              0.3604550
SP   3   1.00
     11.6263580             -0.1149610              0.0675800
      2.7162800             -0.1691180              0.3239070
      0.7722180              1.1458520              0.7408950
SP   1   1.00
      0.2120313              1.0000000              1.0000000
D    1   1.00
      1.8260000              1.0000000
D    1   1.00
      0.4565000              1.0000000
F    1   1.00
      1.0000000              1.0000000
****
}

set {
opt_type min
reference rhf
freeze_core true
e_convergence 10
d_convergence 10
ensure_bt_convergence true
dft_spherical_points 590
dft_radial_points 99
}

e = energy('b3lyp')

print_out('Grab this energy {0}'.format(e))
--------------------------------------------------------------------------

    Molecular point group: c1

    Geometry (in Bohr), charge = 0, multiplicity = 1:

       Center              X                  Y                   Z               Mass
    ------------   -----------------  -----------------  -----------------  -----------------
         N            2.511276617324    -0.002782284368     0.004815448162    14.003074004430
         C            0.320884353824     0.001429449832    -0.002472104738    12.000000000000
         C           -2.457190636976     0.001344570432    -0.002328350838    12.000000000000
         H           -3.165107860976     0.967012267632    -1.674914686838     1.007825032230
         H           -3.145407087476    -1.936704582668    -0.008046571138     1.007825032230
         H           -3.145409061576     0.975320564532     1.673211936662     1.007825032230

  Charge       = 0
  Multiplicity = 1
  Basis Set: ANONYMOUS0D044573
    Blend: 6-31G_2DFP_
  Basis Set: (ANONYMOUS0D044573 AUX)
    Blend: DEF2-UNIVERSAL-JKFIT

    Orbital Energies [Eh]
    ---------------------

    Doubly Occupied:

       1A    -14.332244     2A    -10.235545     3A    -10.223849
       4A     -0.899931     5A     -0.775981     6A     -0.513871
       7A     -0.465968     8A     -0.464484     9A     -0.357415
      10A     -0.326408    11A     -0.326323

  @DF-RKS Final Energy:  -132.76127747764468

   => Energetics <=

    Nuclear Repulsion Energy =             58.2688643392490917
    One-Electron Energy =                -293.2655633099046213
    Two-Electron Energy =                 117.4573262683353221
    DFT Exchange-Correlation Energy =     -15.2219047753244858
    Empirical Dispersion Energy =           0.0000000000000000
    VV10 Nonlocal Energy =                  0.0000000000000000
    Total Energy =                       -132.7612774776446827

  Dipole Moment: [D]
     X:    -3.8254      Y:     0.0045      Z:    -0.0078     Total:     3.8254

*** Psi4 exiting successfully. Buy a developer a beer!
