                               Psi4 1.4a2.dev629

  ==> Input File <==

--------------------------------------------------------------------------
import os
memory 14 GB

molecule {
 N    2.5125327541   -0.0017655376    0.0025253935
 X    0.3166073300    1.0000000000   -0.0000000000
 C    0.3166054703    0.0046402477   -0.0057340982
 X    0.3166073300    0.0000000000    1.0000000000
 C   -2.4541939913   -0.0033237881   -0.0022879352
 H   -3.1499900357    0.9672822193   -1.6732445615
 H   -3.1540818836   -1.9370912806    0.0001140652
 H   -3.1542748837    0.9702581392    1.6786271363
units bohr
}

basis {

assign 6-31g_2dfp_

[ 6-31g_2dfp_ ]
spherical

!----------------------------------------------------------------------
! Basis Set Exchange
! Version v0.8.13
! https://www.basissetexchange.org
!----------------------------------------------------------------------
!   Basis set: 6-31G(2df,p)
! Description: 6-31G(2df,p)
!        Role: orbital
!     Version: 0  (Data from the original Basis Set Exchange)
!----------------------------------------------------------------------

****
H     0
S    3   1.00
     18.7311370              0.03349460
      2.8253937              0.23472695
      0.6401217              0.81375733
S    1   1.00
      0.1612778              1.00000000
P    1   1.00
      1.5000000              1.0000000
P    1   1.00
      0.3750000              1.0000000
****
C     0
S    6   1.00
   3047.5249000              0.0018347
    457.3695100              0.0140373
    103.9486900              0.0688426
     29.2101550              0.2321844
      9.2866630              0.4679413
      3.1639270              0.3623120
SP   3   1.00
      7.8682724             -0.1193324              0.0689991
      1.8812885             -0.1608542              0.3164240
      0.5442493              1.1434564              0.7443083
SP   1   1.00
      0.1687144              1.0000000              1.0000000
D    1   1.00
      1.2520000              1.0000000
D    1   1.00
      0.3130000              1.0000000
F    1   1.00
      0.8000000              1.0000000
****
N     0
S    6   1.00
   4173.5110000              0.0018348
    627.4579000              0.0139950
    142.9021000              0.0685870
     40.2343300              0.2322410
     12.8202100              0.4690700
      4.3904370              0.3604550
SP   3   1.00
     11.6263580             -0.1149610              0.0675800
      2.7162800             -0.1691180              0.3239070
      0.7722180              1.1458520              0.7408950
SP   1   1.00
      0.2120313              1.0000000              1.0000000
D    1   1.00
      1.8260000              1.0000000
D    1   1.00
      0.4565000              1.0000000
F    1   1.00
      1.0000000              1.0000000
****
}

set {
opt_type min
reference rhf
freeze_core true
e_convergence 10
d_convergence 10
ensure_bt_convergence true
dft_spherical_points 590
dft_radial_points 99
}

e = energy('b3lyp')

print_out('Grab this energy {0}'.format(e))
--------------------------------------------------------------------------

    Molecular point group: c1

    Geometry (in Bohr), charge = 0, multiplicity = 1:

       Center              X                  Y                   Z               Mass
    ------------   -----------------  -----------------  -----------------  -----------------
         N            2.512538575437    -0.001559016537     0.003874799642    14.003074004430
         C            0.316611291637     0.004846768763    -0.004384692058    12.000000000000
         C           -2.454188169963    -0.003117267037    -0.000938529058    12.000000000000
         H           -3.149984214363     0.967488740363    -1.671895155358     1.007825032230
         H           -3.154076062263    -1.936884759537     0.001463471342     1.007825032230
         H           -3.154269062363     0.970464660263     1.679976542442     1.007825032230

  Charge       = 0
  Multiplicity = 1
  Basis Set: ANONYMOUSA5B38036
    Blend: 6-31G_2DFP_
  Basis Set: (ANONYMOUSA5B38036 AUX)
    Blend: DEF2-UNIVERSAL-JKFIT

    Orbital Energies [Eh]
    ---------------------

    Doubly Occupied:

       1A    -14.332934     2A    -10.235501     3A    -10.224440
       4A     -0.899008     5A     -0.776427     6A     -0.514732
       7A     -0.465775     8A     -0.464636     9A     -0.357647
      10A     -0.325700    11A     -0.325539

  @DF-RKS Final Energy:  -132.76126660791542

   => Energetics <=

    Nuclear Repulsion Energy =             58.2522370321403500
    One-Electron Energy =                -293.2330289317487768
    Two-Electron Energy =                 117.4394580864383357
    DFT Exchange-Correlation Energy =     -15.2199327947453202
    Empirical Dispersion Energy =           0.0000000000000000
    VV10 Nonlocal Energy =                  0.0000000000000000
    Total Energy =                       -132.7612666079154167

  Dipole Moment: [D]
     X:    -3.8278      Y:     0.0015      Z:    -0.0041     Total:     3.8278

*** Psi4 exiting successfully. Buy a developer a beer!
