                               Psi4 1.4a2.dev629

  ==> Input File <==

--------------------------------------------------------------------------
import os
memory 14 GB

molecule {
 N    2.5168638291    0.0037313274   -0.0064664212
 X    0.3166073300    1.0000000000    0.0000000000
 C    0.3174778274   -0.0004905045    0.0008533951
 X    0.3166073300   -0.0000000000    1.0000000000
 C   -2.4574841697   -0.0004059035    0.0007035984
 H   -3.1402281756    0.9727171310   -1.6847957477
 H   -3.1600149546   -1.9399766794    0.0064241541
 H   -3.1600169266    0.9644246291    1.6832810213
units bohr
}

basis {

assign 6-31g_2dfp_

[ 6-31g_2dfp_ ]
spherical

!----------------------------------------------------------------------
! Basis Set Exchange
! Version v0.8.13
! https://www.basissetexchange.org
!----------------------------------------------------------------------
!   Basis set: 6-31G(2df,p)
! Description: 6-31G(2df,p)
!        Role: orbital
!     Version: 0  (Data from the original Basis Set Exchange)
!----------------------------------------------------------------------

****
H     0
S    3   1.00
     18.7311370              0.03349460
      2.8253937              0.23472695
      0.6401217              0.81375733
S    1   1.00
      0.1612778              1.00000000
P    1   1.00
      1.5000000              1.0000000
P    1   1.00
      0.3750000              1.0000000
****
C     0
S    6   1.00
   3047.5249000              0.0018347
    457.3695100              0.0140373
    103.9486900              0.0688426
     29.2101550              0.2321844
      9.2866630              0.4679413
      3.1639270              0.3623120
SP   3   1.00
      7.8682724             -0.1193324              0.0689991
      1.8812885             -0.1608542              0.3164240
      0.5442493              1.1434564              0.7443083
SP   1   1.00
      0.1687144              1.0000000              1.0000000
D    1   1.00
      1.2520000              1.0000000
D    1   1.00
      0.3130000              1.0000000
F    1   1.00
      0.8000000              1.0000000
****
N     0
S    6   1.00
   4173.5110000              0.0018348
    627.4579000              0.0139950
    142.9021000              0.0685870
     40.2343300              0.2322410
     12.8202100              0.4690700
      4.3904370              0.3604550
SP   3   1.00
     11.6263580             -0.1149610              0.0675800
      2.7162800             -0.1691180              0.3239070
      0.7722180              1.1458520              0.7408950
SP   1   1.00
      0.2120313              1.0000000              1.0000000
D    1   1.00
      1.8260000              1.0000000
D    1   1.00
      0.4565000              1.0000000
F    1   1.00
      1.0000000              1.0000000
****
}

set {
opt_type min
reference rhf
freeze_core true
e_convergence 10
d_convergence 10
ensure_bt_convergence true
dft_spherical_points 590
dft_radial_points 99
}

e = energy('b3lyp')

print_out('Grab this energy {0}'.format(e))
--------------------------------------------------------------------------

    Molecular point group: c1

    Geometry (in Bohr), charge = 0, multiplicity = 1:

       Center              X                  Y                   Z               Mass
    ------------   -----------------  -----------------  -----------------  -----------------
         N            2.516145575814     0.002789594402    -0.004835330846    14.003074004430
         C            0.316759574114    -0.001432237498     0.002484485454    12.000000000000
         C           -2.458202422986    -0.001347636498     0.002334688754    12.000000000000
         H           -3.140946428886     0.971775398002    -1.683164657346     1.007825032230
         H           -3.160733207886    -1.940918412398     0.008055244454     1.007825032230
         H           -3.160735179886     0.963482896102     1.684912111654     1.007825032230

  Charge       = 0
  Multiplicity = 1
  Basis Set: ANONYMOUSB4125694
    Blend: 6-31G_2DFP_
  Basis Set: (ANONYMOUSB4125694 AUX)
    Blend: DEF2-UNIVERSAL-JKFIT

    Orbital Energies [Eh]
    ---------------------

    Doubly Occupied:

       1A    -14.333379     2A    -10.236423     3A    -10.224984
       4A     -0.898285     5A     -0.775693     6A     -0.514014
       7A     -0.465560     8A     -0.464103     9A     -0.357717
      10A     -0.325297    11A     -0.325216

  @DF-RKS Final Energy:  -132.76119311621989

   => Energetics <=

    Nuclear Repulsion Energy =             58.1602899028648466
    One-Electron Energy =                -293.0552750112159970
    Two-Electron Energy =                 117.3494621067708295
    DFT Exchange-Correlation Energy =     -15.2156701146395914
    Empirical Dispersion Energy =           0.0000000000000000
    VV10 Nonlocal Energy =                  0.0000000000000000
    Total Energy =                       -132.7611931162198857

  Dipole Moment: [D]
     X:    -3.8294      Y:    -0.0045      Z:     0.0078     Total:     3.8294

*** Psi4 exiting successfully. Buy a developer a beer!
