                               Psi4 1.4a2.dev629

  ==> Input File <==

--------------------------------------------------------------------------
import os
memory 14 GB

molecule {
 N    2.5142181242    0.0037281272   -0.0064609355
 X    0.3166073300    1.0000000000    0.0000000000
 C    0.3127384923   -0.0004982448    0.0008668628
 X    0.3166073300   -0.0000000000    1.0000000000
 C   -2.4508126068   -0.0004146803    0.0007188161
 H   -3.1400255192    0.9701234952   -1.6803034451
 H   -3.1597595292   -1.9347506191    0.0064237747
 H   -3.1597615313    0.9618119218    1.6787549271
units bohr
}

basis {

assign 6-31g_2dfp_

[ 6-31g_2dfp_ ]
spherical

!----------------------------------------------------------------------
! Basis Set Exchange
! Version v0.8.13
! https://www.basissetexchange.org
!----------------------------------------------------------------------
!   Basis set: 6-31G(2df,p)
! Description: 6-31G(2df,p)
!        Role: orbital
!     Version: 0  (Data from the original Basis Set Exchange)
!----------------------------------------------------------------------

****
H     0
S    3   1.00
     18.7311370              0.03349460
      2.8253937              0.23472695
      0.6401217              0.81375733
S    1   1.00
      0.1612778              1.00000000
P    1   1.00
      1.5000000              1.0000000
P    1   1.00
      0.3750000              1.0000000
****
C     0
S    6   1.00
   3047.5249000              0.0018347
    457.3695100              0.0140373
    103.9486900              0.0688426
     29.2101550              0.2321844
      9.2866630              0.4679413
      3.1639270              0.3623120
SP   3   1.00
      7.8682724             -0.1193324              0.0689991
      1.8812885             -0.1608542              0.3164240
      0.5442493              1.1434564              0.7443083
SP   1   1.00
      0.1687144              1.0000000              1.0000000
D    1   1.00
      1.2520000              1.0000000
D    1   1.00
      0.3130000              1.0000000
F    1   1.00
      0.8000000              1.0000000
****
N     0
S    6   1.00
   4173.5110000              0.0018348
    627.4579000              0.0139950
    142.9021000              0.0685870
     40.2343300              0.2322410
     12.8202100              0.4690700
      4.3904370              0.3604550
SP   3   1.00
     11.6263580             -0.1149610              0.0675800
      2.7162800             -0.1691180              0.3239070
      0.7722180              1.1458520              0.7408950
SP   1   1.00
      0.2120313              1.0000000              1.0000000
D    1   1.00
      1.8260000              1.0000000
D    1   1.00
      0.4565000              1.0000000
F    1   1.00
      1.0000000              1.0000000
****
}

set {
opt_type min
reference rhf
freeze_core true
e_convergence 10
d_convergence 10
ensure_bt_convergence true
dft_spherical_points 590
dft_radial_points 99
}

e = energy('b3lyp')

print_out('Grab this energy {0}'.format(e))
--------------------------------------------------------------------------

    Molecular point group: c1

    Geometry (in Bohr), charge = 0, multiplicity = 1:

       Center              X                  Y                   Z               Mass
    ------------   -----------------  -----------------  -----------------  -----------------
         N            2.513820205139     0.002791833274    -0.004839268388    14.003074004430
         C            0.312340573239    -0.001434538726     0.002488529912    12.000000000000
         C           -2.451210525861    -0.001350974226     0.002340483212    12.000000000000
         H           -3.140423438261     0.969187201274    -1.678681777988     1.007825032230
         H           -3.160157448261    -1.935686913026     0.008045441812     1.007825032230
         H           -3.160159450361     0.960875627874     1.680376594212     1.007825032230

  Charge       = 0
  Multiplicity = 1
  Basis Set: ANONYMOUSA38CC289
    Blend: 6-31G_2DFP_
  Basis Set: (ANONYMOUSA38CC289 AUX)
    Blend: DEF2-UNIVERSAL-JKFIT

    Orbital Energies [Eh]
    ---------------------

    Doubly Occupied:

       1A    -14.333613     2A    -10.235462     3A    -10.225022
       4A     -0.898086     5A     -0.776877     6A     -0.515609
       7A     -0.465914     8A     -0.464450     9A     -0.357871
      10A     -0.324914    11A     -0.324829

  @DF-RKS Final Energy:  -132.76121159507179

   => Energetics <=

    Nuclear Repulsion Energy =             58.2359075900673702
    One-Electron Energy =                -293.2010152740050444
    Two-Electron Energy =                 117.4218747082090317
    DFT Exchange-Correlation Energy =     -15.2179786193431319
    Empirical Dispersion Energy =           0.0000000000000000
    VV10 Nonlocal Energy =                  0.0000000000000000
    Total Energy =                       -132.7612115950717850

  Dipole Moment: [D]
     X:    -3.8306      Y:    -0.0045      Z:     0.0078     Total:     3.8306

*** Psi4 exiting successfully. Buy a developer a beer!
