                               Psi4 1.4a2.dev629

  ==> Input File <==

--------------------------------------------------------------------------
import os
memory 14 GB

molecule {
 N    2.5163748328   -0.0020182380   -0.0011600858
 X    0.3166073300    1.0000000000   -0.0000000000
 C    0.3135366016    0.0051641615    0.0029765880
 X    0.3166073300    0.0000000000    1.0000000000
 C   -2.4586300333    0.0005564237    0.0003209865
 H   -3.1515648465    0.9688862823   -1.6745771181
 H   -3.1539271619   -1.9386909129    0.0008948463
 H   -3.1491919627    0.9661022834    1.6715447832
units bohr
}

basis {

assign 6-31g_2dfp_

[ 6-31g_2dfp_ ]
spherical

!----------------------------------------------------------------------
! Basis Set Exchange
! Version v0.8.13
! https://www.basissetexchange.org
!----------------------------------------------------------------------
!   Basis set: 6-31G(2df,p)
! Description: 6-31G(2df,p)
!        Role: orbital
!     Version: 0  (Data from the original Basis Set Exchange)
!----------------------------------------------------------------------

****
H     0
S    3   1.00
     18.7311370              0.03349460
      2.8253937              0.23472695
      0.6401217              0.81375733
S    1   1.00
      0.1612778              1.00000000
P    1   1.00
      1.5000000              1.0000000
P    1   1.00
      0.3750000              1.0000000
****
C     0
S    6   1.00
   3047.5249000              0.0018347
    457.3695100              0.0140373
    103.9486900              0.0688426
     29.2101550              0.2321844
      9.2866630              0.4679413
      3.1639270              0.3623120
SP   3   1.00
      7.8682724             -0.1193324              0.0689991
      1.8812885             -0.1608542              0.3164240
      0.5442493              1.1434564              0.7443083
SP   1   1.00
      0.1687144              1.0000000              1.0000000
D    1   1.00
      1.2520000              1.0000000
D    1   1.00
      0.3130000              1.0000000
F    1   1.00
      0.8000000              1.0000000
****
N     0
S    6   1.00
   4173.5110000              0.0018348
    627.4579000              0.0139950
    142.9021000              0.0685870
     40.2343300              0.2322410
     12.8202100              0.4690700
      4.3904370              0.3604550
SP   3   1.00
     11.6263580             -0.1149610              0.0675800
      2.7162800             -0.1691180              0.3239070
      0.7722180              1.1458520              0.7408950
SP   1   1.00
      0.2120313              1.0000000              1.0000000
D    1   1.00
      1.8260000              1.0000000
D    1   1.00
      0.4565000              1.0000000
F    1   1.00
      1.0000000              1.0000000
****
}

set {
opt_type min
reference rhf
freeze_core true
e_convergence 10
d_convergence 10
ensure_bt_convergence true
dft_spherical_points 590
dft_radial_points 99
}

e = energy('b3lyp')

print_out('Grab this energy {0}'.format(e))
--------------------------------------------------------------------------

    Molecular point group: c1

    Geometry (in Bohr), charge = 0, multiplicity = 1:

       Center              X                  Y                   Z               Mass
    ------------   -----------------  -----------------  -----------------  -----------------
         N            2.517174445549    -0.002911663573    -0.001676139737    14.003074004430
         C            0.314336214349     0.004270735927     0.002460534063    12.000000000000
         C           -2.457830420551    -0.000337001873    -0.000195067437    12.000000000000
         H           -3.150765233751     0.967992856727    -1.675093172037     1.007825032230
         H           -3.153127549151    -1.939584338473     0.000378792363     1.007825032230
         H           -3.148392349951     0.965208857827     1.671028729263     1.007825032230

  Charge       = 0
  Multiplicity = 1
  Basis Set: ANONYMOUSB51436A4
    Blend: 6-31G_2DFP_
  Basis Set: (ANONYMOUSB51436A4 AUX)
    Blend: DEF2-UNIVERSAL-JKFIT

    Orbital Energies [Eh]
    ---------------------

    Doubly Occupied:

       1A    -14.333736     2A    -10.235224     3A    -10.225287
       4A     -0.897654     5A     -0.776792     6A     -0.514688
       7A     -0.466044     8A     -0.465496     9A     -0.357787
      10A     -0.324870    11A     -0.324853

  @DF-RKS Final Energy:  -132.76109124853963

   => Energetics <=

    Nuclear Repulsion Energy =             58.1909423237146868
    One-Electron Energy =                -293.1110927697325224
    Two-Electron Energy =                 117.3772546204910441
    DFT Exchange-Correlation Energy =     -15.2181954230128511
    Empirical Dispersion Energy =           0.0000000000000000
    VV10 Nonlocal Energy =                  0.0000000000000000
    Total Energy =                       -132.7610912485396284

  Dipole Moment: [D]
     X:    -3.8329      Y:     0.0035      Z:     0.0020     Total:     3.8329

*** Psi4 exiting successfully. Buy a developer a beer!
