                               Psi4 1.4a2.dev629

  ==> Input File <==

--------------------------------------------------------------------------
import os
memory 14 GB

molecule {
 N    2.5125326331   -0.0033684539   -0.0014696221
 X    0.3166073300    1.0000000000   -0.0000000000
 C    0.3166019463    0.0058177427    0.0016804788
 X    0.3166073300    0.0000000000    1.0000000000
 C   -2.4542000303   -0.0014949276    0.0044891895
 H   -3.1529603089    0.9636920229   -1.6815404162
 H   -3.1527984098   -1.9317518196   -0.0035374168
 H   -3.1525784005    0.9671054356    1.6803777868
units bohr
}

basis {

assign 6-31g_2dfp_

[ 6-31g_2dfp_ ]
spherical

!----------------------------------------------------------------------
! Basis Set Exchange
! Version v0.8.13
! https://www.basissetexchange.org
!----------------------------------------------------------------------
!   Basis set: 6-31G(2df,p)
! Description: 6-31G(2df,p)
!        Role: orbital
!     Version: 0  (Data from the original Basis Set Exchange)
!----------------------------------------------------------------------

****
H     0
S    3   1.00
     18.7311370              0.03349460
      2.8253937              0.23472695
      0.6401217              0.81375733
S    1   1.00
      0.1612778              1.00000000
P    1   1.00
      1.5000000              1.0000000
P    1   1.00
      0.3750000              1.0000000
****
C     0
S    6   1.00
   3047.5249000              0.0018347
    457.3695100              0.0140373
    103.9486900              0.0688426
     29.2101550              0.2321844
      9.2866630              0.4679413
      3.1639270              0.3623120
SP   3   1.00
      7.8682724             -0.1193324              0.0689991
      1.8812885             -0.1608542              0.3164240
      0.5442493              1.1434564              0.7443083
SP   1   1.00
      0.1687144              1.0000000              1.0000000
D    1   1.00
      1.2520000              1.0000000
D    1   1.00
      0.3130000              1.0000000
F    1   1.00
      0.8000000              1.0000000
****
N     0
S    6   1.00
   4173.5110000              0.0018348
    627.4579000              0.0139950
    142.9021000              0.0685870
     40.2343300              0.2322410
     12.8202100              0.4690700
      4.3904370              0.3604550
SP   3   1.00
     11.6263580             -0.1149610              0.0675800
      2.7162800             -0.1691180              0.3239070
      0.7722180              1.1458520              0.7408950
SP   1   1.00
      0.2120313              1.0000000              1.0000000
D    1   1.00
      1.8260000              1.0000000
D    1   1.00
      0.4565000              1.0000000
F    1   1.00
      1.0000000              1.0000000
****
}

set {
opt_type min
reference rhf
freeze_core true
e_convergence 10
d_convergence 10
ensure_bt_convergence true
dft_spherical_points 590
dft_radial_points 99
}

e = energy('b3lyp')

print_out('Grab this energy {0}'.format(e))
--------------------------------------------------------------------------

    Molecular point group: c1

    Geometry (in Bohr), charge = 0, multiplicity = 1:

       Center              X                  Y                   Z               Mass
    ------------   -----------------  -----------------  -----------------  -----------------
         N            2.512541054967    -0.003459693427    -0.002657145044    14.003074004430
         C            0.316610368167     0.005726503173     0.000492955856    12.000000000000
         C           -2.454191608433    -0.001586167127     0.003301666556    12.000000000000
         H           -3.152951887033     0.963600783373    -1.682727939144     1.007825032230
         H           -3.152789987933    -1.931843059127    -0.004724939744     1.007825032230
         H           -3.152569978633     0.967014196073     1.679190263856     1.007825032230

  Charge       = 0
  Multiplicity = 1
  Basis Set: ANONYMOUS35EB2876
    Blend: 6-31G_2DFP_
  Basis Set: (ANONYMOUS35EB2876 AUX)
    Blend: DEF2-UNIVERSAL-JKFIT

    Orbital Energies [Eh]
    ---------------------

    Doubly Occupied:

       1A    -14.332933     2A    -10.235502     3A    -10.224440
       4A     -0.899008     5A     -0.776427     6A     -0.514744
       7A     -0.465846     8A     -0.464556     9A     -0.357647
      10A     -0.325716    11A     -0.325521

  @DF-RKS Final Energy:  -132.76126419274402

   => Energetics <=

    Nuclear Repulsion Energy =             58.2522301969687604
    One-Electron Energy =                -293.2330068811709225
    Two-Electron Energy =                 117.4394449205533562
    DFT Exchange-Correlation Energy =     -15.2199324290951985
    Empirical Dispersion Energy =           0.0000000000000000
    VV10 Nonlocal Energy =                  0.0000000000000000
    Total Energy =                       -132.7612641927440222

  Dipole Moment: [D]
     X:    -3.8278      Y:     0.0010      Z:     0.0018     Total:     3.8278

*** Psi4 exiting successfully. Buy a developer a beer!
