                               Psi4 1.4a2.dev629

  ==> Input File <==

--------------------------------------------------------------------------
import os
memory 14 GB

molecule {
 N    2.5059047711    0.0000000000    0.0000000000
 X    0.3166073300    1.0000000000   -0.0000000000
 C    0.3061704242   -0.0000000000   -0.0000000000
 X    0.3166073300   -0.0000000000    1.0000000000
 C   -2.4606905389   -0.0000000000   -0.0000000000
 H   -3.1449290755    0.9690376969   -1.6784225231
 H   -3.1449290755   -1.9380753938    0.0000000000
 H   -3.1449290754    0.9690376969    1.6784225231
units bohr
}

basis {

assign 6-31g_2dfp_

[ 6-31g_2dfp_ ]
spherical

!----------------------------------------------------------------------
! Basis Set Exchange
! Version v0.8.13
! https://www.basissetexchange.org
!----------------------------------------------------------------------
!   Basis set: 6-31G(2df,p)
! Description: 6-31G(2df,p)
!        Role: orbital
!     Version: 0  (Data from the original Basis Set Exchange)
!----------------------------------------------------------------------

****
H     0
S    3   1.00
     18.7311370              0.03349460
      2.8253937              0.23472695
      0.6401217              0.81375733
S    1   1.00
      0.1612778              1.00000000
P    1   1.00
      1.5000000              1.0000000
P    1   1.00
      0.3750000              1.0000000
****
C     0
S    6   1.00
   3047.5249000              0.0018347
    457.3695100              0.0140373
    103.9486900              0.0688426
     29.2101550              0.2321844
      9.2866630              0.4679413
      3.1639270              0.3623120
SP   3   1.00
      7.8682724             -0.1193324              0.0689991
      1.8812885             -0.1608542              0.3164240
      0.5442493              1.1434564              0.7443083
SP   1   1.00
      0.1687144              1.0000000              1.0000000
D    1   1.00
      1.2520000              1.0000000
D    1   1.00
      0.3130000              1.0000000
F    1   1.00
      0.8000000              1.0000000
****
N     0
S    6   1.00
   4173.5110000              0.0018348
    627.4579000              0.0139950
    142.9021000              0.0685870
     40.2343300              0.2322410
     12.8202100              0.4690700
      4.3904370              0.3604550
SP   3   1.00
     11.6263580             -0.1149610              0.0675800
      2.7162800             -0.1691180              0.3239070
      0.7722180              1.1458520              0.7408950
SP   1   1.00
      0.2120313              1.0000000              1.0000000
D    1   1.00
      1.8260000              1.0000000
D    1   1.00
      0.4565000              1.0000000
F    1   1.00
      1.0000000              1.0000000
****
}

set {
opt_type min
reference rhf
freeze_core true
e_convergence 10
d_convergence 10
ensure_bt_convergence true
dft_spherical_points 590
dft_radial_points 99
}

e = energy('b3lyp')

print_out('Grab this energy {0}'.format(e))
--------------------------------------------------------------------------

    Molecular point group: cs

    Geometry (in Bohr), charge = 0, multiplicity = 1:

       Center              X                  Y                   Z               Mass
    ------------   -----------------  -----------------  -----------------  -----------------
         N            0.000000000000    -2.512546474220     0.000000000000    14.003074004430
         C            0.000000000000    -0.312812127320     0.000000000000    12.000000000000
         C            0.000000000000     2.454048835780     0.000000000000    12.000000000000
         H            0.969037695869     3.138287372380     1.678422524885     1.007825032230
         H            0.969037695869     3.138287372380    -1.678422524885     1.007825032230
         H           -1.938075391739     3.138287372280     0.000000000000     1.007825032230

  Charge       = 0
  Multiplicity = 1
  Basis Set: ANONYMOUS146EC378
    Blend: 6-31G_2DFP_
  Basis Set: (ANONYMOUS146EC378 AUX)
    Blend: DEF2-UNIVERSAL-JKFIT

    Orbital Energies [Eh]
    ---------------------

    Doubly Occupied:

       1Ap   -14.333051     2Ap   -10.234992     3Ap   -10.224468
       4Ap    -0.898159     5Ap    -0.777321     6Ap    -0.513954
       7Ap    -0.466434     1App   -0.466434     8Ap    -0.357479
       9Ap    -0.324938     2App   -0.324938

  @DF-RKS Final Energy:  -132.76116352920920

   => Energetics <=

    Nuclear Repulsion Energy =             58.2752732204847419
    One-Electron Energy =                -293.2787590798523638
    Two-Electron Energy =                 117.4629553322473470
    DFT Exchange-Correlation Energy =     -15.2206330020889258
    Empirical Dispersion Energy =           0.0000000000000000
    VV10 Nonlocal Energy =                  0.0000000000000000
    Total Energy =                       -132.7611635292091989

  Dipole Moment: [D]
     X:     0.0000      Y:     3.8283      Z:     0.0000     Total:     3.8283

*** Psi4 exiting successfully. Buy a developer a beer!
