                               Psi4 1.4a2.dev629

  ==> Input File <==

--------------------------------------------------------------------------
import os
memory 14 GB

molecule {
 N    2.5124837444   -0.0051366864   -0.0029497242
 X    0.3166073300    1.0000000000   -0.0000000000
 C    0.3166029988    0.0102169273    0.0058767346
 X    0.3166073300    0.0000000000    1.0000000000
 C   -2.4541912785    0.0013735824    0.0007948167
 H   -3.1527705439    0.9642998650   -1.6790141882
 H   -3.1552812125   -1.9367215388   -0.0022036209
 H   -3.1502462783    0.9659678505    1.6774959820
units bohr
}

basis {

assign 6-31g_2dfp_

[ 6-31g_2dfp_ ]
spherical

!----------------------------------------------------------------------
! Basis Set Exchange
! Version v0.8.13
! https://www.basissetexchange.org
!----------------------------------------------------------------------
!   Basis set: 6-31G(2df,p)
! Description: 6-31G(2df,p)
!        Role: orbital
!     Version: 0  (Data from the original Basis Set Exchange)
!----------------------------------------------------------------------

****
H     0
S    3   1.00
     18.7311370              0.03349460
      2.8253937              0.23472695
      0.6401217              0.81375733
S    1   1.00
      0.1612778              1.00000000
P    1   1.00
      1.5000000              1.0000000
P    1   1.00
      0.3750000              1.0000000
****
C     0
S    6   1.00
   3047.5249000              0.0018347
    457.3695100              0.0140373
    103.9486900              0.0688426
     29.2101550              0.2321844
      9.2866630              0.4679413
      3.1639270              0.3623120
SP   3   1.00
      7.8682724             -0.1193324              0.0689991
      1.8812885             -0.1608542              0.3164240
      0.5442493              1.1434564              0.7443083
SP   1   1.00
      0.1687144              1.0000000              1.0000000
D    1   1.00
      1.2520000              1.0000000
D    1   1.00
      0.3130000              1.0000000
F    1   1.00
      0.8000000              1.0000000
****
N     0
S    6   1.00
   4173.5110000              0.0018348
    627.4579000              0.0139950
    142.9021000              0.0685870
     40.2343300              0.2322410
     12.8202100              0.4690700
      4.3904370              0.3604550
SP   3   1.00
     11.6263580             -0.1149610              0.0675800
      2.7162800             -0.1691180              0.3239070
      0.7722180              1.1458520              0.7408950
SP   1   1.00
      0.2120313              1.0000000              1.0000000
D    1   1.00
      1.8260000              1.0000000
D    1   1.00
      0.4565000              1.0000000
F    1   1.00
      1.0000000              1.0000000
****
}

set {
opt_type min
reference rhf
freeze_core true
e_convergence 10
d_convergence 10
ensure_bt_convergence true
dft_spherical_points 590
dft_radial_points 99
}

e = energy('b3lyp')

print_out('Grab this energy {0}'.format(e))
--------------------------------------------------------------------------

    Molecular point group: c1

    Geometry (in Bohr), charge = 0, multiplicity = 1:

       Center              X                  Y                   Z               Mass
    ------------   -----------------  -----------------  -----------------  -----------------
         N            2.512505025018    -0.006615055731    -0.003802890249    14.003074004430
         C            0.316624279418     0.008738557969     0.005023568551    12.000000000000
         C           -2.454169997882    -0.000104786931    -0.000058349349    12.000000000000
         H           -3.152749263282     0.962821495669    -1.679867354249     1.007825032230
         H           -3.155259931882    -1.938199908131    -0.003056786949     1.007825032230
         H           -3.150224997682     0.964489481169     1.676642815951     1.007825032230

  Charge       = 0
  Multiplicity = 1
  Basis Set: ANONYMOUSAE3B4717
    Blend: 6-31G_2DFP_
  Basis Set: (ANONYMOUSAE3B4717 AUX)
    Blend: DEF2-UNIVERSAL-JKFIT

    Orbital Energies [Eh]
    ---------------------

    Doubly Occupied:

       1A    -14.332935     2A    -10.235500     3A    -10.224439
       4A     -0.899010     5A     -0.776424     6A     -0.514730
       7A     -0.465789     8A     -0.464618     9A     -0.357650
      10A     -0.325661    11A     -0.325577

  @DF-RKS Final Energy:  -132.76126894294308

   => Energetics <=

    Nuclear Repulsion Energy =             58.2523186661625374
    One-Electron Energy =                -293.2332153527243008
    Two-Electron Energy =                 117.4395576702515029
    DFT Exchange-Correlation Energy =     -15.2199299266327941
    Empirical Dispersion Energy =           0.0000000000000000
    VV10 Nonlocal Energy =                  0.0000000000000000
    Total Energy =                       -132.7612689429430759

  Dipole Moment: [D]
     X:    -3.8277      Y:     0.0051      Z:     0.0029     Total:     3.8277

*** Psi4 exiting successfully. Buy a developer a beer!
