                               Psi4 1.4a2.dev629

  ==> Input File <==

--------------------------------------------------------------------------
import os
memory 14 GB

molecule {
 N    2.5125189896    0.0068937909   -0.0046103734
 X    0.3166073300    1.0000000000    0.0000000000
 C    0.3166037504   -0.0055904711   -0.0021015520
 X    0.3166073300   -0.0000000000    1.0000000000
 C   -2.4542049027   -0.0012382131    0.0002274165
 H   -3.1396227055    0.9752750771   -1.6768605125
 H   -3.1592448719   -1.9378887703    0.0095091457
 H   -3.1594528299    0.9625485866    1.6738358757
units bohr
}

basis {

assign 6-31g_2dfp_

[ 6-31g_2dfp_ ]
spherical

!----------------------------------------------------------------------
! Basis Set Exchange
! Version v0.8.13
! https://www.basissetexchange.org
!----------------------------------------------------------------------
!   Basis set: 6-31G(2df,p)
! Description: 6-31G(2df,p)
!        Role: orbital
!     Version: 0  (Data from the original Basis Set Exchange)
!----------------------------------------------------------------------

****
H     0
S    3   1.00
     18.7311370              0.03349460
      2.8253937              0.23472695
      0.6401217              0.81375733
S    1   1.00
      0.1612778              1.00000000
P    1   1.00
      1.5000000              1.0000000
P    1   1.00
      0.3750000              1.0000000
****
C     0
S    6   1.00
   3047.5249000              0.0018347
    457.3695100              0.0140373
    103.9486900              0.0688426
     29.2101550              0.2321844
      9.2866630              0.4679413
      3.1639270              0.3623120
SP   3   1.00
      7.8682724             -0.1193324              0.0689991
      1.8812885             -0.1608542              0.3164240
      0.5442493              1.1434564              0.7443083
SP   1   1.00
      0.1687144              1.0000000              1.0000000
D    1   1.00
      1.2520000              1.0000000
D    1   1.00
      0.3130000              1.0000000
F    1   1.00
      0.8000000              1.0000000
****
N     0
S    6   1.00
   4173.5110000              0.0018348
    627.4579000              0.0139950
    142.9021000              0.0685870
     40.2343300              0.2322410
     12.8202100              0.4690700
      4.3904370              0.3604550
SP   3   1.00
     11.6263580             -0.1149610              0.0675800
      2.7162800             -0.1691180              0.3239070
      0.7722180              1.1458520              0.7408950
SP   1   1.00
      0.2120313              1.0000000              1.0000000
D    1   1.00
      1.8260000              1.0000000
D    1   1.00
      0.4565000              1.0000000
F    1   1.00
      1.0000000              1.0000000
****
}

set {
opt_type min
reference rhf
freeze_core true
e_convergence 10
d_convergence 10
ensure_bt_convergence true
dft_spherical_points 590
dft_radial_points 99
}

e = energy('b3lyp')

print_out('Grab this energy {0}'.format(e))
--------------------------------------------------------------------------

    Molecular point group: c1

    Geometry (in Bohr), charge = 0, multiplicity = 1:

       Center              X                  Y                   Z               Mass
    ------------   -----------------  -----------------  -----------------  -----------------
         N            2.512532555158     0.006539765568    -0.002647893560    14.003074004430
         C            0.316617315958    -0.005944496432    -0.000139072160    12.000000000000
         C           -2.454191337142    -0.001592238432     0.002189896340    12.000000000000
         H           -3.139609139942     0.974921051768    -1.674898032660     1.007825032230
         H           -3.159231306342    -1.938242795632     0.011471625540     1.007825032230
         H           -3.159439264342     0.962194561268     1.675798355540     1.007825032230

  Charge       = 0
  Multiplicity = 1
  Basis Set: ANONYMOUS7C934743
    Blend: 6-31G_2DFP_
  Basis Set: (ANONYMOUS7C934743 AUX)
    Blend: DEF2-UNIVERSAL-JKFIT

    Orbital Energies [Eh]
    ---------------------

    Doubly Occupied:

       1A    -14.332933     2A    -10.235503     3A    -10.224440
       4A     -0.899008     5A     -0.776427     6A     -0.514749
       7A     -0.465999     8A     -0.464396     9A     -0.357646
      10A     -0.325672    11A     -0.325564

  @DF-RKS Final Energy:  -132.76126430316418

   => Energetics <=

    Nuclear Repulsion Energy =             58.2522356114121891
    One-Electron Energy =                -293.2330345865012760
    Two-Electron Energy =                 117.4394626889358051
    DFT Exchange-Correlation Energy =     -15.2199280170108864
    Empirical Dispersion Energy =           0.0000000000000000
    VV10 Nonlocal Energy =                  0.0000000000000000
    Total Energy =                       -132.7612643031641824

  Dipole Moment: [D]
     X:    -3.8279      Y:    -0.0061      Z:     0.0069     Total:     3.8279

*** Psi4 exiting successfully. Buy a developer a beer!
