                               Psi4 1.4a2.dev629

  ==> Input File <==

--------------------------------------------------------------------------
import os
memory 14 GB

molecule {
 N    2.5087194681    0.0020170691    0.0011696253
 X    0.3166073300    1.0000000000    0.0000000000
 C    0.3196847413   -0.0051744074   -0.0029922906
 X    0.3166073300   -0.0000000000    1.0000000000
 C   -2.4497644881   -0.0005579931   -0.0003224041
 H   -3.1540175981    0.9673499788   -1.6790409977
 H   -3.1516333620   -1.9337583757   -0.0008864019
 H   -3.1563913312    0.9701237284    1.6820724691
units bohr
}

basis {

assign 6-31g_2dfp_

[ 6-31g_2dfp_ ]
spherical

!----------------------------------------------------------------------
! Basis Set Exchange
! Version v0.8.13
! https://www.basissetexchange.org
!----------------------------------------------------------------------
!   Basis set: 6-31G(2df,p)
! Description: 6-31G(2df,p)
!        Role: orbital
!     Version: 0  (Data from the original Basis Set Exchange)
!----------------------------------------------------------------------

****
H     0
S    3   1.00
     18.7311370              0.03349460
      2.8253937              0.23472695
      0.6401217              0.81375733
S    1   1.00
      0.1612778              1.00000000
P    1   1.00
      1.5000000              1.0000000
P    1   1.00
      0.3750000              1.0000000
****
C     0
S    6   1.00
   3047.5249000              0.0018347
    457.3695100              0.0140373
    103.9486900              0.0688426
     29.2101550              0.2321844
      9.2866630              0.4679413
      3.1639270              0.3623120
SP   3   1.00
      7.8682724             -0.1193324              0.0689991
      1.8812885             -0.1608542              0.3164240
      0.5442493              1.1434564              0.7443083
SP   1   1.00
      0.1687144              1.0000000              1.0000000
D    1   1.00
      1.2520000              1.0000000
D    1   1.00
      0.3130000              1.0000000
F    1   1.00
      0.8000000              1.0000000
****
N     0
S    6   1.00
   4173.5110000              0.0018348
    627.4579000              0.0139950
    142.9021000              0.0685870
     40.2343300              0.2322410
     12.8202100              0.4690700
      4.3904370              0.3604550
SP   3   1.00
     11.6263580             -0.1149610              0.0675800
      2.7162800             -0.1691180              0.3239070
      0.7722180              1.1458520              0.7408950
SP   1   1.00
      0.2120313              1.0000000              1.0000000
D    1   1.00
      1.8260000              1.0000000
D    1   1.00
      0.4565000              1.0000000
F    1   1.00
      1.0000000              1.0000000
****
}

set {
opt_type min
reference rhf
freeze_core true
e_convergence 10
d_convergence 10
ensure_bt_convergence true
dft_spherical_points 590
dft_radial_points 99
}

e = energy('b3lyp')

print_out('Grab this energy {0}'.format(e))
--------------------------------------------------------------------------

    Molecular point group: c1

    Geometry (in Bohr), charge = 0, multiplicity = 1:

       Center              X                  Y                   Z               Mass
    ------------   -----------------  -----------------  -----------------  -----------------
         N            2.507921342738     0.002914030576     0.001687244561    14.003074004430
         C            0.318886615938    -0.004277445924    -0.002474671339    12.000000000000
         C           -2.450562613462     0.000338968376     0.000195215161    12.000000000000
         H           -3.154815723462     0.968246940276    -1.678523378439     1.007825032230
         H           -3.152431487362    -1.932861414224    -0.000368782639     1.007825032230
         H           -3.157189456562     0.971020689876     1.682590088361     1.007825032230

  Charge       = 0
  Multiplicity = 1
  Basis Set: ANONYMOUS34FD5361
    Blend: 6-31G_2DFP_
  Basis Set: (ANONYMOUS34FD5361 AUX)
    Blend: DEF2-UNIVERSAL-JKFIT

    Orbital Energies [Eh]
    ---------------------

    Doubly Occupied:

       1A    -14.332126     2A    -10.235778     3A    -10.223588
       4A     -0.900364     5A     -0.776062     6A     -0.514771
       7A     -0.464921     8A     -0.464375     9A     -0.357502
      10A     -0.326390    11A     -0.326371

  @DF-RKS Final Energy:  -132.76137900064387

   => Energetics <=

    Nuclear Repulsion Energy =             58.3139191849358980
    One-Electron Energy =                -293.3555924308638510
    Two-Electron Energy =                 117.5019928543086820
    DFT Exchange-Correlation Energy =     -15.2216986090246191
    Empirical Dispersion Energy =           0.0000000000000000
    VV10 Nonlocal Energy =                  0.0000000000000000
    Total Energy =                       -132.7613790006438705

  Dipole Moment: [D]
     X:    -3.8228      Y:    -0.0036      Z:    -0.0021     Total:     3.8228

*** Psi4 exiting successfully. Buy a developer a beer!
