                               Psi4 1.4a2.dev629

  ==> Input File <==

--------------------------------------------------------------------------
import os
memory 14 GB

molecule {
 N    2.5230222589    0.0037230983   -0.0064522441
 X    0.3166073300    1.0000000000    0.0000000000
 C    0.3239668772   -0.0005013492    0.0008722682
 X    0.3166073300   -0.0000000000    1.0000000000
 C   -2.4521569410   -0.0004207733    0.0007293734
 H   -3.1462848798    0.9682081595   -1.6769859908
 H   -3.1659739408   -1.9308909419    0.0064240895
 H   -3.1659759447    0.9598818067    1.6754125038
units bohr
}

basis {

assign 6-31g_2dfp_

[ 6-31g_2dfp_ ]
spherical

!----------------------------------------------------------------------
! Basis Set Exchange
! Version v0.8.13
! https://www.basissetexchange.org
!----------------------------------------------------------------------
!   Basis set: 6-31G(2df,p)
! Description: 6-31G(2df,p)
!        Role: orbital
!     Version: 0  (Data from the original Basis Set Exchange)
!----------------------------------------------------------------------

****
H     0
S    3   1.00
     18.7311370              0.03349460
      2.8253937              0.23472695
      0.6401217              0.81375733
S    1   1.00
      0.1612778              1.00000000
P    1   1.00
      1.5000000              1.0000000
P    1   1.00
      0.3750000              1.0000000
****
C     0
S    6   1.00
   3047.5249000              0.0018347
    457.3695100              0.0140373
    103.9486900              0.0688426
     29.2101550              0.2321844
      9.2866630              0.4679413
      3.1639270              0.3623120
SP   3   1.00
      7.8682724             -0.1193324              0.0689991
      1.8812885             -0.1608542              0.3164240
      0.5442493              1.1434564              0.7443083
SP   1   1.00
      0.1687144              1.0000000              1.0000000
D    1   1.00
      1.2520000              1.0000000
D    1   1.00
      0.3130000              1.0000000
F    1   1.00
      0.8000000              1.0000000
****
N     0
S    6   1.00
   4173.5110000              0.0018348
    627.4579000              0.0139950
    142.9021000              0.0685870
     40.2343300              0.2322410
     12.8202100              0.4690700
      4.3904370              0.3604550
SP   3   1.00
     11.6263580             -0.1149610              0.0675800
      2.7162800             -0.1691180              0.3239070
      0.7722180              1.1458520              0.7408950
SP   1   1.00
      0.2120313              1.0000000              1.0000000
D    1   1.00
      1.8260000              1.0000000
D    1   1.00
      0.4565000              1.0000000
F    1   1.00
      1.0000000              1.0000000
****
}

set {
opt_type min
reference rhf
freeze_core true
e_convergence 10
d_convergence 10
ensure_bt_convergence true
dft_spherical_points 590
dft_radial_points 99
}

e = energy('b3lyp')

print_out('Grab this energy {0}'.format(e))
--------------------------------------------------------------------------

    Molecular point group: c1

    Geometry (in Bohr), charge = 0, multiplicity = 1:

       Center              X                  Y                   Z               Mass
    ------------   -----------------  -----------------  -----------------  -----------------
         N            2.517187393721     0.002790861531    -0.004837606865    14.003074004430
         C            0.318132012021    -0.001433585969     0.002486905435    12.000000000000
         C           -2.457991806179    -0.001353010069     0.002344010635    12.000000000000
         H           -3.152119744979     0.967275922731    -1.675371353565     1.007825032230
         H           -3.171808805979    -1.931823178669     0.008038726735     1.007825032230
         H           -3.171810809879     0.958949569931     1.677027141035     1.007825032230

  Charge       = 0
  Multiplicity = 1
  Basis Set: ANONYMOUSF5DAAF71
    Blend: 6-31G_2DFP_
  Basis Set: (ANONYMOUSF5DAAF71 AUX)
    Blend: DEF2-UNIVERSAL-JKFIT

    Orbital Energies [Eh]
    ---------------------

    Doubly Occupied:

       1A    -14.333617     2A    -10.235737     3A    -10.225264
       4A     -0.898505     5A     -0.775907     6A     -0.515471
       7A     -0.465272     8A     -0.463804     9A     -0.357953
      10A     -0.325582    11A     -0.325496

  @DF-RKS Final Energy:  -132.76118844387327

   => Energetics <=

    Nuclear Repulsion Energy =             58.1679136912291312
    One-Electron Energy =                -293.0653624721227288
    Two-Electron Energy =                 117.3537420455670031
    DFT Exchange-Correlation Energy =     -15.2174817085466838
    Empirical Dispersion Energy =           0.0000000000000000
    VV10 Nonlocal Energy =                  0.0000000000000000
    Total Energy =                       -132.7611884438732659

  Dipole Moment: [D]
     X:    -3.8325      Y:    -0.0045      Z:     0.0078     Total:     3.8325

*** Psi4 exiting successfully. Buy a developer a beer!
