                               Psi4 1.4a2.dev629

  ==> Input File <==

--------------------------------------------------------------------------
import os
memory 14 GB

molecule {
 N    2.5142100743    0.0015255337   -0.0026917403
 X    0.3166073300    1.0000000000    0.0000000000
 C    0.3127387899   -0.0036337615    0.0063466396
 X    0.3166073300   -0.0000000000    1.0000000000
 C   -2.4508034805   -0.0001595506    0.0002840982
 H   -3.1559619993    0.9700540104   -1.6801865490
 H   -3.1517793268   -1.9348603502    0.0004074424
 H   -3.1518066277    0.9670741182    1.6758401091
units bohr
}

basis {

assign 6-31g_2dfp_

[ 6-31g_2dfp_ ]
spherical

!----------------------------------------------------------------------
! Basis Set Exchange
! Version v0.8.13
! https://www.basissetexchange.org
!----------------------------------------------------------------------
!   Basis set: 6-31G(2df,p)
! Description: 6-31G(2df,p)
!        Role: orbital
!     Version: 0  (Data from the original Basis Set Exchange)
!----------------------------------------------------------------------

****
H     0
S    3   1.00
     18.7311370              0.03349460
      2.8253937              0.23472695
      0.6401217              0.81375733
S    1   1.00
      0.1612778              1.00000000
P    1   1.00
      1.5000000              1.0000000
P    1   1.00
      0.3750000              1.0000000
****
C     0
S    6   1.00
   3047.5249000              0.0018347
    457.3695100              0.0140373
    103.9486900              0.0688426
     29.2101550              0.2321844
      9.2866630              0.4679413
      3.1639270              0.3623120
SP   3   1.00
      7.8682724             -0.1193324              0.0689991
      1.8812885             -0.1608542              0.3164240
      0.5442493              1.1434564              0.7443083
SP   1   1.00
      0.1687144              1.0000000              1.0000000
D    1   1.00
      1.2520000              1.0000000
D    1   1.00
      0.3130000              1.0000000
F    1   1.00
      0.8000000              1.0000000
****
N     0
S    6   1.00
   4173.5110000              0.0018348
    627.4579000              0.0139950
    142.9021000              0.0685870
     40.2343300              0.2322410
     12.8202100              0.4690700
      4.3904370              0.3604550
SP   3   1.00
     11.6263580             -0.1149610              0.0675800
      2.7162800             -0.1691180              0.3239070
      0.7722180              1.1458520              0.7408950
SP   1   1.00
      0.2120313              1.0000000              1.0000000
D    1   1.00
      1.8260000              1.0000000
D    1   1.00
      0.4565000              1.0000000
F    1   1.00
      1.0000000              1.0000000
****
}

set {
opt_type min
reference rhf
freeze_core true
e_convergence 10
d_convergence 10
ensure_bt_convergence true
dft_spherical_points 590
dft_radial_points 99
}

e = energy('b3lyp')

print_out('Grab this energy {0}'.format(e))
--------------------------------------------------------------------------

    Molecular point group: c1

    Geometry (in Bohr), charge = 0, multiplicity = 1:

       Center              X                  Y                   Z               Mass
    ------------   -----------------  -----------------  -----------------  -----------------
         N            2.513812180135     0.002058653364    -0.003615688220    14.003074004430
         C            0.312340895735    -0.003100641836     0.005422691680    12.000000000000
         C           -2.451201374665     0.000373569064    -0.000639849720    12.000000000000
         H           -3.156359893465     0.970587130064    -1.681110496920     1.007825032230
         H           -3.152177220965    -1.934327230536    -0.000516505520     1.007825032230
         H           -3.152204521865     0.967607237864     1.674916161180     1.007825032230

  Charge       = 0
  Multiplicity = 1
  Basis Set: ANONYMOUSC458391D
    Blend: 6-31G_2DFP_
  Basis Set: (ANONYMOUSC458391D AUX)
    Blend: DEF2-UNIVERSAL-JKFIT

    Orbital Energies [Eh]
    ---------------------

    Doubly Occupied:

       1A    -14.333615     2A    -10.235459     3A    -10.225022
       4A     -0.898087     5A     -0.776876     6A     -0.515595
       7A     -0.465466     8A     -0.464908     9A     -0.357873
      10A     -0.324879    11A     -0.324866

  @DF-RKS Final Energy:  -132.76121327791452

   => Energetics <=

    Nuclear Repulsion Energy =             58.2359424957038243
    One-Electron Energy =                -293.2010858300324116
    Two-Electron Energy =                 117.4219119995282767
    DFT Exchange-Correlation Energy =     -15.2179819431142196
    Empirical Dispersion Energy =           0.0000000000000000
    VV10 Nonlocal Energy =                  0.0000000000000000
    Total Energy =                       -132.7612132779145213

  Dipole Moment: [D]
     X:    -3.8305      Y:    -0.0021      Z:     0.0037     Total:     3.8305

*** Psi4 exiting successfully. Buy a developer a beer!
