                               Psi4 1.4a2.dev629

  ==> Input File <==

--------------------------------------------------------------------------
import os
memory 14 GB

molecule {
 N    2.5163664225   -0.0031623309   -0.0018220666
 X    0.3166073300    1.0000000000   -0.0000000000
 C    0.3135332115    0.0050956205    0.0029341806
 X    0.3166073300    0.0000000000    1.0000000000
 C   -2.4586341363    0.0008221654    0.0004708190
 H   -3.1515534338    0.9619843700   -1.6785572019
 H   -3.1516721826   -1.9311548986   -0.0030857123
 H   -3.1514424514    0.9664150736    1.6800599812
units bohr
}

basis {

assign 6-31g_2dfp_

[ 6-31g_2dfp_ ]
spherical

!----------------------------------------------------------------------
! Basis Set Exchange
! Version v0.8.13
! https://www.basissetexchange.org
!----------------------------------------------------------------------
!   Basis set: 6-31G(2df,p)
! Description: 6-31G(2df,p)
!        Role: orbital
!     Version: 0  (Data from the original Basis Set Exchange)
!----------------------------------------------------------------------

****
H     0
S    3   1.00
     18.7311370              0.03349460
      2.8253937              0.23472695
      0.6401217              0.81375733
S    1   1.00
      0.1612778              1.00000000
P    1   1.00
      1.5000000              1.0000000
P    1   1.00
      0.3750000              1.0000000
****
C     0
S    6   1.00
   3047.5249000              0.0018347
    457.3695100              0.0140373
    103.9486900              0.0688426
     29.2101550              0.2321844
      9.2866630              0.4679413
      3.1639270              0.3623120
SP   3   1.00
      7.8682724             -0.1193324              0.0689991
      1.8812885             -0.1608542              0.3164240
      0.5442493              1.1434564              0.7443083
SP   1   1.00
      0.1687144              1.0000000              1.0000000
D    1   1.00
      1.2520000              1.0000000
D    1   1.00
      0.3130000              1.0000000
F    1   1.00
      0.8000000              1.0000000
****
N     0
S    6   1.00
   4173.5110000              0.0018348
    627.4579000              0.0139950
    142.9021000              0.0685870
     40.2343300              0.2322410
     12.8202100              0.4690700
      4.3904370              0.3604550
SP   3   1.00
     11.6263580             -0.1149610              0.0675800
      2.7162800             -0.1691180              0.3239070
      0.7722180              1.1458520              0.7408950
SP   1   1.00
      0.2120313              1.0000000              1.0000000
D    1   1.00
      1.8260000              1.0000000
D    1   1.00
      0.4565000              1.0000000
F    1   1.00
      1.0000000              1.0000000
****
}

set {
opt_type min
reference rhf
freeze_core true
e_convergence 10
d_convergence 10
ensure_bt_convergence true
dft_spherical_points 590
dft_radial_points 99
}

e = energy('b3lyp')

print_out('Grab this energy {0}'.format(e))
--------------------------------------------------------------------------

    Molecular point group: c1

    Geometry (in Bohr), charge = 0, multiplicity = 1:

       Center              X                  Y                   Z               Mass
    ------------   -----------------  -----------------  -----------------  -----------------
         N            2.517170706846    -0.003746198205    -0.002157218899    14.003074004430
         C            0.314337495846     0.004511753195     0.002599028301    12.000000000000
         C           -2.457829851954     0.000238298095     0.000135666701    12.000000000000
         H           -3.150749149454     0.961400502695    -1.678892354199     1.007825032230
         H           -3.150867898254    -1.931738765905    -0.003420864599     1.007825032230
         H           -3.150638167054     0.965831206295     1.679724828901     1.007825032230

  Charge       = 0
  Multiplicity = 1
  Basis Set: ANONYMOUS4D3F46D7
    Blend: 6-31G_2DFP_
  Basis Set: (ANONYMOUS4D3F46D7 AUX)
    Blend: DEF2-UNIVERSAL-JKFIT

    Orbital Energies [Eh]
    ---------------------

    Doubly Occupied:

       1A    -14.333736     2A    -10.235224     3A    -10.225287
       4A     -0.897653     5A     -0.776790     6A     -0.514696
       7A     -0.466079     8A     -0.465453     9A     -0.357787
      10A     -0.324893    11A     -0.324829

  @DF-RKS Final Energy:  -132.76109528429487

   => Energetics <=

    Nuclear Repulsion Energy =             58.1909273082141141
    One-Electron Energy =                -293.1110775587425792
    Two-Electron Energy =                 117.3772473041644560
    DFT Exchange-Correlation Energy =     -15.2181923379308355
    Empirical Dispersion Energy =           0.0000000000000000
    VV10 Nonlocal Energy =                  0.0000000000000000
    Total Energy =                       -132.7610952842948677

  Dipole Moment: [D]
     X:    -3.8329      Y:     0.0015      Z:     0.0009     Total:     3.8329

*** Psi4 exiting successfully. Buy a developer a beer!
