                               Psi4 1.4a2.dev629

  ==> Input File <==

--------------------------------------------------------------------------
import os
memory 14 GB

molecule {
 N    2.5082260245   -0.0002076981   -0.0001169596
 X    0.3166073300    1.0000000000   -0.0000000000
 C    0.3157243585    0.0009676964    0.0005604495
 X    0.3166073300    0.0000000000    1.0000000000
 C   -2.4509349746   -0.0034789392   -0.0020069246
 H   -3.1521464700    0.9662212117   -1.6714386552
 H   -3.1520533564   -1.9297303847    0.0005171599
 H   -3.1522181519    0.9662281139    1.6724849300
units bohr
}

basis {

assign 6-31g_2dfp_

[ 6-31g_2dfp_ ]
spherical

!----------------------------------------------------------------------
! Basis Set Exchange
! Version v0.8.13
! https://www.basissetexchange.org
!----------------------------------------------------------------------
!   Basis set: 6-31G(2df,p)
! Description: 6-31G(2df,p)
!        Role: orbital
!     Version: 0  (Data from the original Basis Set Exchange)
!----------------------------------------------------------------------

****
H     0
S    3   1.00
     18.7311370              0.03349460
      2.8253937              0.23472695
      0.6401217              0.81375733
S    1   1.00
      0.1612778              1.00000000
P    1   1.00
      1.5000000              1.0000000
P    1   1.00
      0.3750000              1.0000000
****
C     0
S    6   1.00
   3047.5249000              0.0018347
    457.3695100              0.0140373
    103.9486900              0.0688426
     29.2101550              0.2321844
      9.2866630              0.4679413
      3.1639270              0.3623120
SP   3   1.00
      7.8682724             -0.1193324              0.0689991
      1.8812885             -0.1608542              0.3164240
      0.5442493              1.1434564              0.7443083
SP   1   1.00
      0.1687144              1.0000000              1.0000000
D    1   1.00
      1.2520000              1.0000000
D    1   1.00
      0.3130000              1.0000000
F    1   1.00
      0.8000000              1.0000000
****
N     0
S    6   1.00
   4173.5110000              0.0018348
    627.4579000              0.0139950
    142.9021000              0.0685870
     40.2343300              0.2322410
     12.8202100              0.4690700
      4.3904370              0.3604550
SP   3   1.00
     11.6263580             -0.1149610              0.0675800
      2.7162800             -0.1691180              0.3239070
      0.7722180              1.1458520              0.7408950
SP   1   1.00
      0.2120313              1.0000000              1.0000000
D    1   1.00
      1.8260000              1.0000000
D    1   1.00
      0.4565000              1.0000000
F    1   1.00
      1.0000000              1.0000000
****
}

set {
opt_type min
reference rhf
freeze_core true
e_convergence 10
d_convergence 10
ensure_bt_convergence true
dft_spherical_points 590
dft_radial_points 99
}

e = energy('b3lyp')

print_out('Grab this energy {0}'.format(e))
--------------------------------------------------------------------------

    Molecular point group: c1

    Geometry (in Bohr), charge = 0, multiplicity = 1:

       Center              X                  Y                   Z               Mass
    ------------   -----------------  -----------------  -----------------  -----------------
         N            2.508958903738     0.000530923827     0.000307639273    14.003074004430
         C            0.316457237738     0.001706318327     0.000985048373    12.000000000000
         C           -2.450202095362    -0.002740317273    -0.001582325727    12.000000000000
         H           -3.151413590762     0.966959833627    -1.671014056327     1.007825032230
         H           -3.151320477162    -1.928991762773     0.000941758773     1.007825032230
         H           -3.151485272662     0.966966735827     1.672909528873     1.007825032230

  Charge       = 0
  Multiplicity = 1
  Basis Set: ANONYMOUSB6973A86
    Blend: 6-31G_2DFP_
  Basis Set: (ANONYMOUSB6973A86 AUX)
    Blend: DEF2-UNIVERSAL-JKFIT

    Orbital Energies [Eh]
    ---------------------

    Doubly Occupied:

       1A    -14.332483     2A    -10.234581     3A    -10.223893
       4A     -0.899728     5A     -0.777164     6A     -0.515467
       7A     -0.466073     8A     -0.465082     9A     -0.357571
      10A     -0.326062    11A     -0.325899

  @DF-RKS Final Energy:  -132.76131206121613

   => Energetics <=

    Nuclear Repulsion Energy =             58.3443431972173556
    One-Electron Energy =                -293.4110483752997425
    Two-Electron Energy =                 117.5295975832987665
    DFT Exchange-Correlation Energy =     -15.2242044664325356
    Empirical Dispersion Energy =           0.0000000000000000
    VV10 Nonlocal Energy =                  0.0000000000000000
    Total Energy =                       -132.7613120612161310

  Dipole Moment: [D]
     X:    -3.8264      Y:    -0.0006      Z:    -0.0004     Total:     3.8264

*** Psi4 exiting successfully. Buy a developer a beer!
