                               Psi4 1.4a2.dev629

  ==> Input File <==

--------------------------------------------------------------------------
import os
memory 14 GB

molecule {
 N    2.5108660523   -0.0027163702    0.0046837503
 X    0.3166073300    1.0000000000    0.0000000000
 C    0.3204811954    0.0023842393   -0.0041070073
 X    0.3166073300    0.0000000000    1.0000000000
 C   -2.4575937676    0.0021627449   -0.0037427224
 H   -3.1562344534    0.9708470547   -1.6815580151
 H   -3.1504549798   -1.9328786283    0.0072018524
 H   -3.1504666169    0.9602009595    1.6775221421
units bohr
}

basis {

assign 6-31g_2dfp_

[ 6-31g_2dfp_ ]
spherical

!----------------------------------------------------------------------
! Basis Set Exchange
! Version v0.8.13
! https://www.basissetexchange.org
!----------------------------------------------------------------------
!   Basis set: 6-31G(2df,p)
! Description: 6-31G(2df,p)
!        Role: orbital
!     Version: 0  (Data from the original Basis Set Exchange)
!----------------------------------------------------------------------

****
H     0
S    3   1.00
     18.7311370              0.03349460
      2.8253937              0.23472695
      0.6401217              0.81375733
S    1   1.00
      0.1612778              1.00000000
P    1   1.00
      1.5000000              1.0000000
P    1   1.00
      0.3750000              1.0000000
****
C     0
S    6   1.00
   3047.5249000              0.0018347
    457.3695100              0.0140373
    103.9486900              0.0688426
     29.2101550              0.2321844
      9.2866630              0.4679413
      3.1639270              0.3623120
SP   3   1.00
      7.8682724             -0.1193324              0.0689991
      1.8812885             -0.1608542              0.3164240
      0.5442493              1.1434564              0.7443083
SP   1   1.00
      0.1687144              1.0000000              1.0000000
D    1   1.00
      1.2520000              1.0000000
D    1   1.00
      0.3130000              1.0000000
F    1   1.00
      0.8000000              1.0000000
****
N     0
S    6   1.00
   4173.5110000              0.0018348
    627.4579000              0.0139950
    142.9021000              0.0685870
     40.2343300              0.2322410
     12.8202100              0.4690700
      4.3904370              0.3604550
SP   3   1.00
     11.6263580             -0.1149610              0.0675800
      2.7162800             -0.1691180              0.3239070
      0.7722180              1.1458520              0.7408950
SP   1   1.00
      0.2120313              1.0000000              1.0000000
D    1   1.00
      1.8260000              1.0000000
D    1   1.00
      0.4565000              1.0000000
F    1   1.00
      1.0000000              1.0000000
****
}

set {
opt_type min
reference rhf
freeze_core true
e_convergence 10
d_convergence 10
ensure_bt_convergence true
dft_spherical_points 590
dft_radial_points 99
}

e = energy('b3lyp')

print_out('Grab this energy {0}'.format(e))
--------------------------------------------------------------------------

    Molecular point group: c1

    Geometry (in Bohr), charge = 0, multiplicity = 1:

       Center              X                  Y                   Z               Mass
    ------------   -----------------  -----------------  -----------------  -----------------
         N            2.511272284903    -0.003074219911     0.005303327174    14.003074004430
         C            0.320887428003     0.002026389589    -0.003487430426    12.000000000000
         C           -2.457187534997     0.001804895189    -0.003123145526    12.000000000000
         H           -3.155828220797     0.970489204989    -1.680938438226     1.007825032230
         H           -3.150048747197    -1.933236478011     0.007821429274     1.007825032230
         H           -3.150060384297     0.959843109789     1.678141718974     1.007825032230

  Charge       = 0
  Multiplicity = 1
  Basis Set: ANONYMOUSFB70FBB4
    Blend: 6-31G_2DFP_
  Basis Set: (ANONYMOUSFB70FBB4 AUX)
    Blend: DEF2-UNIVERSAL-JKFIT

    Orbital Energies [Eh]
    ---------------------

    Doubly Occupied:

       1A    -14.332245     2A    -10.235544     3A    -10.223849
       4A     -0.899931     5A     -0.775981     6A     -0.513864
       7A     -0.465759     8A     -0.464697     9A     -0.357416
      10A     -0.326460    11A     -0.326272

  @DF-RKS Final Energy:  -132.76127841370467

   => Energetics <=

    Nuclear Repulsion Energy =             58.2688612327171640
    One-Electron Energy =                -293.2655615730868703
    Two-Electron Energy =                 117.4573274744208931
    DFT Exchange-Correlation Energy =     -15.2219055477558758
    Empirical Dispersion Energy =           0.0000000000000000
    VV10 Nonlocal Energy =                  0.0000000000000000
    Total Energy =                       -132.7612784137046731

  Dipole Moment: [D]
     X:    -3.8254      Y:     0.0017      Z:    -0.0029     Total:     3.8254

*** Psi4 exiting successfully. Buy a developer a beer!
