                               Psi4 1.4a2.dev629

  ==> Input File <==

--------------------------------------------------------------------------
import os
memory 14 GB

molecule {
 N    2.5087151929    0.0027027148   -0.0047024721
 X    0.3166073300    1.0000000000   -0.0000000000
 C    0.3196883868   -0.0023703058    0.0041281363
 X    0.3166073300   -0.0000000000    1.0000000000
 C   -2.4497659466   -0.0021733159    0.0037676241
 H   -3.1501659837    0.9659461239   -1.6730693293
 H   -3.1559312363   -1.9406750030   -0.0071980036
 H   -3.1559429833    0.9765697860    1.6770740447
units bohr
}

basis {

assign 6-31g_2dfp_

[ 6-31g_2dfp_ ]
spherical

!----------------------------------------------------------------------
! Basis Set Exchange
! Version v0.8.13
! https://www.basissetexchange.org
!----------------------------------------------------------------------
!   Basis set: 6-31G(2df,p)
! Description: 6-31G(2df,p)
!        Role: orbital
!     Version: 0  (Data from the original Basis Set Exchange)
!----------------------------------------------------------------------

****
H     0
S    3   1.00
     18.7311370              0.03349460
      2.8253937              0.23472695
      0.6401217              0.81375733
S    1   1.00
      0.1612778              1.00000000
P    1   1.00
      1.5000000              1.0000000
P    1   1.00
      0.3750000              1.0000000
****
C     0
S    6   1.00
   3047.5249000              0.0018347
    457.3695100              0.0140373
    103.9486900              0.0688426
     29.2101550              0.2321844
      9.2866630              0.4679413
      3.1639270              0.3623120
SP   3   1.00
      7.8682724             -0.1193324              0.0689991
      1.8812885             -0.1608542              0.3164240
      0.5442493              1.1434564              0.7443083
SP   1   1.00
      0.1687144              1.0000000              1.0000000
D    1   1.00
      1.2520000              1.0000000
D    1   1.00
      0.3130000              1.0000000
F    1   1.00
      0.8000000              1.0000000
****
N     0
S    6   1.00
   4173.5110000              0.0018348
    627.4579000              0.0139950
    142.9021000              0.0685870
     40.2343300              0.2322410
     12.8202100              0.4690700
      4.3904370              0.3604550
SP   3   1.00
     11.6263580             -0.1149610              0.0675800
      2.7162800             -0.1691180              0.3239070
      0.7722180              1.1458520              0.7408950
SP   1   1.00
      0.2120313              1.0000000              1.0000000
D    1   1.00
      1.8260000              1.0000000
D    1   1.00
      0.4565000              1.0000000
F    1   1.00
      1.0000000              1.0000000
****
}

set {
opt_type min
reference rhf
freeze_core true
e_convergence 10
d_convergence 10
ensure_bt_convergence true
dft_spherical_points 590
dft_radial_points 99
}

e = energy('b3lyp')

print_out('Grab this energy {0}'.format(e))
--------------------------------------------------------------------------

    Molecular point group: c1

    Geometry (in Bohr), charge = 0, multiplicity = 1:

       Center              X                  Y                   Z               Mass
    ------------   -----------------  -----------------  -----------------  -----------------
         N            2.507917835762     0.003063988982    -0.005328451734    14.003074004430
         C            0.318891029662    -0.002009031618     0.003502156666    12.000000000000
         C           -2.450563303738    -0.001812041718     0.003141644466    12.000000000000
         H           -3.150963340838     0.966307398082    -1.673695308934     1.007825032230
         H           -3.156728593438    -1.940313728818    -0.007823983234     1.007825032230
         H           -3.156740340438     0.976931060182     1.676448065066     1.007825032230

  Charge       = 0
  Multiplicity = 1
  Basis Set: ANONYMOUSD37BD0EA
    Blend: 6-31G_2DFP_
  Basis Set: (ANONYMOUSD37BD0EA AUX)
    Blend: DEF2-UNIVERSAL-JKFIT

    Orbital Energies [Eh]
    ---------------------

    Doubly Occupied:

       1A    -14.332125     2A    -10.235779     3A    -10.223588
       4A     -0.900364     5A     -0.776062     6A     -0.514776
       7A     -0.465170     8A     -0.464120     9A     -0.357502
      10A     -0.326475    11A     -0.326284

  @DF-RKS Final Energy:  -132.76138045167062

   => Energetics <=

    Nuclear Repulsion Energy =             58.3138956332511782
    One-Electron Energy =                -293.3555583392077324
    Two-Electron Energy =                 117.5019770905643099
    DFT Exchange-Correlation Energy =     -15.2216948362783828
    Empirical Dispersion Energy =           0.0000000000000000
    VV10 Nonlocal Energy =                  0.0000000000000000
    Total Energy =                       -132.7613804516706182

  Dipole Moment: [D]
     X:    -3.8228      Y:    -0.0016      Z:     0.0029     Total:     3.8228

*** Psi4 exiting successfully. Buy a developer a beer!
