                               Psi4 1.4a2.dev629

  ==> Input File <==

--------------------------------------------------------------------------
import os
memory 14 GB

molecule {
 N    2.5020678392   -0.0001980975    0.0003390451
 X    0.3166073300    1.0000000000   -0.0000000000
 C    0.3092359219    0.0007216078   -0.0012455211
 X    0.3166073300    0.0000000000    1.0000000000
 C   -2.4562596514   -0.0023245835    0.0040269238
 H   -3.1463137410    0.9707618808   -1.6814091964
 H   -3.1460653420   -1.9387166364   -0.0004593049
 H   -3.1460675966    0.9697558288    1.6787480535
units bohr
}

basis {

assign 6-31g_2dfp_

[ 6-31g_2dfp_ ]
spherical

!----------------------------------------------------------------------
! Basis Set Exchange
! Version v0.8.13
! https://www.basissetexchange.org
!----------------------------------------------------------------------
!   Basis set: 6-31G(2df,p)
! Description: 6-31G(2df,p)
!        Role: orbital
!     Version: 0  (Data from the original Basis Set Exchange)
!----------------------------------------------------------------------

****
H     0
S    3   1.00
     18.7311370              0.03349460
      2.8253937              0.23472695
      0.6401217              0.81375733
S    1   1.00
      0.1612778              1.00000000
P    1   1.00
      1.5000000              1.0000000
P    1   1.00
      0.3750000              1.0000000
****
C     0
S    6   1.00
   3047.5249000              0.0018347
    457.3695100              0.0140373
    103.9486900              0.0688426
     29.2101550              0.2321844
      9.2866630              0.4679413
      3.1639270              0.3623120
SP   3   1.00
      7.8682724             -0.1193324              0.0689991
      1.8812885             -0.1608542              0.3164240
      0.5442493              1.1434564              0.7443083
SP   1   1.00
      0.1687144              1.0000000              1.0000000
D    1   1.00
      1.2520000              1.0000000
D    1   1.00
      0.3130000              1.0000000
F    1   1.00
      0.8000000              1.0000000
****
N     0
S    6   1.00
   4173.5110000              0.0018348
    627.4579000              0.0139950
    142.9021000              0.0685870
     40.2343300              0.2322410
     12.8202100              0.4690700
      4.3904370              0.3604550
SP   3   1.00
     11.6263580             -0.1149610              0.0675800
      2.7162800             -0.1691180              0.3239070
      0.7722180              1.1458520              0.7408950
SP   1   1.00
      0.2120313              1.0000000              1.0000000
D    1   1.00
      1.8260000              1.0000000
D    1   1.00
      0.4565000              1.0000000
F    1   1.00
      1.0000000              1.0000000
****
}

set {
opt_type min
reference rhf
freeze_core true
e_convergence 10
d_convergence 10
ensure_bt_convergence true
dft_spherical_points 590
dft_radial_points 99
}

e = energy('b3lyp')

print_out('Grab this energy {0}'.format(e))
--------------------------------------------------------------------------

    Molecular point group: c1

    Geometry (in Bohr), charge = 0, multiplicity = 1:

       Center              X                  Y                   Z               Mass
    ------------   -----------------  -----------------  -----------------  -----------------
         N            2.507916404870     0.000294132925    -0.000513564768    14.003074004430
         C            0.315084487570     0.001213838225    -0.002098130968    12.000000000000
         C           -2.450411085730    -0.001832353075     0.003174313932    12.000000000000
         H           -3.140465175330     0.971254111225    -1.682261806268     1.007825032230
         H           -3.140216776330    -1.938224405975    -0.001311914768     1.007825032230
         H           -3.140219030930     0.970248059225     1.677895443632     1.007825032230

  Charge       = 0
  Multiplicity = 1
  Basis Set: ANONYMOUSD170ADE0
    Blend: 6-31G_2DFP_
  Basis Set: (ANONYMOUSD170ADE0 AUX)
    Blend: DEF2-UNIVERSAL-JKFIT

    Orbital Energies [Eh]
    ---------------------

    Doubly Occupied:

       1A    -14.332246     2A    -10.235268     3A    -10.223617
       4A     -0.899510     5A     -0.776958     6A     -0.514002
       7A     -0.466436     8A     -0.465304     9A     -0.357337
      10A     -0.325790    11A     -0.325604

  @DF-RKS Final Energy:  -132.76131214767051

   => Energetics <=

    Nuclear Repulsion Energy =             58.3367827380611743
    One-Electron Energy =                -293.4010659010075415
    Two-Electron Energy =                 117.5253583748555712
    DFT Exchange-Correlation Energy =     -15.2223873595797148
    Empirical Dispersion Energy =           0.0000000000000000
    VV10 Nonlocal Energy =                  0.0000000000000000
    Total Energy =                       -132.7613121476705089

  Dipole Moment: [D]
     X:    -3.8232      Y:    -0.0005      Z:     0.0009     Total:     3.8232

*** Psi4 exiting successfully. Buy a developer a beer!
