                               Psi4 1.4a2.dev629

  ==> Input File <==

--------------------------------------------------------------------------
import os
memory 14 GB

molecule {
 N    2.5108704743   -0.0020027386   -0.0011511769
 X    0.3166073300    1.0000000000   -0.0000000000
 C    0.3204776029    0.0051526707    0.0029699805
 X    0.3166073300    0.0000000000    1.0000000000
 C   -2.4575923185    0.0005522265    0.0003185731
 H   -3.1523895950    0.9694682546   -1.6755890884
 H   -3.1547674458   -1.9398564406    0.0008938607
 H   -3.1500012880    0.9666860274    1.6725578510
units bohr
}

basis {

assign 6-31g_2dfp_

[ 6-31g_2dfp_ ]
spherical

!----------------------------------------------------------------------
! Basis Set Exchange
! Version v0.8.13
! https://www.basissetexchange.org
!----------------------------------------------------------------------
!   Basis set: 6-31G(2df,p)
! Description: 6-31G(2df,p)
!        Role: orbital
!     Version: 0  (Data from the original Basis Set Exchange)
!----------------------------------------------------------------------

****
H     0
S    3   1.00
     18.7311370              0.03349460
      2.8253937              0.23472695
      0.6401217              0.81375733
S    1   1.00
      0.1612778              1.00000000
P    1   1.00
      1.5000000              1.0000000
P    1   1.00
      0.3750000              1.0000000
****
C     0
S    6   1.00
   3047.5249000              0.0018347
    457.3695100              0.0140373
    103.9486900              0.0688426
     29.2101550              0.2321844
      9.2866630              0.4679413
      3.1639270              0.3623120
SP   3   1.00
      7.8682724             -0.1193324              0.0689991
      1.8812885             -0.1608542              0.3164240
      0.5442493              1.1434564              0.7443083
SP   1   1.00
      0.1687144              1.0000000              1.0000000
D    1   1.00
      1.2520000              1.0000000
D    1   1.00
      0.3130000              1.0000000
F    1   1.00
      0.8000000              1.0000000
****
N     0
S    6   1.00
   4173.5110000              0.0018348
    627.4579000              0.0139950
    142.9021000              0.0685870
     40.2343300              0.2322410
     12.8202100              0.4690700
      4.3904370              0.3604550
SP   3   1.00
     11.6263580             -0.1149610              0.0675800
      2.7162800             -0.1691180              0.3239070
      0.7722180              1.1458520              0.7408950
SP   1   1.00
      0.2120313              1.0000000              1.0000000
D    1   1.00
      1.8260000              1.0000000
D    1   1.00
      0.4565000              1.0000000
F    1   1.00
      1.0000000              1.0000000
****
}

set {
opt_type min
reference rhf
freeze_core true
e_convergence 10
d_convergence 10
ensure_bt_convergence true
dft_spherical_points 590
dft_radial_points 99
}

e = energy('b3lyp')

print_out('Grab this energy {0}'.format(e))
--------------------------------------------------------------------------

    Molecular point group: c1

    Geometry (in Bohr), charge = 0, multiplicity = 1:

       Center              X                  Y                   Z               Mass
    ------------   -----------------  -----------------  -----------------  -----------------
         N            2.511275880505    -0.002896870382    -0.001667635793    14.003074004430
         C            0.320883009105     0.004258538918     0.002453521607    12.000000000000
         C           -2.457186912295    -0.000341905282    -0.000197885793    12.000000000000
         H           -3.151984188795     0.968574122818    -1.676105547293     1.007825032230
         H           -3.154362039595    -1.940750572382     0.000377401807     1.007825032230
         H           -3.149595881795     0.965791895618     1.672041392107     1.007825032230

  Charge       = 0
  Multiplicity = 1
  Basis Set: ANONYMOUS40DE1DFB
    Blend: 6-31G_2DFP_
  Basis Set: (ANONYMOUS40DE1DFB AUX)
    Blend: DEF2-UNIVERSAL-JKFIT

    Orbital Energies [Eh]
    ---------------------

    Doubly Occupied:

       1A    -14.332246     2A    -10.235543     3A    -10.223849
       4A     -0.899931     5A     -0.775981     6A     -0.513858
       7A     -0.465504     8A     -0.464958     9A     -0.357417
      10A     -0.326376    11A     -0.326358

  @DF-RKS Final Energy:  -132.76127693535082

   => Energetics <=

    Nuclear Repulsion Energy =             58.2688843610406408
    One-Electron Energy =                -293.2655947269378203
    Two-Electron Energy =                 117.4573427749861310
    DFT Exchange-Correlation Energy =     -15.2219093444397711
    Empirical Dispersion Energy =           0.0000000000000000
    VV10 Nonlocal Energy =                  0.0000000000000000
    Total Energy =                       -132.7612769353508213

  Dipole Moment: [D]
     X:    -3.8253      Y:     0.0036      Z:     0.0021     Total:     3.8253

*** Psi4 exiting successfully. Buy a developer a beer!
