                               Psi4 1.4a2.dev629

  ==> Input File <==

--------------------------------------------------------------------------
import os
memory 14 GB

molecule {
 C   -0.3233387433   -0.0004350265   -0.0004316289
 C    0.0615633128   -1.4012451942   -2.4259996787
 C    0.0607122081    2.8018658445   -0.0013878983
 C    0.0610296155   -1.4025402155    2.4254667614
 H    2.0856922390   -1.6452117170   -2.8468130953
 H   -0.7661025477   -0.3864423190   -4.0266548496
 H   -0.7639188109   -3.2920601407   -2.3483364336
 H    2.0877107904    3.2880928642   -0.0034966425
 H   -0.7692016555    3.6813036646    1.6779749228
 H   -0.7627921191    3.6794930369   -1.6731924212
 H    2.0872716669   -1.6482319489    2.8450502926
 H   -0.7613199844   -3.2882873170    2.3497610380
 H   -0.7699138485   -0.3863258450    4.0280596333
units bohr
0 2
}

basis {

assign 6-31g_2dfp_

[ 6-31g_2dfp_ ]

spherical

!----------------------------------------------------------------------
! Basis Set Exchange
! Version v0.8.13
! https://www.basissetexchange.org
!----------------------------------------------------------------------
!   Basis set: 6-31G(2df,p)
! Description: 6-31G(2df,p)
!        Role: orbital
!     Version: 0  (Data from the original Basis Set Exchange)
!----------------------------------------------------------------------

****
H     0
S    3   1.00
     18.7311370              0.03349460
      2.8253937              0.23472695
      0.6401217              0.81375733
S    1   1.00
      0.1612778              1.00000000
P    1   1.00
      1.5000000              1.0000000
P    1   1.00
      0.3750000              1.0000000
****
B     0
S    6   1.00
   2068.8823000              0.0018663
    310.6495700              0.0142515
     70.6830330              0.0695516
     19.8610800              0.2325729
      6.2993048              0.4670787
      2.1270270              0.3634314
SP   3   1.00
      4.7279710             -0.1303938              0.0745976
      1.1903377             -0.1307889              0.3078467
      0.3594117              1.1309444              0.7434568
SP   1   1.00
      0.1267512              1.0000000              1.0000000
D    1   1.00
      0.8020000              1.0000000
D    1   1.00
      0.2005000              1.0000000
F    1   1.00
      0.5000000              1.0000000
****
C     0
S    6   1.00
   3047.5249000              0.0018347
    457.3695100              0.0140373
    103.9486900              0.0688426
     29.2101550              0.2321844
      9.2866630              0.4679413
      3.1639270              0.3623120
SP   3   1.00
      7.8682724             -0.1193324              0.0689991
      1.8812885             -0.1608542              0.3164240
      0.5442493              1.1434564              0.7443083
SP   1   1.00
      0.1687144              1.0000000              1.0000000
D    1   1.00
      1.2520000              1.0000000
D    1   1.00
      0.3130000              1.0000000
F    1   1.00
      0.8000000              1.0000000
****
N     0
S    6   1.00
   4173.5110000              0.0018348
    627.4579000              0.0139950
    142.9021000              0.0685870
     40.2343300              0.2322410
     12.8202100              0.4690700
      4.3904370              0.3604550
SP   3   1.00
     11.6263580             -0.1149610              0.0675800
      2.7162800             -0.1691180              0.3239070
      0.7722180              1.1458520              0.7408950
SP   1   1.00
      0.2120313              1.0000000              1.0000000
D    1   1.00
      1.8260000              1.0000000
D    1   1.00
      0.4565000              1.0000000
F    1   1.00
      1.0000000              1.0000000
****
O     0
S    6   1.00
   5484.6717000              0.0018311
    825.2349500              0.0139501
    188.0469600              0.0684451
     52.9645000              0.2327143
     16.8975700              0.4701930
      5.7996353              0.3585209
SP   3   1.00
     15.5396160             -0.1107775              0.0708743
      3.5999336             -0.1480263              0.3397528
      1.0137618              1.1307670              0.7271586
SP   1   1.00
      0.2700058              1.0000000              1.0000000
D    1   1.00
      2.5840000              1.0000000
D    1   1.00
      0.6460000              1.0000000
F    1   1.00
      1.4000000              1.0000000
****
F     0
S    6   1.00
   7001.7130900              0.0018196169
   1051.3660900              0.0139160796
    239.2856900              0.0684053245
     67.3974453              0.233185760
     21.5199573              0.471267439
      7.40310130             0.356618546
SP   3   1.00
     20.8479528             -0.108506975            0.0716287243
      4.80830834            -0.146451658            0.3459121030
      1.34406986             1.128688580            0.7224699570
SP   1   1.00
      0.358151393            1.0000000              1.0000000
D    1   1.00
      3.5000000              1.0000000
D    1   1.00
      0.8750000              1.0000000
F    1   1.00
      1.8500000              1.0000000
****
Al     0
S    6   1.00
  13983.1000000              0.00194267
   2098.7500000              0.0148599
    477.7050000              0.0728494
    134.3600000              0.2468300
     42.8709000              0.4872580
     14.5189000              0.3234960
SP   6   1.00
    239.6680000             -0.00292619             0.00460285
     57.4419000             -0.0374080              0.0331990
     18.2859000             -0.1144870              0.1362820
      6.5991400              0.1156350              0.3304760
      2.4904900              0.6125950              0.4491460
      0.9445400              0.3937990              0.2657040
SP   3   1.00
      1.2779000             -0.2276060             -0.0175130
      0.3975900              0.00144583             0.2445330
      0.1600950              1.0927900              0.8049340
SP   1   1.00
      0.0556577              1.0000000              1.0000000
D    1   1.00
      0.6500000              1.0000000
D    1   1.00
      0.1625000              1.0000000
F    1   1.00
      0.2500000              1.0000000
****
Si     0
S    6   1.00
  16115.9000000              0.00195948
   2425.5800000              0.01492880
    553.8670000              0.07284780
    156.3400000              0.24613000
     50.0683000              0.48591400
     17.0178000              0.32500200
SP   6   1.00
    292.7180000             -0.00278094             0.00443826
     69.8731000             -0.03571460             0.03266790
     22.3363000             -0.11498500             0.13472100
      8.1503900              0.09356340             0.32867800
      3.1345800              0.60301700             0.44964000
      1.2254300              0.41895900             0.26137200
SP   3   1.00
      1.7273800             -0.24463000            -0.01779510
      0.5729220              0.00431572             0.25353900
      0.2221920              1.09818000             0.80066900
SP   1   1.00
      0.0778369              1.00000000             1.00000000
D    1   1.00
      0.9000000              1.0000000
D    1   1.00
      0.2250000              1.0000000
F    1   1.00
      0.3200000              1.0000000
****
P     0
S    6   1.00
  19413.3000000              0.0018516
   2909.4200000              0.0142062
    661.3640000              0.0699995
    185.7590000              0.2400790
     59.1943000              0.4847620
     20.0310000              0.3352000
SP   6   1.00
    339.4780000             -0.00278217             0.00456462
     81.0101000             -0.0360499              0.03369360
     25.8780000             -0.1166310              0.13975500
      9.4522100              0.0968328              0.33936200
      3.6656600              0.6144180              0.45092100
      1.4674600              0.4037980              0.23858600
SP   3   1.00
      2.1562300             -0.2529230             -0.01776530
      0.7489970              0.0328517              0.27405800
      0.2831450              1.0812500              0.78542100
SP   1   1.00
      0.0998317              1.0000000              1.00000000
D    1   1.00
      1.1000000              1.0000000
D    1   1.00
      0.2750000              1.0000000
F    1   1.00
      0.4500000              1.0000000
****
S     0
S    6   1.00
  21917.1000000              0.0018690
   3301.4900000              0.0142300
    754.1460000              0.0696960
    212.7110000              0.2384870
     67.9896000              0.4833070
     23.0515000              0.3380740
SP   6   1.00
    423.7350000             -0.0023767              0.0040610
    100.7100000             -0.0316930              0.0306810
     32.1599000             -0.1133170              0.1304520
     11.8079000              0.0560900              0.3272050
      4.6311000              0.5922550              0.4528510
      1.8702500              0.4550060              0.2560420
SP   3   1.00
      2.6158400             -0.2503740             -0.0145110
      0.9221670              0.0669570              0.3102630
      0.3412870              1.0545100              0.7544830
SP   1   1.00
      0.1171670              1.0000000              1.0000000
D    1   1.00
      1.3000000              1.0000000
D    1   1.00
      0.3250000              1.0000000
F    1   1.00
      0.5500000              1.0000000
****
Cl     0
S    6   1.00
  25180.1000000              0.0018330
   3780.3500000              0.0140340
    860.4740000              0.0690970
    242.1450000              0.2374520
     77.3349000              0.4830340
     26.2470000              0.3398560
SP   6   1.00
    491.7650000             -0.0022974              0.0039894
    116.9840000             -0.0307140              0.0303180
     37.4153000             -0.1125280              0.1298800
     13.7834000              0.0450160              0.3279510
      5.4521500              0.5893530              0.4535270
      2.2258800              0.4652060              0.2521540
SP   3   1.00
      3.1864900             -0.2518300             -0.0142990
      1.1442700              0.0615890              0.3235720
      0.4203770              1.0601800              0.7435070
SP   1   1.00
      0.1426570              1.0000000              1.0000000
D    1   1.00
      1.5000000              1.0000000
D    1   1.00
      0.3750000              1.0000000
F    1   1.00
      0.7000000              1.0000000
****
}

set {
reference uhf
freeze_core true
e_convergence 10
d_convergence 10
dft_spherical_points 1202
dft_radial_points 99
}

e = energy('b3lyp')

print_out('Grab this energy {0}'.format(e))
--------------------------------------------------------------------------

    Molecular point group: c1

    Geometry (in Bohr), charge = 0, multiplicity = 2:

       Center              X                  Y                   Z               Mass
    ------------   -----------------  -----------------  -----------------  -----------------
         C           -0.323339971738     0.000018914182     0.000021468854    12.000000000000
         C            0.061562084362    -1.400791253518    -2.425546580946    12.000000000000
         C            0.060710979662     2.802319785182    -0.000934800546    12.000000000000
         C            0.061028387062    -1.402086274818     2.425919859154    12.000000000000
         H            2.085691010562    -1.644757776318    -2.846359997546     1.007825032230
         H           -0.766103776138    -0.385988378318    -4.026201751846     1.007825032230
         H           -0.763920039338    -3.291606200018    -2.347883335846     1.007825032230
         H            2.087709561962     3.288546804882    -0.003043544746     1.007825032230
         H           -0.769202883938     3.681757605282     1.678428020554     1.007825032230
         H           -0.762793347538     3.679946977582    -1.672739323446     1.007825032230
         H            2.087270438462    -1.647778008218     2.845503390354     1.007825032230
         H           -0.761321212838    -3.287833376318     2.350214135754     1.007825032230
         H           -0.769915076938    -0.385871904318     4.028512731054     1.007825032230

  Charge       = 0
  Multiplicity = 2
  Basis Set: ANONYMOUSC29B9A22
    Blend: 6-31G_2DFP_
  Basis Set: (ANONYMOUSC29B9A22 AUX)
    Blend: DEF2-UNIVERSAL-JKFIT

    Orbital Energies [Eh]
    ---------------------

    Alpha Occupied:

       1A    -10.180342     2A    -10.167036     3A    -10.167025
       4A    -10.166983     5A     -0.797767     6A     -0.686275
       7A     -0.686103     8A     -0.530780     9A     -0.441128
      10A     -0.434930    11A     -0.434406    12A     -0.382631
      13A     -0.382568    14A     -0.363613    15A     -0.338226
      16A     -0.337769    17A     -0.168961

    Alpha Virtual:

      18A      0.076068    19A      0.133991    20A      0.134311
      21A      0.142338    22A      0.142915    23A      0.154886
      24A      0.178644    25A      0.178912    26A      0.203547
      27A      0.214805    28A      0.275833    29A      0.276140
      30A      0.398878    31A      0.399574    32A      0.403346
      33A      0.423867    34A      0.424327    35A      0.456593
      36A      0.495319    37A      0.495461    38A      0.512161
      39A      0.513979    40A      0.578732    41A      0.578901
      42A      0.591431    43A      0.591831    44A      0.602571
      45A      0.624673    46A      0.631762    47A      0.635867
      48A      0.636729    49A      0.663115    50A      0.663710
      51A      0.683582    52A      0.684157    53A      0.734994
      54A      0.825052    55A      0.825761    56A      0.853915
      57A      0.914719    58A      0.915331    59A      0.944124
      60A      0.944602    61A      0.961173    62A      0.961418
      63A      1.003458    64A      1.127719    65A      1.128511
      66A      1.142222    67A      1.163187    68A      1.163350
      69A      1.223321    70A      1.274137    71A      1.274834
      72A      1.279359    73A      1.324051    74A      1.324641
      75A      1.355986    76A      1.365621    77A      1.366484
      78A      1.392440    79A      1.403982    80A      1.404110
      81A      1.416116    82A      1.418108    83A      1.427893
      84A      1.491502    85A      1.499064    86A      1.542810
      87A      1.542877    88A      1.574173    89A      1.574731
      90A      1.669838    91A      1.738410    92A      1.740409
      93A      1.768330    94A      1.830301    95A      1.832457
      96A      1.971783    97A      2.017466    98A      2.018432
      99A      2.020476   100A      2.051894   101A      2.053423
     102A      2.738227   103A      2.738739   104A      2.790924
     105A      2.811426   106A      2.889735   107A      2.890169
     108A      2.894938   109A      2.929463   110A      2.929535
     111A      2.958928   112A      2.964347   113A      2.964485
     114A      3.034010   115A      3.070498   116A      3.071941
     117A      3.084528   118A      3.168191   119A      3.169370
     120A      3.180592   121A      3.285082   122A      3.285531
     123A      3.326626   124A      3.327702   125A      3.375637
     126A      3.489767   127A      3.490567   128A      3.514020
     129A      3.525327   130A      3.567767   131A      3.569014
     132A      3.575099   133A      3.665749   134A      3.667086
     135A      3.679631   136A      3.693813   137A      3.694481
     138A      3.776625   139A      3.776941   140A      3.789137
     141A      3.911407   142A      3.913038   143A      4.034433
     144A      4.110543   145A      4.112060   146A      4.147551
     147A      4.148532   148A      4.173440   149A      4.201946
     150A      4.202674   151A      4.203997   152A      4.211131
     153A      4.315058   154A      4.316886   155A      4.358976
     156A      4.423688   157A      4.425232   158A      4.443470
     159A      4.515367   160A      4.518311   161A      4.578257
     162A      4.578275   163A      4.617563   164A      4.709409
     165A      4.773201   166A      4.776043   167A      4.836916
     168A      4.962866   169A      5.002461   170A      5.003476
     171A      5.227143   172A      5.246822   173A      5.247599
     174A      5.353712   175A      5.357358   176A      5.479477

    Beta Occupied:

       1A    -10.167790     2A    -10.167778     3A    -10.167756
       4A    -10.166520     5A     -0.781092     6A     -0.684080
       7A     -0.683903     8A     -0.511752     9A     -0.431307
      10A     -0.430777    11A     -0.421819    12A     -0.376710
      13A     -0.376660    14A     -0.362596    15A     -0.333343
      16A     -0.332898

    Beta Virtual:

      17A     -0.025743    18A      0.077077    19A      0.134847
      20A      0.135238    21A      0.144168    22A      0.144826
      23A      0.163342    24A      0.182316    25A      0.182582
      26A      0.215035    27A      0.218930    28A      0.282182
      29A      0.282487    30A      0.400043    31A      0.400750
      32A      0.419791    33A      0.426678    34A      0.427138
      35A      0.468501    36A      0.497572    37A      0.497729
      38A      0.513896    39A      0.556325    40A      0.584284
      41A      0.584449    42A      0.597576    43A      0.598041
      44A      0.609996    45A      0.628054    46A      0.631921
      47A      0.639179    48A      0.639984    49A      0.666701
      50A      0.667252    51A      0.686248    52A      0.686758
      53A      0.757518    54A      0.830237    55A      0.830913
      56A      0.855268    57A      0.922718    58A      0.923274
      59A      0.945961    60A      0.953526    61A      0.966457
      62A      0.966750    63A      1.008698    64A      1.131754
      65A      1.132533    66A      1.155600    67A      1.168268
      68A      1.168417    69A      1.232293    70A      1.279709
      71A      1.280454    72A      1.285114    73A      1.329042
      74A      1.329627    75A      1.365401    76A      1.370952
      77A      1.371639    78A      1.393501    79A      1.407420
      80A      1.407601    81A      1.421239    82A      1.423085
      83A      1.428162    84A      1.492553    85A      1.509507
      86A      1.547181    87A      1.547327    88A      1.582040
      89A      1.582599    90A      1.674686    91A      1.744152
      92A      1.746197    93A      1.779104    94A      1.834151
      95A      1.836318    96A      1.972644    97A      2.024646
      98A      2.026171    99A      2.039709   100A      2.058594
     101A      2.060178   102A      2.746547   103A      2.747092
     104A      2.811838   105A      2.816060   106A      2.902362
     107A      2.902917   108A      2.924647   109A      2.931951
     110A      2.932006   111A      2.960018   112A      2.968860
     113A      2.969035   114A      3.041944   115A      3.080369
     116A      3.081611   117A      3.086625   118A      3.183990
     119A      3.185047   120A      3.188297   121A      3.289866
     122A      3.290347   123A      3.330381   124A      3.331553
     125A      3.383455   126A      3.492516   127A      3.493279
     128A      3.512384   129A      3.528373   130A      3.574961
     131A      3.580993   132A      3.582468   133A      3.670679
     134A      3.671646   135A      3.692947   136A      3.725693
     137A      3.725845   138A      3.781108   139A      3.781523
     140A      3.817671   141A      3.921129   142A      3.922946
     143A      4.045321   144A      4.117068   145A      4.119177
     146A      4.154471   147A      4.156060   148A      4.187451
     149A      4.207931   150A      4.209862   151A      4.210636
     152A      4.215644   153A      4.322560   154A      4.324273
     155A      4.362338   156A      4.431923   157A      4.433418
     158A      4.446358   159A      4.523146   160A      4.526109
     161A      4.588830   162A      4.588906   163A      4.624756
     164A      4.719752   165A      4.780192   166A      4.782960
     167A      4.839833   168A      4.967660   169A      5.006503
     170A      5.007512   171A      5.232663   172A      5.248602
     173A      5.249593   174A      5.360201   175A      5.363819
     176A      5.481801

    Final Occupation by Irrep:
              A
    DOCC [    16 ]
    SOCC [     1 ]

  @DF-UKS Final Energy:  -157.81304833398181

   => Energetics <=

    Nuclear Repulsion Energy =            125.3946796160074939
    One-Electron Energy =                -458.7489590340561563
    Two-Electron Energy =                 195.8483809965277089
    DFT Exchange-Correlation Energy =     -20.3071499124608330
    Empirical Dispersion Energy =           0.0000000000000000
    VV10 Nonlocal Energy =                  0.0000000000000000
    Total Energy =                       -157.8130483339818113

  UHF NO Occupations:
  HONO-2 :   15  A 1.9996009
  HONO-1 :   16  A 1.9989805
  HONO-0 :   17  A 1.0000000
  LUNO+0 :   18  A 0.0010195
  LUNO+1 :   19  A 0.0003991
  LUNO+2 :   20  A 0.0001976
  LUNO+3 :   21  A 0.0001975

Computation Completed

Properties will be evaluated at   0.000000,   0.000000,   0.000000 [a0]

Properties computed using the SCF density matrix

  Nuclear Dipole Moment: [e a0]
     X:     0.8272      Y:     0.0032      Z:     0.0032

  Electronic Dipole Moment: [e a0]
     X:    -0.7493      Y:    -0.0049      Z:    -0.0049

  Dipole Moment: [e a0]
     X:     0.0779      Y:    -0.0017      Z:    -0.0017     Total:     0.0780

  Dipole Moment: [D]
     X:     0.1980      Y:    -0.0044      Z:    -0.0044     Total:     0.1981

*** tstop() called on n054 at Fri Nov  5 14:23:00 2021
Module time:
	user time   =     514.32 seconds =       8.57 minutes
	system time =      11.61 seconds =       0.19 minutes
	total time  =        133 seconds =       2.22 minutes
Total time:
	user time   =     514.32 seconds =       8.57 minutes
	system time =      11.61 seconds =       0.19 minutes
	total time  =        133 seconds =       2.22 minutes
Grab this energy -157.8130483339818
    Psi4 stopped on: Friday, 05 November 2021 02:23PM
    Psi4 wall time for execution: 0:02:12.30

*** Psi4 exiting successfully. Buy a developer a beer!
