                               Psi4 1.4a2.dev629

  ==> Input File <==

--------------------------------------------------------------------------
import os
memory 14 GB

molecule {
 C   -0.3233380820    0.0053439084   -0.0002457873
 C    0.0602518442   -1.4001518163   -2.4268863847
 C    0.0608726339    2.8018183401    0.0001472166
 C    0.0621771303   -1.3999159464    2.4267768694
 H    2.0840021096   -1.6431575718   -2.8422370743
 H   -0.7670958039   -0.3895350781   -4.0268551617
 H   -0.7667666188   -3.2945931692   -2.3529744809
 H    2.0870359271    3.2875036916    0.0018535750
 H   -0.7665551472    3.6808454899    1.6763156804
 H   -0.7646273976    3.6780072963   -1.6774640843
 H    2.0896207099   -1.6468438781    2.8523040451
 H   -0.7629689216   -3.2913237516    2.3465617793
 H   -0.7652162606   -0.3880218284    4.0227038075
units bohr
0 2
}

basis {

assign 6-31g_2dfp_

[ 6-31g_2dfp_ ]

spherical

!----------------------------------------------------------------------
! Basis Set Exchange
! Version v0.8.13
! https://www.basissetexchange.org
!----------------------------------------------------------------------
!   Basis set: 6-31G(2df,p)
! Description: 6-31G(2df,p)
!        Role: orbital
!     Version: 0  (Data from the original Basis Set Exchange)
!----------------------------------------------------------------------

****
H     0
S    3   1.00
     18.7311370              0.03349460
      2.8253937              0.23472695
      0.6401217              0.81375733
S    1   1.00
      0.1612778              1.00000000
P    1   1.00
      1.5000000              1.0000000
P    1   1.00
      0.3750000              1.0000000
****
B     0
S    6   1.00
   2068.8823000              0.0018663
    310.6495700              0.0142515
     70.6830330              0.0695516
     19.8610800              0.2325729
      6.2993048              0.4670787
      2.1270270              0.3634314
SP   3   1.00
      4.7279710             -0.1303938              0.0745976
      1.1903377             -0.1307889              0.3078467
      0.3594117              1.1309444              0.7434568
SP   1   1.00
      0.1267512              1.0000000              1.0000000
D    1   1.00
      0.8020000              1.0000000
D    1   1.00
      0.2005000              1.0000000
F    1   1.00
      0.5000000              1.0000000
****
C     0
S    6   1.00
   3047.5249000              0.0018347
    457.3695100              0.0140373
    103.9486900              0.0688426
     29.2101550              0.2321844
      9.2866630              0.4679413
      3.1639270              0.3623120
SP   3   1.00
      7.8682724             -0.1193324              0.0689991
      1.8812885             -0.1608542              0.3164240
      0.5442493              1.1434564              0.7443083
SP   1   1.00
      0.1687144              1.0000000              1.0000000
D    1   1.00
      1.2520000              1.0000000
D    1   1.00
      0.3130000              1.0000000
F    1   1.00
      0.8000000              1.0000000
****
N     0
S    6   1.00
   4173.5110000              0.0018348
    627.4579000              0.0139950
    142.9021000              0.0685870
     40.2343300              0.2322410
     12.8202100              0.4690700
      4.3904370              0.3604550
SP   3   1.00
     11.6263580             -0.1149610              0.0675800
      2.7162800             -0.1691180              0.3239070
      0.7722180              1.1458520              0.7408950
SP   1   1.00
      0.2120313              1.0000000              1.0000000
D    1   1.00
      1.8260000              1.0000000
D    1   1.00
      0.4565000              1.0000000
F    1   1.00
      1.0000000              1.0000000
****
O     0
S    6   1.00
   5484.6717000              0.0018311
    825.2349500              0.0139501
    188.0469600              0.0684451
     52.9645000              0.2327143
     16.8975700              0.4701930
      5.7996353              0.3585209
SP   3   1.00
     15.5396160             -0.1107775              0.0708743
      3.5999336             -0.1480263              0.3397528
      1.0137618              1.1307670              0.7271586
SP   1   1.00
      0.2700058              1.0000000              1.0000000
D    1   1.00
      2.5840000              1.0000000
D    1   1.00
      0.6460000              1.0000000
F    1   1.00
      1.4000000              1.0000000
****
F     0
S    6   1.00
   7001.7130900              0.0018196169
   1051.3660900              0.0139160796
    239.2856900              0.0684053245
     67.3974453              0.233185760
     21.5199573              0.471267439
      7.40310130             0.356618546
SP   3   1.00
     20.8479528             -0.108506975            0.0716287243
      4.80830834            -0.146451658            0.3459121030
      1.34406986             1.128688580            0.7224699570
SP   1   1.00
      0.358151393            1.0000000              1.0000000
D    1   1.00
      3.5000000              1.0000000
D    1   1.00
      0.8750000              1.0000000
F    1   1.00
      1.8500000              1.0000000
****
Al     0
S    6   1.00
  13983.1000000              0.00194267
   2098.7500000              0.0148599
    477.7050000              0.0728494
    134.3600000              0.2468300
     42.8709000              0.4872580
     14.5189000              0.3234960
SP   6   1.00
    239.6680000             -0.00292619             0.00460285
     57.4419000             -0.0374080              0.0331990
     18.2859000             -0.1144870              0.1362820
      6.5991400              0.1156350              0.3304760
      2.4904900              0.6125950              0.4491460
      0.9445400              0.3937990              0.2657040
SP   3   1.00
      1.2779000             -0.2276060             -0.0175130
      0.3975900              0.00144583             0.2445330
      0.1600950              1.0927900              0.8049340
SP   1   1.00
      0.0556577              1.0000000              1.0000000
D    1   1.00
      0.6500000              1.0000000
D    1   1.00
      0.1625000              1.0000000
F    1   1.00
      0.2500000              1.0000000
****
Si     0
S    6   1.00
  16115.9000000              0.00195948
   2425.5800000              0.01492880
    553.8670000              0.07284780
    156.3400000              0.24613000
     50.0683000              0.48591400
     17.0178000              0.32500200
SP   6   1.00
    292.7180000             -0.00278094             0.00443826
     69.8731000             -0.03571460             0.03266790
     22.3363000             -0.11498500             0.13472100
      8.1503900              0.09356340             0.32867800
      3.1345800              0.60301700             0.44964000
      1.2254300              0.41895900             0.26137200
SP   3   1.00
      1.7273800             -0.24463000            -0.01779510
      0.5729220              0.00431572             0.25353900
      0.2221920              1.09818000             0.80066900
SP   1   1.00
      0.0778369              1.00000000             1.00000000
D    1   1.00
      0.9000000              1.0000000
D    1   1.00
      0.2250000              1.0000000
F    1   1.00
      0.3200000              1.0000000
****
P     0
S    6   1.00
  19413.3000000              0.0018516
   2909.4200000              0.0142062
    661.3640000              0.0699995
    185.7590000              0.2400790
     59.1943000              0.4847620
     20.0310000              0.3352000
SP   6   1.00
    339.4780000             -0.00278217             0.00456462
     81.0101000             -0.0360499              0.03369360
     25.8780000             -0.1166310              0.13975500
      9.4522100              0.0968328              0.33936200
      3.6656600              0.6144180              0.45092100
      1.4674600              0.4037980              0.23858600
SP   3   1.00
      2.1562300             -0.2529230             -0.01776530
      0.7489970              0.0328517              0.27405800
      0.2831450              1.0812500              0.78542100
SP   1   1.00
      0.0998317              1.0000000              1.00000000
D    1   1.00
      1.1000000              1.0000000
D    1   1.00
      0.2750000              1.0000000
F    1   1.00
      0.4500000              1.0000000
****
S     0
S    6   1.00
  21917.1000000              0.0018690
   3301.4900000              0.0142300
    754.1460000              0.0696960
    212.7110000              0.2384870
     67.9896000              0.4833070
     23.0515000              0.3380740
SP   6   1.00
    423.7350000             -0.0023767              0.0040610
    100.7100000             -0.0316930              0.0306810
     32.1599000             -0.1133170              0.1304520
     11.8079000              0.0560900              0.3272050
      4.6311000              0.5922550              0.4528510
      1.8702500              0.4550060              0.2560420
SP   3   1.00
      2.6158400             -0.2503740             -0.0145110
      0.9221670              0.0669570              0.3102630
      0.3412870              1.0545100              0.7544830
SP   1   1.00
      0.1171670              1.0000000              1.0000000
D    1   1.00
      1.3000000              1.0000000
D    1   1.00
      0.3250000              1.0000000
F    1   1.00
      0.5500000              1.0000000
****
Cl     0
S    6   1.00
  25180.1000000              0.0018330
   3780.3500000              0.0140340
    860.4740000              0.0690970
    242.1450000              0.2374520
     77.3349000              0.4830340
     26.2470000              0.3398560
SP   6   1.00
    491.7650000             -0.0022974              0.0039894
    116.9840000             -0.0307140              0.0303180
     37.4153000             -0.1125280              0.1298800
     13.7834000              0.0450160              0.3279510
      5.4521500              0.5893530              0.4535270
      2.2258800              0.4652060              0.2521540
SP   3   1.00
      3.1864900             -0.2518300             -0.0142990
      1.1442700              0.0615890              0.3235720
      0.4203770              1.0601800              0.7435070
SP   1   1.00
      0.1426570              1.0000000              1.0000000
D    1   1.00
      1.5000000              1.0000000
D    1   1.00
      0.3750000              1.0000000
F    1   1.00
      0.7000000              1.0000000
****
}

set {
reference uhf
freeze_core true
e_convergence 10
d_convergence 10
dft_spherical_points 1202
dft_radial_points 99
}

e = energy('b3lyp')

print_out('Grab this energy {0}'.format(e))
--------------------------------------------------------------------------

    Molecular point group: c1

    Geometry (in Bohr), charge = 0, multiplicity = 2:

       Center              X                  Y                   Z               Mass
    ------------   -----------------  -----------------  -----------------  -----------------
         C           -0.323338758291     0.003977888698    -0.000205708439    12.000000000000
         C            0.060251167909    -1.401517836002    -2.426846305839    12.000000000000
         C            0.060871957609     2.800452320398     0.000187295461    12.000000000000
         C            0.062176454009    -1.401281966102     2.426816948261    12.000000000000
         H            2.084001433309    -1.644523591502    -2.842196995439     1.007825032230
         H           -0.767096480191    -0.390901097802    -4.026815082839     1.007825032230
         H           -0.766767295091    -3.295959188902    -2.352934402039     1.007825032230
         H            2.087035250809     3.286137671898     0.001893653861     1.007825032230
         H           -0.766555823491     3.679479470198     1.676355759261     1.007825032230
         H           -0.764628073891     3.676641276598    -1.677424005439     1.007825032230
         H            2.089620033609    -1.648209897802     2.852344123961     1.007825032230
         H           -0.762969597891    -3.292689771302     2.346601858161     1.007825032230
         H           -0.765216936891    -0.389387848102     4.022743886361     1.007825032230

  Charge       = 0
  Multiplicity = 2
  Basis Set: ANONYMOUSBB05D2A9
    Blend: 6-31G_2DFP_
  Basis Set: (ANONYMOUSBB05D2A9 AUX)
    Blend: DEF2-UNIVERSAL-JKFIT

    Orbital Energies [Eh]
    ---------------------

    Alpha Occupied:

       1A    -10.180342     2A    -10.167066     3A    -10.167010
       4A    -10.166969     5A     -0.797770     6A     -0.686378
       7A     -0.685996     8A     -0.530775     9A     -0.441132
      10A     -0.434903    11A     -0.434436    12A     -0.382854
      13A     -0.382346    14A     -0.363608    15A     -0.338540
      16A     -0.337456    17A     -0.168960

    Alpha Virtual:

      18A      0.076072    19A      0.134104    20A      0.134205
      21A      0.142356    22A      0.142896    23A      0.154880
      24A      0.178640    25A      0.178913    26A      0.203547
      27A      0.214802    28A      0.275694    29A      0.276275
      30A      0.399052    31A      0.399404    32A      0.403345
      33A      0.423995    34A      0.424201    35A      0.456594
      36A      0.495339    37A      0.495438    38A      0.512161
      39A      0.513980    40A      0.578576    41A      0.579041
      42A      0.591370    43A      0.591895    44A      0.602605
      45A      0.624752    46A      0.631748    47A      0.635995
      48A      0.636541    49A      0.663335    50A      0.663492
      51A      0.683727    52A      0.683977    53A      0.734993
      54A      0.825281    55A      0.825531    56A      0.853916
      57A      0.914678    58A      0.915362    59A      0.944109
      60A      0.944619    61A      0.961098    62A      0.961509
      63A      1.003452    64A      1.127623    65A      1.128554
      66A      1.142247    67A      1.162871    68A      1.163679
      69A      1.223329    70A      1.274011    71A      1.274955
      72A      1.279368    73A      1.324238    74A      1.324469
      75A      1.355977    76A      1.365794    77A      1.366331
      78A      1.392436    79A      1.403544    80A      1.404540
      81A      1.416639    82A      1.417571    83A      1.427939
      84A      1.491498    85A      1.499061    86A      1.542826
      87A      1.542853    88A      1.573962    89A      1.574945
      90A      1.669827    91A      1.739186    92A      1.739645
      93A      1.768326    94A      1.830889    95A      1.831903
      96A      1.971725    97A      2.018263    98A      2.018514
      99A      2.019629   100A      2.051942   101A      2.053355
     102A      2.738251   103A      2.738725   104A      2.790928
     105A      2.811426   106A      2.889341   107A      2.890533
     108A      2.894969   109A      2.929004   110A      2.929986
     111A      2.958984   112A      2.964152   113A      2.964617
     114A      3.033995   115A      3.070468   116A      3.072116
     117A      3.084350   118A      3.168504   119A      3.169012
     120A      3.180649   121A      3.284991   122A      3.285634
     123A      3.326196   124A      3.328126   125A      3.375605
     126A      3.488943   127A      3.491348   128A      3.514017
     129A      3.525343   130A      3.568000   131A      3.568635
     132A      3.575291   133A      3.665833   134A      3.666904
     135A      3.679670   136A      3.693436   137A      3.694779
     138A      3.776074   139A      3.777493   140A      3.789225
     141A      3.911754   142A      3.912708   143A      4.034428
     144A      4.111022   145A      4.111702   146A      4.147123
     147A      4.149097   148A      4.173263   149A      4.202044
     150A      4.202684   151A      4.204077   152A      4.210866
     153A      4.315385   154A      4.316552   155A      4.358982
     156A      4.424330   157A      4.424587   158A      4.443421
     159A      4.516161   160A      4.517491   161A      4.577847
     162A      4.578418   163A      4.617879   164A      4.709413
     165A      4.773811   166A      4.775422   167A      4.836901
     168A      4.962826   169A      5.002393   170A      5.003569
     171A      5.228067   172A      5.246267   173A      5.247372
     174A      5.354955   175A      5.356064   176A      5.479345

    Beta Occupied:

       1A    -10.167817     2A    -10.167766     3A    -10.167740
       4A    -10.166519     5A     -0.781095     6A     -0.684168
       7A     -0.683811     8A     -0.511747     9A     -0.431275
      10A     -0.430815    11A     -0.421820    12A     -0.376929
      13A     -0.376440    14A     -0.362592    15A     -0.333669
      16A     -0.332573

    Beta Virtual:

      17A     -0.025743    18A      0.077081    19A      0.135003
      20A      0.135086    21A      0.144251    22A      0.144744
      23A      0.163339    24A      0.182306    25A      0.182590
      26A      0.215032    27A      0.218929    28A      0.282076
      29A      0.282589    30A      0.400226    31A      0.400569
      32A      0.419792    33A      0.426804    34A      0.427013
      35A      0.468501    36A      0.497598    37A      0.497702
      38A      0.513897    39A      0.556321    40A      0.584105
      41A      0.584617    42A      0.597545    43A      0.598080
      44A      0.610023    45A      0.628127    46A      0.631914
      47A      0.639272    48A      0.639828    49A      0.666899
      50A      0.667056    51A      0.686376    52A      0.686598
      53A      0.757516    54A      0.830455    55A      0.830694
      56A      0.855269    57A      0.922664    58A      0.923320
      59A      0.945948    60A      0.953544    61A      0.966404
      62A      0.966816    63A      1.008693    64A      1.131707
      65A      1.132544    66A      1.155599    67A      1.167943
      68A      1.168759    69A      1.232301    70A      1.279664
      71A      1.280501    72A      1.285119    73A      1.329233
      74A      1.329453    75A      1.365377    76A      1.371100
      77A      1.371530    78A      1.393497    79A      1.406990
      80A      1.408019    81A      1.421682    82A      1.422613
      83A      1.428224    84A      1.492546    85A      1.509502
      86A      1.547143    87A      1.547361    88A      1.581743
      89A      1.582904    90A      1.674674    91A      1.744946
      92A      1.745410    93A      1.779104    94A      1.834741
      95A      1.835762    96A      1.972585    97A      2.024889
      98A      2.026016    99A      2.039671   100A      2.058659
     101A      2.060075   102A      2.746554   103A      2.747093
     104A      2.811838   105A      2.816063   106A      2.902126
     107A      2.903145   108A      2.924649   109A      2.931451
     110A      2.932508   111A      2.960054   112A      2.968692
     113A      2.969159   114A      3.041930   115A      3.080388
     116A      3.082013   117A      3.086167   118A      3.184204
     119A      3.184698   120A      3.188445   121A      3.289809
     122A      3.290413   123A      3.330010   124A      3.331922
     125A      3.383424   126A      3.491685   127A      3.494061
     128A      3.512387   129A      3.528388   130A      3.574880
     131A      3.581610   132A      3.581978   133A      3.670628
     134A      3.671604   135A      3.692957   136A      3.725297
     137A      3.726197   138A      3.780621   139A      3.782033
     140A      3.817721   141A      3.921571   142A      3.922530
     143A      4.045316   144A      4.117891   145A      4.118469
     146A      4.154351   147A      4.156283   148A      4.187321
     149A      4.208378   150A      4.209184   151A      4.211080
     152A      4.215344   153A      4.322771   154A      4.324047
     155A      4.362344   156A      4.432533   157A      4.432808
     158A      4.446311   159A      4.523946   160A      4.525287
     161A      4.588426   162A      4.589018   163A      4.625093
     164A      4.719758   165A      4.780720   166A      4.782422
     167A      4.839818   168A      4.967618   169A      5.006454
     170A      5.007588   171A      5.233783   172A      5.248053
     173A      5.249154   174A      5.361410   175A      5.362570
     176A      5.481666

    Final Occupation by Irrep:
              A
    DOCC [    16 ]
    SOCC [     1 ]

  @DF-UKS Final Energy:  -157.81305896600449

   => Energetics <=

    Nuclear Repulsion Energy =            125.3946961370412936
    One-Electron Energy =                -458.7490241516952665
    Two-Electron Energy =                 195.8484156916469772
    DFT Exchange-Correlation Energy =     -20.3071466429975018
    Empirical Dispersion Energy =           0.0000000000000000
    VV10 Nonlocal Energy =                  0.0000000000000000
    Total Energy =                       -157.8130589660044905

  UHF NO Occupations:
  HONO-2 :   15  A 1.9996008
  HONO-1 :   16  A 1.9989805
  HONO-0 :   17  A 1.0000000
  LUNO+0 :   18  A 0.0010195
  LUNO+1 :   19  A 0.0003992
  LUNO+2 :   20  A 0.0001986
  LUNO+3 :   21  A 0.0001965

Computation Completed

Properties will be evaluated at   0.000000,   0.000000,   0.000000 [a0]

Properties computed using the SCF density matrix

  Nuclear Dipole Moment: [e a0]
     X:     0.8272      Y:    -0.0096      Z:     0.0003

  Electronic Dipole Moment: [e a0]
     X:    -0.7493      Y:     0.0109      Z:    -0.0010

  Dipole Moment: [e a0]
     X:     0.0779      Y:     0.0012      Z:    -0.0008     Total:     0.0779

  Dipole Moment: [D]
     X:     0.1980      Y:     0.0031      Z:    -0.0019     Total:     0.1981

*** tstop() called on n036 at Fri Nov  5 13:47:15 2021
Module time:
	user time   =     636.32 seconds =      10.61 minutes
	system time =      12.18 seconds =       0.20 minutes
	total time  =        163 seconds =       2.72 minutes
Total time:
	user time   =     636.32 seconds =      10.61 minutes
	system time =      12.18 seconds =       0.20 minutes
	total time  =        163 seconds =       2.72 minutes
Grab this energy -157.8130589660045
    Psi4 stopped on: Friday, 05 November 2021 01:47PM
    Psi4 wall time for execution: 0:02:43.03

*** Psi4 exiting successfully. Buy a developer a beer!
