                               Psi4 1.4a2.dev629

  ==> Input File <==

--------------------------------------------------------------------------
import os
memory 14 GB

molecule {
 C   -0.3233408836    0.0019961654   -0.0000000065
 C    0.0612180496   -1.4016094683   -2.4264455826
 C    0.0608656708    2.8009133259   -0.0015987730
 C    0.0612147909   -1.3988360607    2.4280479973
 H    2.0868182602   -1.6416422937   -2.8515117859
 H   -0.7666490170   -0.3905766517   -4.0295443794
 H   -0.7648284504   -3.2902035569   -2.3443485746
 H    2.0870202618    3.2835129138    0.0006260778
 H   -0.7649441014    3.6804091973    1.6760382981
 H   -0.7653322392    3.6805409547   -1.6754314284
 H    2.0868230672   -1.6427085761    2.8508865132
 H   -0.7644300016   -3.2906577357    2.3439305776
 H   -0.7670432840   -0.3911625277    4.0293510664
units bohr
0 2
}

basis {

assign 6-31g_2dfp_

[ 6-31g_2dfp_ ]

spherical

!----------------------------------------------------------------------
! Basis Set Exchange
! Version v0.8.13
! https://www.basissetexchange.org
!----------------------------------------------------------------------
!   Basis set: 6-31G(2df,p)
! Description: 6-31G(2df,p)
!        Role: orbital
!     Version: 0  (Data from the original Basis Set Exchange)
!----------------------------------------------------------------------

****
H     0
S    3   1.00
     18.7311370              0.03349460
      2.8253937              0.23472695
      0.6401217              0.81375733
S    1   1.00
      0.1612778              1.00000000
P    1   1.00
      1.5000000              1.0000000
P    1   1.00
      0.3750000              1.0000000
****
B     0
S    6   1.00
   2068.8823000              0.0018663
    310.6495700              0.0142515
     70.6830330              0.0695516
     19.8610800              0.2325729
      6.2993048              0.4670787
      2.1270270              0.3634314
SP   3   1.00
      4.7279710             -0.1303938              0.0745976
      1.1903377             -0.1307889              0.3078467
      0.3594117              1.1309444              0.7434568
SP   1   1.00
      0.1267512              1.0000000              1.0000000
D    1   1.00
      0.8020000              1.0000000
D    1   1.00
      0.2005000              1.0000000
F    1   1.00
      0.5000000              1.0000000
****
C     0
S    6   1.00
   3047.5249000              0.0018347
    457.3695100              0.0140373
    103.9486900              0.0688426
     29.2101550              0.2321844
      9.2866630              0.4679413
      3.1639270              0.3623120
SP   3   1.00
      7.8682724             -0.1193324              0.0689991
      1.8812885             -0.1608542              0.3164240
      0.5442493              1.1434564              0.7443083
SP   1   1.00
      0.1687144              1.0000000              1.0000000
D    1   1.00
      1.2520000              1.0000000
D    1   1.00
      0.3130000              1.0000000
F    1   1.00
      0.8000000              1.0000000
****
N     0
S    6   1.00
   4173.5110000              0.0018348
    627.4579000              0.0139950
    142.9021000              0.0685870
     40.2343300              0.2322410
     12.8202100              0.4690700
      4.3904370              0.3604550
SP   3   1.00
     11.6263580             -0.1149610              0.0675800
      2.7162800             -0.1691180              0.3239070
      0.7722180              1.1458520              0.7408950
SP   1   1.00
      0.2120313              1.0000000              1.0000000
D    1   1.00
      1.8260000              1.0000000
D    1   1.00
      0.4565000              1.0000000
F    1   1.00
      1.0000000              1.0000000
****
O     0
S    6   1.00
   5484.6717000              0.0018311
    825.2349500              0.0139501
    188.0469600              0.0684451
     52.9645000              0.2327143
     16.8975700              0.4701930
      5.7996353              0.3585209
SP   3   1.00
     15.5396160             -0.1107775              0.0708743
      3.5999336             -0.1480263              0.3397528
      1.0137618              1.1307670              0.7271586
SP   1   1.00
      0.2700058              1.0000000              1.0000000
D    1   1.00
      2.5840000              1.0000000
D    1   1.00
      0.6460000              1.0000000
F    1   1.00
      1.4000000              1.0000000
****
F     0
S    6   1.00
   7001.7130900              0.0018196169
   1051.3660900              0.0139160796
    239.2856900              0.0684053245
     67.3974453              0.233185760
     21.5199573              0.471267439
      7.40310130             0.356618546
SP   3   1.00
     20.8479528             -0.108506975            0.0716287243
      4.80830834            -0.146451658            0.3459121030
      1.34406986             1.128688580            0.7224699570
SP   1   1.00
      0.358151393            1.0000000              1.0000000
D    1   1.00
      3.5000000              1.0000000
D    1   1.00
      0.8750000              1.0000000
F    1   1.00
      1.8500000              1.0000000
****
Al     0
S    6   1.00
  13983.1000000              0.00194267
   2098.7500000              0.0148599
    477.7050000              0.0728494
    134.3600000              0.2468300
     42.8709000              0.4872580
     14.5189000              0.3234960
SP   6   1.00
    239.6680000             -0.00292619             0.00460285
     57.4419000             -0.0374080              0.0331990
     18.2859000             -0.1144870              0.1362820
      6.5991400              0.1156350              0.3304760
      2.4904900              0.6125950              0.4491460
      0.9445400              0.3937990              0.2657040
SP   3   1.00
      1.2779000             -0.2276060             -0.0175130
      0.3975900              0.00144583             0.2445330
      0.1600950              1.0927900              0.8049340
SP   1   1.00
      0.0556577              1.0000000              1.0000000
D    1   1.00
      0.6500000              1.0000000
D    1   1.00
      0.1625000              1.0000000
F    1   1.00
      0.2500000              1.0000000
****
Si     0
S    6   1.00
  16115.9000000              0.00195948
   2425.5800000              0.01492880
    553.8670000              0.07284780
    156.3400000              0.24613000
     50.0683000              0.48591400
     17.0178000              0.32500200
SP   6   1.00
    292.7180000             -0.00278094             0.00443826
     69.8731000             -0.03571460             0.03266790
     22.3363000             -0.11498500             0.13472100
      8.1503900              0.09356340             0.32867800
      3.1345800              0.60301700             0.44964000
      1.2254300              0.41895900             0.26137200
SP   3   1.00
      1.7273800             -0.24463000            -0.01779510
      0.5729220              0.00431572             0.25353900
      0.2221920              1.09818000             0.80066900
SP   1   1.00
      0.0778369              1.00000000             1.00000000
D    1   1.00
      0.9000000              1.0000000
D    1   1.00
      0.2250000              1.0000000
F    1   1.00
      0.3200000              1.0000000
****
P     0
S    6   1.00
  19413.3000000              0.0018516
   2909.4200000              0.0142062
    661.3640000              0.0699995
    185.7590000              0.2400790
     59.1943000              0.4847620
     20.0310000              0.3352000
SP   6   1.00
    339.4780000             -0.00278217             0.00456462
     81.0101000             -0.0360499              0.03369360
     25.8780000             -0.1166310              0.13975500
      9.4522100              0.0968328              0.33936200
      3.6656600              0.6144180              0.45092100
      1.4674600              0.4037980              0.23858600
SP   3   1.00
      2.1562300             -0.2529230             -0.01776530
      0.7489970              0.0328517              0.27405800
      0.2831450              1.0812500              0.78542100
SP   1   1.00
      0.0998317              1.0000000              1.00000000
D    1   1.00
      1.1000000              1.0000000
D    1   1.00
      0.2750000              1.0000000
F    1   1.00
      0.4500000              1.0000000
****
S     0
S    6   1.00
  21917.1000000              0.0018690
   3301.4900000              0.0142300
    754.1460000              0.0696960
    212.7110000              0.2384870
     67.9896000              0.4833070
     23.0515000              0.3380740
SP   6   1.00
    423.7350000             -0.0023767              0.0040610
    100.7100000             -0.0316930              0.0306810
     32.1599000             -0.1133170              0.1304520
     11.8079000              0.0560900              0.3272050
      4.6311000              0.5922550              0.4528510
      1.8702500              0.4550060              0.2560420
SP   3   1.00
      2.6158400             -0.2503740             -0.0145110
      0.9221670              0.0669570              0.3102630
      0.3412870              1.0545100              0.7544830
SP   1   1.00
      0.1171670              1.0000000              1.0000000
D    1   1.00
      1.3000000              1.0000000
D    1   1.00
      0.3250000              1.0000000
F    1   1.00
      0.5500000              1.0000000
****
Cl     0
S    6   1.00
  25180.1000000              0.0018330
   3780.3500000              0.0140340
    860.4740000              0.0690970
    242.1450000              0.2374520
     77.3349000              0.4830340
     26.2470000              0.3398560
SP   6   1.00
    491.7650000             -0.0022974              0.0039894
    116.9840000             -0.0307140              0.0303180
     37.4153000             -0.1125280              0.1298800
     13.7834000              0.0450160              0.3279510
      5.4521500              0.5893530              0.4535270
      2.2258800              0.4652060              0.2521540
SP   3   1.00
      3.1864900             -0.2518300             -0.0142990
      1.1442700              0.0615890              0.3235720
      0.4203770              1.0601800              0.7435070
SP   1   1.00
      0.1426570              1.0000000              1.0000000
D    1   1.00
      1.5000000              1.0000000
D    1   1.00
      0.3750000              1.0000000
F    1   1.00
      0.7000000              1.0000000
****
}

set {
reference uhf
freeze_core true
e_convergence 10
d_convergence 10
dft_spherical_points 1202
dft_radial_points 99
}

e = energy('b3lyp')

print_out('Grab this energy {0}'.format(e))
--------------------------------------------------------------------------

    Molecular point group: c1

    Geometry (in Bohr), charge = 0, multiplicity = 2:

       Center              X                  Y                   Z               Mass
    ------------   -----------------  -----------------  -----------------  -----------------
         C           -0.323340423759     0.001522017877    -0.000000706666    12.000000000000
         C            0.061218509441    -1.402083615823    -2.426446282766    12.000000000000
         C            0.060866130641     2.800439178377    -0.001599473166    12.000000000000
         C            0.061215250741    -1.399310208223     2.428047297134    12.000000000000
         H            2.086818720041    -1.642116441223    -2.851512486066     1.007825032230
         H           -0.766648557159    -0.391050799223    -4.029545079566     1.007825032230
         H           -0.764827990559    -3.290677704423    -2.344349274766     1.007825032230
         H            2.087020721641     3.283038766277     0.000625377634     1.007825032230
         H           -0.764943641559     3.679935049777     1.676037597934     1.007825032230
         H           -0.765331779359     3.680066807177    -1.675432128566     1.007825032230
         H            2.086823527041    -1.643182723623     2.850885813034     1.007825032230
         H           -0.764429541759    -3.291131883223     2.343929877434     1.007825032230
         H           -0.767042824159    -0.391636675223     4.029350366234     1.007825032230

  Charge       = 0
  Multiplicity = 2
  Basis Set: ANONYMOUS8CE092F9
    Blend: 6-31G_2DFP_
  Basis Set: (ANONYMOUS8CE092F9 AUX)
    Blend: DEF2-UNIVERSAL-JKFIT

    Orbital Energies [Eh]
    ---------------------

    Alpha Occupied:

       1A    -10.180342     2A    -10.167121     3A    -10.167092
       4A    -10.166831     5A     -0.797767     6A     -0.686309
       7A     -0.686065     8A     -0.530776     9A     -0.441129
      10A     -0.434737    11A     -0.434603    12A     -0.382634
      13A     -0.382564    14A     -0.363611    15A     -0.338064
      16A     -0.337931    17A     -0.168960

    Alpha Virtual:

      18A      0.076072    19A      0.134124    20A      0.134186
      21A      0.142564    22A      0.142689    23A      0.154879
      24A      0.178739    25A      0.178818    26A      0.203546
      27A      0.214806    28A      0.275716    29A      0.276254
      30A      0.399195    31A      0.399255    32A      0.403352
      33A      0.424044    34A      0.424152    35A      0.456592
      36A      0.495330    37A      0.495449    38A      0.512152
      39A      0.513986    40A      0.578533    41A      0.579101
      42A      0.591339    43A      0.591924    44A      0.602576
      45A      0.624747    46A      0.631789    47A      0.636208
      48A      0.636293    49A      0.663378    50A      0.663444
      51A      0.683827    52A      0.683882    53A      0.734994
      54A      0.825192    55A      0.825620    56A      0.853916
      57A      0.914885    58A      0.915155    59A      0.944122
      60A      0.944614    61A      0.960614    62A      0.961978
      63A      1.003463    64A      1.127879    65A      1.128323
      66A      1.142219    67A      1.163165    68A      1.163390
      69A      1.223324    70A      1.274333    71A      1.274643
      72A      1.279347    73A      1.324352    74A      1.324359
      75A      1.355986    76A      1.365889    77A      1.366223
      78A      1.392463    79A      1.403747    80A      1.404367
      81A      1.416708    82A      1.417506    83A      1.427904
      84A      1.491455    85A      1.499124    86A      1.542551
      87A      1.543102    88A      1.574442    89A      1.574459
      90A      1.669830    91A      1.739054    92A      1.739791
      93A      1.768320    94A      1.830901    95A      1.831893
      96A      1.971729    97A      2.018026    98A      2.019100
      99A      2.019272   100A      2.051836   101A      2.053443
     102A      2.738203   103A      2.738764   104A      2.790922
     105A      2.811423   106A      2.889701   107A      2.890165
     108A      2.894991   109A      2.929482   110A      2.929516
     111A      2.958996   112A      2.964218   113A      2.964537
     114A      3.034009   115A      3.071160   116A      3.071408
     117A      3.084347   118A      3.168589   119A      3.168985
     120A      3.180584   121A      3.285268   122A      3.285358
     123A      3.326837   124A      3.327484   125A      3.375620
     126A      3.489973   127A      3.490325   128A      3.513993
     129A      3.525332   130A      3.567982   131A      3.568726
     132A      3.575242   133A      3.666170   134A      3.666545
     135A      3.679632   136A      3.693710   137A      3.694591
     138A      3.775563   139A      3.778058   140A      3.789153
     141A      3.911966   142A      3.912494   143A      4.034451
     144A      4.110099   145A      4.112626   146A      4.147254
     147A      4.148965   148A      4.173283   149A      4.202625
     150A      4.203010   151A      4.203146   152A      4.210863
     153A      4.315133   154A      4.316734   155A      4.359024
     156A      4.424201   157A      4.424709   158A      4.443440
     159A      4.516423   160A      4.517248   161A      4.577932
     162A      4.578588   163A      4.617525   164A      4.709458
     165A      4.773557   166A      4.775629   167A      4.836956
     168A      4.962860   169A      5.002583   170A      5.003315
     171A      5.228038   172A      5.246358   173A      5.247277
     174A      5.354787   175A      5.356217   176A      5.479359

    Beta Occupied:

       1A    -10.167874     2A    -10.167857     3A    -10.167593
       4A    -10.166519     5A     -0.781092     6A     -0.684104
       7A     -0.683875     8A     -0.511747     9A     -0.431107
      10A     -0.430982    11A     -0.421819    12A     -0.376714
      13A     -0.376654    14A     -0.362595    15A     -0.333183
      16A     -0.333059

    Beta Virtual:

      17A     -0.025742    18A      0.077081    19A      0.135022
      20A      0.135068    21A      0.144434    22A      0.144561
      23A      0.163338    24A      0.182428    25A      0.182471
      26A      0.215029    27A      0.218935    28A      0.282074
      29A      0.282592    30A      0.400365    31A      0.400430
      32A      0.419789    33A      0.426856    34A      0.426964
      35A      0.468500    36A      0.497594    37A      0.497707
      38A      0.513894    39A      0.556325    40A      0.584081
      41A      0.584652    42A      0.597533    43A      0.598090
      44A      0.609997    45A      0.628118    46A      0.631951
      47A      0.639475    48A      0.639599    49A      0.666940
      50A      0.667009    51A      0.686441    52A      0.686538
      53A      0.757517    54A      0.830338    55A      0.830811
      56A      0.855269    57A      0.922889    58A      0.923091
      59A      0.945961    60A      0.953536    61A      0.965980
      62A      0.967229    63A      1.008703    64A      1.131834
      65A      1.132426    66A      1.155599    67A      1.168317
      68A      1.168381    69A      1.232296    70A      1.279932
      71A      1.280238    72A      1.285101    73A      1.329329
      74A      1.329360    75A      1.365400    76A      1.371160
      77A      1.371436    78A      1.393526    79A      1.407184
      80A      1.407858    81A      1.421764    82A      1.422552
      83A      1.428174    84A      1.492522    85A      1.509548
      86A      1.546956    87A      1.547512    88A      1.582318
      89A      1.582328    90A      1.674676    91A      1.744807
      92A      1.745561    93A      1.779099    94A      1.834759
      95A      1.835746    96A      1.972589    97A      2.025374
      98A      2.025516    99A      2.039689   100A      2.058522
     101A      2.060185   102A      2.746556   103A      2.747084
     104A      2.811795   105A      2.816097   106A      2.902445
     107A      2.902831   108A      2.924663   109A      2.931977
     110A      2.931984   111A      2.960058   112A      2.968780
     113A      2.969063   114A      3.041944   115A      3.081078
     116A      3.081310   117A      3.086164   118A      3.184308
     119A      3.184774   120A      3.188258   121A      3.290042
     122A      3.290181   123A      3.330658   124A      3.331272
     125A      3.383439   126A      3.492718   127A      3.493038
     128A      3.512369   129A      3.528376   130A      3.574912
     131A      3.581467   132A      3.582099   133A      3.671074
     134A      3.671175   135A      3.692925   136A      3.725648
     137A      3.725885   138A      3.780135   139A      3.782537
     140A      3.817699   141A      3.921800   142A      3.922293
     143A      4.045338   144A      4.117025   145A      4.119332
     146A      4.154436   147A      4.156205   148A      4.187336
     149A      4.208929   150A      4.209079   151A      4.210614
     152A      4.215340   153A      4.322543   154A      4.324197
     155A      4.362392   156A      4.432466   157A      4.432876
     158A      4.446325   159A      4.524222   160A      4.525026
     161A      4.588536   162A      4.589184   163A      4.624721
     164A      4.719802   165A      4.780554   166A      4.782538
     167A      4.839876   168A      4.967654   169A      5.006613
     170A      5.007364   171A      5.233753   172A      5.248135
     173A      5.249069   174A      5.361246   175A      5.362718
     176A      5.481680

    Final Occupation by Irrep:
              A
    DOCC [    16 ]
    SOCC [     1 ]

  @DF-UKS Final Energy:  -157.81306679475671

   => Energetics <=

    Nuclear Repulsion Energy =            125.3946287317663604
    One-Electron Energy =                -458.7489151299720334
    Two-Electron Energy =                 195.8483627743609645
    DFT Exchange-Correlation Energy =     -20.3071431709120134
    Empirical Dispersion Energy =           0.0000000000000000
    VV10 Nonlocal Energy =                  0.0000000000000000
    Total Energy =                       -157.8130667947567076

  UHF NO Occupations:
  HONO-2 :   15  A 1.9996009
  HONO-1 :   16  A 1.9989805
  HONO-0 :   17  A 1.0000000
  LUNO+0 :   18  A 0.0010195
  LUNO+1 :   19  A 0.0003991
  LUNO+2 :   20  A 0.0001979
  LUNO+3 :   21  A 0.0001972

Computation Completed

Properties will be evaluated at   0.000000,   0.000000,   0.000000 [a0]

Properties computed using the SCF density matrix

  Nuclear Dipole Moment: [e a0]
     X:     0.8272      Y:    -0.0034      Z:    -0.0000

  Electronic Dipole Moment: [e a0]
     X:    -0.7493      Y:     0.0034      Z:     0.0000

  Dipole Moment: [e a0]
     X:     0.0779      Y:     0.0000      Z:     0.0000     Total:     0.0779

  Dipole Moment: [D]
     X:     0.1980      Y:     0.0001      Z:     0.0000     Total:     0.1980

*** tstop() called on n049 at Fri Nov  5 12:49:39 2021
Module time:
	user time   =     548.87 seconds =       9.15 minutes
	system time =      11.95 seconds =       0.20 minutes
	total time  =        141 seconds =       2.35 minutes
Total time:
	user time   =     548.87 seconds =       9.15 minutes
	system time =      11.95 seconds =       0.20 minutes
	total time  =        141 seconds =       2.35 minutes
Grab this energy -157.8130667947567
    Psi4 stopped on: Friday, 05 November 2021 12:49PM
    Psi4 wall time for execution: 0:02:21.01

*** Psi4 exiting successfully. Buy a developer a beer!
