                               Psi4 1.4a2.dev629

  ==> Input File <==

--------------------------------------------------------------------------
import os
memory 14 GB

molecule {
 C   -0.3233377833   -0.0028635094   -0.0000000000
 C    0.0609004214   -1.4025181929   -2.4246485700
 C    0.0615067773    2.8031195437   -0.0000000000
 C    0.0609004214   -1.4025181929    2.4246485700
 H    2.0851981303   -1.6444153290   -2.8477391440
 H   -0.7724930665   -0.3868185591   -4.0225410537
 H   -0.7595544794   -3.2933068756   -2.3484704828
 H    2.0902794564    3.2872707567    0.0000000000
 H   -0.7645791693    3.6832834043    1.6753433345
 H   -0.7645791693    3.6832834043   -1.6753433345
 H    2.0851981303   -1.6444153290    2.8477391440
 H   -0.7595544794   -3.2933068756    2.3484704828
 H   -0.7724930665   -0.3868185591    4.0225410537
units bohr
0 2
}

basis {

assign 6-31g_2dfp_

[ 6-31g_2dfp_ ]

spherical

!----------------------------------------------------------------------
! Basis Set Exchange
! Version v0.8.13
! https://www.basissetexchange.org
!----------------------------------------------------------------------
!   Basis set: 6-31G(2df,p)
! Description: 6-31G(2df,p)
!        Role: orbital
!     Version: 0  (Data from the original Basis Set Exchange)
!----------------------------------------------------------------------

****
H     0
S    3   1.00
     18.7311370              0.03349460
      2.8253937              0.23472695
      0.6401217              0.81375733
S    1   1.00
      0.1612778              1.00000000
P    1   1.00
      1.5000000              1.0000000
P    1   1.00
      0.3750000              1.0000000
****
B     0
S    6   1.00
   2068.8823000              0.0018663
    310.6495700              0.0142515
     70.6830330              0.0695516
     19.8610800              0.2325729
      6.2993048              0.4670787
      2.1270270              0.3634314
SP   3   1.00
      4.7279710             -0.1303938              0.0745976
      1.1903377             -0.1307889              0.3078467
      0.3594117              1.1309444              0.7434568
SP   1   1.00
      0.1267512              1.0000000              1.0000000
D    1   1.00
      0.8020000              1.0000000
D    1   1.00
      0.2005000              1.0000000
F    1   1.00
      0.5000000              1.0000000
****
C     0
S    6   1.00
   3047.5249000              0.0018347
    457.3695100              0.0140373
    103.9486900              0.0688426
     29.2101550              0.2321844
      9.2866630              0.4679413
      3.1639270              0.3623120
SP   3   1.00
      7.8682724             -0.1193324              0.0689991
      1.8812885             -0.1608542              0.3164240
      0.5442493              1.1434564              0.7443083
SP   1   1.00
      0.1687144              1.0000000              1.0000000
D    1   1.00
      1.2520000              1.0000000
D    1   1.00
      0.3130000              1.0000000
F    1   1.00
      0.8000000              1.0000000
****
N     0
S    6   1.00
   4173.5110000              0.0018348
    627.4579000              0.0139950
    142.9021000              0.0685870
     40.2343300              0.2322410
     12.8202100              0.4690700
      4.3904370              0.3604550
SP   3   1.00
     11.6263580             -0.1149610              0.0675800
      2.7162800             -0.1691180              0.3239070
      0.7722180              1.1458520              0.7408950
SP   1   1.00
      0.2120313              1.0000000              1.0000000
D    1   1.00
      1.8260000              1.0000000
D    1   1.00
      0.4565000              1.0000000
F    1   1.00
      1.0000000              1.0000000
****
O     0
S    6   1.00
   5484.6717000              0.0018311
    825.2349500              0.0139501
    188.0469600              0.0684451
     52.9645000              0.2327143
     16.8975700              0.4701930
      5.7996353              0.3585209
SP   3   1.00
     15.5396160             -0.1107775              0.0708743
      3.5999336             -0.1480263              0.3397528
      1.0137618              1.1307670              0.7271586
SP   1   1.00
      0.2700058              1.0000000              1.0000000
D    1   1.00
      2.5840000              1.0000000
D    1   1.00
      0.6460000              1.0000000
F    1   1.00
      1.4000000              1.0000000
****
F     0
S    6   1.00
   7001.7130900              0.0018196169
   1051.3660900              0.0139160796
    239.2856900              0.0684053245
     67.3974453              0.233185760
     21.5199573              0.471267439
      7.40310130             0.356618546
SP   3   1.00
     20.8479528             -0.108506975            0.0716287243
      4.80830834            -0.146451658            0.3459121030
      1.34406986             1.128688580            0.7224699570
SP   1   1.00
      0.358151393            1.0000000              1.0000000
D    1   1.00
      3.5000000              1.0000000
D    1   1.00
      0.8750000              1.0000000
F    1   1.00
      1.8500000              1.0000000
****
Al     0
S    6   1.00
  13983.1000000              0.00194267
   2098.7500000              0.0148599
    477.7050000              0.0728494
    134.3600000              0.2468300
     42.8709000              0.4872580
     14.5189000              0.3234960
SP   6   1.00
    239.6680000             -0.00292619             0.00460285
     57.4419000             -0.0374080              0.0331990
     18.2859000             -0.1144870              0.1362820
      6.5991400              0.1156350              0.3304760
      2.4904900              0.6125950              0.4491460
      0.9445400              0.3937990              0.2657040
SP   3   1.00
      1.2779000             -0.2276060             -0.0175130
      0.3975900              0.00144583             0.2445330
      0.1600950              1.0927900              0.8049340
SP   1   1.00
      0.0556577              1.0000000              1.0000000
D    1   1.00
      0.6500000              1.0000000
D    1   1.00
      0.1625000              1.0000000
F    1   1.00
      0.2500000              1.0000000
****
Si     0
S    6   1.00
  16115.9000000              0.00195948
   2425.5800000              0.01492880
    553.8670000              0.07284780
    156.3400000              0.24613000
     50.0683000              0.48591400
     17.0178000              0.32500200
SP   6   1.00
    292.7180000             -0.00278094             0.00443826
     69.8731000             -0.03571460             0.03266790
     22.3363000             -0.11498500             0.13472100
      8.1503900              0.09356340             0.32867800
      3.1345800              0.60301700             0.44964000
      1.2254300              0.41895900             0.26137200
SP   3   1.00
      1.7273800             -0.24463000            -0.01779510
      0.5729220              0.00431572             0.25353900
      0.2221920              1.09818000             0.80066900
SP   1   1.00
      0.0778369              1.00000000             1.00000000
D    1   1.00
      0.9000000              1.0000000
D    1   1.00
      0.2250000              1.0000000
F    1   1.00
      0.3200000              1.0000000
****
P     0
S    6   1.00
  19413.3000000              0.0018516
   2909.4200000              0.0142062
    661.3640000              0.0699995
    185.7590000              0.2400790
     59.1943000              0.4847620
     20.0310000              0.3352000
SP   6   1.00
    339.4780000             -0.00278217             0.00456462
     81.0101000             -0.0360499              0.03369360
     25.8780000             -0.1166310              0.13975500
      9.4522100              0.0968328              0.33936200
      3.6656600              0.6144180              0.45092100
      1.4674600              0.4037980              0.23858600
SP   3   1.00
      2.1562300             -0.2529230             -0.01776530
      0.7489970              0.0328517              0.27405800
      0.2831450              1.0812500              0.78542100
SP   1   1.00
      0.0998317              1.0000000              1.00000000
D    1   1.00
      1.1000000              1.0000000
D    1   1.00
      0.2750000              1.0000000
F    1   1.00
      0.4500000              1.0000000
****
S     0
S    6   1.00
  21917.1000000              0.0018690
   3301.4900000              0.0142300
    754.1460000              0.0696960
    212.7110000              0.2384870
     67.9896000              0.4833070
     23.0515000              0.3380740
SP   6   1.00
    423.7350000             -0.0023767              0.0040610
    100.7100000             -0.0316930              0.0306810
     32.1599000             -0.1133170              0.1304520
     11.8079000              0.0560900              0.3272050
      4.6311000              0.5922550              0.4528510
      1.8702500              0.4550060              0.2560420
SP   3   1.00
      2.6158400             -0.2503740             -0.0145110
      0.9221670              0.0669570              0.3102630
      0.3412870              1.0545100              0.7544830
SP   1   1.00
      0.1171670              1.0000000              1.0000000
D    1   1.00
      1.3000000              1.0000000
D    1   1.00
      0.3250000              1.0000000
F    1   1.00
      0.5500000              1.0000000
****
Cl     0
S    6   1.00
  25180.1000000              0.0018330
   3780.3500000              0.0140340
    860.4740000              0.0690970
    242.1450000              0.2374520
     77.3349000              0.4830340
     26.2470000              0.3398560
SP   6   1.00
    491.7650000             -0.0022974              0.0039894
    116.9840000             -0.0307140              0.0303180
     37.4153000             -0.1125280              0.1298800
     13.7834000              0.0450160              0.3279510
      5.4521500              0.5893530              0.4535270
      2.2258800              0.4652060              0.2521540
SP   3   1.00
      3.1864900             -0.2518300             -0.0142990
      1.1442700              0.0615890              0.3235720
      0.4203770              1.0601800              0.7435070
SP   1   1.00
      0.1426570              1.0000000              1.0000000
D    1   1.00
      1.5000000              1.0000000
D    1   1.00
      0.3750000              1.0000000
F    1   1.00
      0.7000000              1.0000000
****
}

set {
reference uhf
freeze_core true
e_convergence 10
d_convergence 10
dft_spherical_points 1202
dft_radial_points 99
}

e = energy('b3lyp')

print_out('Grab this energy {0}'.format(e))
--------------------------------------------------------------------------

    Molecular point group: cs

    Geometry (in Bohr), charge = 0, multiplicity = 2:

       Center              X                  Y                   Z               Mass
    ------------   -----------------  -----------------  -----------------  -----------------
         C           -0.323339675021    -0.001942349908     0.000000000000    12.000000000000
         C            0.060898529679    -1.401597033408    -2.424648570000    12.000000000000
         C            0.061504885579     2.804040703192     0.000000000000    12.000000000000
         C            0.060898529679    -1.401597033408     2.424648570000    12.000000000000
         H            2.085196238579    -1.643494169508    -2.847739144000     1.007825032230
         H           -0.772494958221    -0.385897399608    -4.022541053700     1.007825032230
         H           -0.759556371121    -3.292385716108    -2.348470482800     1.007825032230
         H            2.090277564679     3.288191916192     0.000000000000     1.007825032230
         H           -0.764581061021     3.684204563792     1.675343334500     1.007825032230
         H           -0.764581061021     3.684204563792    -1.675343334500     1.007825032230
         H            2.085196238579    -1.643494169508     2.847739144000     1.007825032230
         H           -0.759556371121    -3.292385716108     2.348470482800     1.007825032230
         H           -0.772494958221    -0.385897399608     4.022541053700     1.007825032230

  Charge       = 0
  Multiplicity = 2
  Basis Set: ANONYMOUS1AD49266
    Blend: 6-31G_2DFP_
  Basis Set: (ANONYMOUS1AD49266 AUX)
    Blend: DEF2-UNIVERSAL-JKFIT

    Orbital Energies [Eh]
    ---------------------

    Alpha Occupied:

       1Ap   -10.180341     2Ap   -10.167226     1App  -10.166925
       3Ap   -10.166893     4Ap    -0.797768     2App   -0.686270
       5Ap    -0.686104     6Ap    -0.530778     7Ap    -0.441126
       3App   -0.434790     8Ap    -0.434554     4App   -0.382665
       9Ap    -0.382531     5App   -0.363615    10Ap    -0.338011
       6App   -0.337980    11Ap    -0.168960

    Alpha Virtual:

      12Ap     0.076071     7App    0.134104    13Ap     0.134205
      14Ap     0.142433     8App    0.142821    15Ap     0.154880
      16Ap     0.178687     9App    0.178868    17Ap     0.203549
      10App    0.214800    18Ap     0.275540    11App    0.276432
      12App    0.398990    19Ap     0.399441    20Ap     0.403367
      13App    0.423970    21Ap     0.424226    22Ap     0.456596
      14App    0.495289    23Ap     0.495491    15App    0.512161
      24Ap     0.513979    25Ap     0.578568    16App    0.579066
      26Ap     0.591260    17App    0.592006    27Ap     0.602577
      28Ap     0.624726    18App    0.631755    29Ap     0.635914
      19App    0.636632    30Ap     0.662998    20App    0.663830
      21App    0.683638    31Ap     0.684075    32Ap     0.734995
      33Ap     0.825126    22App    0.825687    23App    0.853916
      24App    0.914944    34Ap     0.915109    25App    0.944121
      35Ap     0.944598    26App    0.961244    36Ap     0.961354
      37Ap     1.003453    27App    1.127787    38Ap     1.128417
      39Ap     1.142213    28App    1.163109    40Ap     1.163457
      41Ap     1.223316    42Ap     1.274058    29App    1.274914
      43Ap     1.279375    44Ap     1.324031    30App    1.324686
      45Ap     1.355989    46Ap     1.365462    31App    1.366628
      32App    1.392470    47Ap     1.403692    33App    1.404421
      34App    1.416660    48Ap     1.417535    35App    1.427899
      36App    1.491495    49Ap     1.499072    50Ap     1.542726
      37App    1.542957    38App    1.574436    51Ap     1.574461
      52Ap     1.669829    53Ap     1.738444    39App    1.740400
      54Ap     1.768302    40App    1.831024    55Ap     1.831769
      41App    1.971731    56Ap     2.017809    57Ap     2.018920
      42App    2.019671    58Ap     2.051145    43App    2.054144
      59Ap     2.738236    44App    2.738717    60Ap     2.790934
      45App    2.811426    61Ap     2.889336    46App    2.890524
      62Ap     2.894983    47App    2.929353    63Ap     2.929644
      48App    2.958945    49App    2.964228    64Ap     2.964580
      65Ap     3.034019    50App    3.070947    66Ap     3.071540
      51App    3.084442    67Ap     3.168268    52App    3.169252
      68Ap     3.180637    53App    3.285192    69Ap     3.285423
      70Ap     3.326316    54App    3.327994    71Ap     3.375636
      55App    3.490109    72Ap     3.490214    56App    3.514008
      73Ap     3.525301    74Ap     3.568019    57App    3.568787
      58App    3.575114    75Ap     3.666061    59App    3.666721
      76Ap     3.679710    77Ap     3.693999    60App    3.694217
      61App    3.775567    78Ap     3.777985    79Ap     3.789146
      62App    3.912147    80Ap     3.912323    81Ap     4.034448
      82Ap     4.109808    63App    4.112872    83Ap     4.147765
      64App    4.148391    84Ap     4.173292    85Ap     4.202494
      65App    4.202723    86Ap     4.203644    66App    4.210920
      67App    4.315827    87Ap     4.316126    68App    4.358969
      88Ap     4.424421    69App    4.424467    70App    4.443458
      89Ap     4.515029    71App    4.518657    90Ap     4.577531
      72App    4.578920    91Ap     4.617605    92Ap     4.709439
      93Ap     4.774259    73App    4.774964    74App    4.836932
      94Ap     4.962851    95Ap     5.001979    75App    5.003950
      96Ap     5.227633    76App    5.246578    97Ap     5.247402
      98Ap     5.353319    77App    5.357711    78App    5.479389

    Beta Occupied:

       1Ap   -10.167982     1App  -10.167679     2Ap   -10.167663
       3Ap   -10.166519     4Ap    -0.781093     2App   -0.684060
       5Ap    -0.683919     6Ap    -0.511750     3App   -0.431153
       7Ap    -0.430933     8Ap    -0.421822     4App   -0.376734
       9Ap    -0.376632     5App   -0.362599    10Ap    -0.333129
       6App   -0.333108

    Beta Virtual:

      11Ap    -0.025742    12Ap     0.077079     7App    0.134973
      13Ap     0.135117    14Ap     0.144287     8App    0.144709
      15Ap     0.163338    16Ap     0.182351     9App    0.182547
      10App    0.215029    17Ap     0.218931    18Ap     0.281899
      11App    0.282768    12App    0.400150    19Ap     0.400639
      20Ap     0.419794    13App    0.426793    21Ap     0.427025
      22Ap     0.468505    14App    0.497551    23Ap     0.497750
      15App    0.513896    24Ap     0.556324    25Ap     0.584110
      16App    0.584626    26Ap     0.597435    17App    0.598188
      27Ap     0.610003    28Ap     0.628097    18App    0.631917
      29Ap     0.639203    19App    0.639913    30Ap     0.666587
      20App    0.667367    21App    0.686308    31Ap     0.686676
      32Ap     0.757518    33Ap     0.830334    22App    0.830816
      23App    0.855269    24App    0.922938    34Ap     0.923058
      25App    0.945957    35Ap     0.953521    26App    0.966562
      36Ap     0.966653    37Ap     1.008693    27App    1.131767
      38Ap     1.132495    39Ap     1.155593    28App    1.168249
      40Ap     1.168461    41Ap     1.232288    42Ap     1.279624
      29App    1.280534    43Ap     1.285137    44Ap     1.329033
      30App    1.329661    45Ap     1.365405    46Ap     1.370807
      31App    1.371768    32App    1.393526    47Ap     1.407112
      33App    1.407932    34App    1.421752    48Ap     1.422545
      35App    1.428169    36App    1.492544    49Ap     1.509515
      50Ap     1.547190    37App    1.547309    51Ap     1.582292
      38App    1.582348    52Ap     1.674676    53Ap     1.744180
      39App    1.746189    54Ap     1.779079    40App    1.834882
      55Ap     1.835623    41App    1.972592    56Ap     2.024790
      42App    2.026092    57Ap     2.039694    58Ap     2.057883
      43App    2.060838    59Ap     2.746537    44App    2.747090
      45App    2.811838    60Ap     2.816067    61Ap     2.902075
      46App    2.903197    62Ap     2.924637    47App    2.931789
      63Ap     2.932182    48App    2.960027    49App    2.968776
      64Ap     2.969106    65Ap     3.041953    50App    3.080684
      66Ap     3.081491    51App    3.086394    67Ap     3.183871
      52App    3.185042    68Ap     3.188424    53App    3.289983
      69Ap     3.290230    70Ap     3.330093    54App    3.331824
      71Ap     3.383456    55App    3.492874    72Ap     3.492912
      56App    3.512376    73Ap     3.528349    57App    3.574964
      74Ap     3.581465    58App    3.582023    75Ap     3.670826
      59App    3.671457    76Ap     3.692986    77Ap     3.725603
      60App    3.725889    61App    3.780168    78Ap     3.782439
      79Ap     3.817688    62App    3.921853    80Ap     3.922250
      81Ap     4.045336    82Ap     4.116424    63App    4.119898
      83Ap     4.155280    64App    4.155299    84Ap     4.187326
      65App    4.208691    85Ap     4.209266    86Ap     4.210755
      66App    4.215395    67App    4.323342    87Ap     4.323494
      68App    4.362331    88Ap     4.432636    69App    4.432659
      70App    4.446364    89Ap     4.522822    71App    4.526441
      90Ap     4.588092    72App    4.589559    91Ap     4.624802
      92Ap     4.719785    93Ap     4.781199    73App    4.781931
      74App    4.839849    94Ap     4.967646    95Ap     5.006002
      75App    5.008005    96Ap     5.233256    76App    5.248364
      97Ap     5.249279    98Ap     5.359788    77App    5.364200
      78App    5.481712

    Final Occupation by Irrep:
             Ap   App
    DOCC [    10,    6 ]
    SOCC [     1,    0 ]

  @DF-UKS Final Energy:  -157.81305919140436

   => Energetics <=

    Nuclear Repulsion Energy =            125.3946633359890797
    One-Electron Energy =                -458.7489655217262339
    Two-Electron Energy =                 195.8483892892782308
    DFT Exchange-Correlation Energy =     -20.3071462949454435
    Empirical Dispersion Energy =           0.0000000000000000
    VV10 Nonlocal Energy =                  0.0000000000000000
    Total Energy =                       -157.8130591914043634

  UHF NO Occupations:
  HONO-2 :    9 Ap 1.9996009
  HONO-1 :   10 Ap 1.9989805
  HONO-0 :   11 Ap 1.0000000
  LUNO+0 :   12 Ap 0.0010195
  LUNO+1 :   13 Ap 0.0003991
  LUNO+2 :   14 Ap 0.0001981
  LUNO+3 :    7App 0.0001970

Computation Completed

Properties will be evaluated at   0.000000,   0.000000,   0.000000 [a0]

Properties computed using the SCF density matrix

  Nuclear Dipole Moment: [e a0]
     X:     0.8272      Y:     0.0065      Z:    -0.0000

  Electronic Dipole Moment: [e a0]
     X:    -0.7493      Y:    -0.0082      Z:     0.0000

  Dipole Moment: [e a0]
     X:     0.0779      Y:    -0.0017      Z:    -0.0000     Total:     0.0779

  Dipole Moment: [D]
     X:     0.1980      Y:    -0.0043      Z:    -0.0000     Total:     0.1981

*** tstop() called on n054 at Fri Nov  5 14:29:11 2021
Module time:
	user time   =     559.47 seconds =       9.32 minutes
	system time =      12.41 seconds =       0.21 minutes
	total time  =        143 seconds =       2.38 minutes
Total time:
	user time   =     559.47 seconds =       9.32 minutes
	system time =      12.41 seconds =       0.21 minutes
	total time  =        143 seconds =       2.38 minutes
Grab this energy -157.81305919140436
    Psi4 stopped on: Friday, 05 November 2021 02:29PM
    Psi4 wall time for execution: 0:02:23.80

*** Psi4 exiting successfully. Buy a developer a beer!
