                               Psi4 1.4a2.dev629

  ==> Input File <==

--------------------------------------------------------------------------
import os
memory 14 GB

molecule {
 C   -0.3236410818   -0.0000031734   -0.0024298097
 C    0.0605892065   -1.4025169011   -2.4304702959
 C    0.0611583205    2.8072033354   -0.0012506768
 C    0.0619681597   -1.4046843703    2.4317229393
 H    2.0850001525   -1.6491974446   -2.8529309903
 H   -0.7646209868   -0.3887425806   -4.0309034098
 H   -0.7691348496   -3.2920961776   -2.3513097703
 H    2.0870848741    3.2946952599    0.0033553018
 H   -0.7701686750    3.6833603546    1.6735381978
 H   -0.7614488983    3.6891522858   -1.6802164619
 H    2.0894546816   -1.6455894192    2.8533718814
 H   -0.7623298892   -3.2985668907    2.3566815540
 H   -0.7665188909   -0.3930385919    4.0308415404
units bohr
0 2
}

basis {

assign 6-31g_2dfp_

[ 6-31g_2dfp_ ]

spherical

!----------------------------------------------------------------------
! Basis Set Exchange
! Version v0.8.13
! https://www.basissetexchange.org
!----------------------------------------------------------------------
!   Basis set: 6-31G(2df,p)
! Description: 6-31G(2df,p)
!        Role: orbital
!     Version: 0  (Data from the original Basis Set Exchange)
!----------------------------------------------------------------------

****
H     0
S    3   1.00
     18.7311370              0.03349460
      2.8253937              0.23472695
      0.6401217              0.81375733
S    1   1.00
      0.1612778              1.00000000
P    1   1.00
      1.5000000              1.0000000
P    1   1.00
      0.3750000              1.0000000
****
B     0
S    6   1.00
   2068.8823000              0.0018663
    310.6495700              0.0142515
     70.6830330              0.0695516
     19.8610800              0.2325729
      6.2993048              0.4670787
      2.1270270              0.3634314
SP   3   1.00
      4.7279710             -0.1303938              0.0745976
      1.1903377             -0.1307889              0.3078467
      0.3594117              1.1309444              0.7434568
SP   1   1.00
      0.1267512              1.0000000              1.0000000
D    1   1.00
      0.8020000              1.0000000
D    1   1.00
      0.2005000              1.0000000
F    1   1.00
      0.5000000              1.0000000
****
C     0
S    6   1.00
   3047.5249000              0.0018347
    457.3695100              0.0140373
    103.9486900              0.0688426
     29.2101550              0.2321844
      9.2866630              0.4679413
      3.1639270              0.3623120
SP   3   1.00
      7.8682724             -0.1193324              0.0689991
      1.8812885             -0.1608542              0.3164240
      0.5442493              1.1434564              0.7443083
SP   1   1.00
      0.1687144              1.0000000              1.0000000
D    1   1.00
      1.2520000              1.0000000
D    1   1.00
      0.3130000              1.0000000
F    1   1.00
      0.8000000              1.0000000
****
N     0
S    6   1.00
   4173.5110000              0.0018348
    627.4579000              0.0139950
    142.9021000              0.0685870
     40.2343300              0.2322410
     12.8202100              0.4690700
      4.3904370              0.3604550
SP   3   1.00
     11.6263580             -0.1149610              0.0675800
      2.7162800             -0.1691180              0.3239070
      0.7722180              1.1458520              0.7408950
SP   1   1.00
      0.2120313              1.0000000              1.0000000
D    1   1.00
      1.8260000              1.0000000
D    1   1.00
      0.4565000              1.0000000
F    1   1.00
      1.0000000              1.0000000
****
O     0
S    6   1.00
   5484.6717000              0.0018311
    825.2349500              0.0139501
    188.0469600              0.0684451
     52.9645000              0.2327143
     16.8975700              0.4701930
      5.7996353              0.3585209
SP   3   1.00
     15.5396160             -0.1107775              0.0708743
      3.5999336             -0.1480263              0.3397528
      1.0137618              1.1307670              0.7271586
SP   1   1.00
      0.2700058              1.0000000              1.0000000
D    1   1.00
      2.5840000              1.0000000
D    1   1.00
      0.6460000              1.0000000
F    1   1.00
      1.4000000              1.0000000
****
F     0
S    6   1.00
   7001.7130900              0.0018196169
   1051.3660900              0.0139160796
    239.2856900              0.0684053245
     67.3974453              0.233185760
     21.5199573              0.471267439
      7.40310130             0.356618546
SP   3   1.00
     20.8479528             -0.108506975            0.0716287243
      4.80830834            -0.146451658            0.3459121030
      1.34406986             1.128688580            0.7224699570
SP   1   1.00
      0.358151393            1.0000000              1.0000000
D    1   1.00
      3.5000000              1.0000000
D    1   1.00
      0.8750000              1.0000000
F    1   1.00
      1.8500000              1.0000000
****
Al     0
S    6   1.00
  13983.1000000              0.00194267
   2098.7500000              0.0148599
    477.7050000              0.0728494
    134.3600000              0.2468300
     42.8709000              0.4872580
     14.5189000              0.3234960
SP   6   1.00
    239.6680000             -0.00292619             0.00460285
     57.4419000             -0.0374080              0.0331990
     18.2859000             -0.1144870              0.1362820
      6.5991400              0.1156350              0.3304760
      2.4904900              0.6125950              0.4491460
      0.9445400              0.3937990              0.2657040
SP   3   1.00
      1.2779000             -0.2276060             -0.0175130
      0.3975900              0.00144583             0.2445330
      0.1600950              1.0927900              0.8049340
SP   1   1.00
      0.0556577              1.0000000              1.0000000
D    1   1.00
      0.6500000              1.0000000
D    1   1.00
      0.1625000              1.0000000
F    1   1.00
      0.2500000              1.0000000
****
Si     0
S    6   1.00
  16115.9000000              0.00195948
   2425.5800000              0.01492880
    553.8670000              0.07284780
    156.3400000              0.24613000
     50.0683000              0.48591400
     17.0178000              0.32500200
SP   6   1.00
    292.7180000             -0.00278094             0.00443826
     69.8731000             -0.03571460             0.03266790
     22.3363000             -0.11498500             0.13472100
      8.1503900              0.09356340             0.32867800
      3.1345800              0.60301700             0.44964000
      1.2254300              0.41895900             0.26137200
SP   3   1.00
      1.7273800             -0.24463000            -0.01779510
      0.5729220              0.00431572             0.25353900
      0.2221920              1.09818000             0.80066900
SP   1   1.00
      0.0778369              1.00000000             1.00000000
D    1   1.00
      0.9000000              1.0000000
D    1   1.00
      0.2250000              1.0000000
F    1   1.00
      0.3200000              1.0000000
****
P     0
S    6   1.00
  19413.3000000              0.0018516
   2909.4200000              0.0142062
    661.3640000              0.0699995
    185.7590000              0.2400790
     59.1943000              0.4847620
     20.0310000              0.3352000
SP   6   1.00
    339.4780000             -0.00278217             0.00456462
     81.0101000             -0.0360499              0.03369360
     25.8780000             -0.1166310              0.13975500
      9.4522100              0.0968328              0.33936200
      3.6656600              0.6144180              0.45092100
      1.4674600              0.4037980              0.23858600
SP   3   1.00
      2.1562300             -0.2529230             -0.01776530
      0.7489970              0.0328517              0.27405800
      0.2831450              1.0812500              0.78542100
SP   1   1.00
      0.0998317              1.0000000              1.00000000
D    1   1.00
      1.1000000              1.0000000
D    1   1.00
      0.2750000              1.0000000
F    1   1.00
      0.4500000              1.0000000
****
S     0
S    6   1.00
  21917.1000000              0.0018690
   3301.4900000              0.0142300
    754.1460000              0.0696960
    212.7110000              0.2384870
     67.9896000              0.4833070
     23.0515000              0.3380740
SP   6   1.00
    423.7350000             -0.0023767              0.0040610
    100.7100000             -0.0316930              0.0306810
     32.1599000             -0.1133170              0.1304520
     11.8079000              0.0560900              0.3272050
      4.6311000              0.5922550              0.4528510
      1.8702500              0.4550060              0.2560420
SP   3   1.00
      2.6158400             -0.2503740             -0.0145110
      0.9221670              0.0669570              0.3102630
      0.3412870              1.0545100              0.7544830
SP   1   1.00
      0.1171670              1.0000000              1.0000000
D    1   1.00
      1.3000000              1.0000000
D    1   1.00
      0.3250000              1.0000000
F    1   1.00
      0.5500000              1.0000000
****
Cl     0
S    6   1.00
  25180.1000000              0.0018330
   3780.3500000              0.0140340
    860.4740000              0.0690970
    242.1450000              0.2374520
     77.3349000              0.4830340
     26.2470000              0.3398560
SP   6   1.00
    491.7650000             -0.0022974              0.0039894
    116.9840000             -0.0307140              0.0303180
     37.4153000             -0.1125280              0.1298800
     13.7834000              0.0450160              0.3279510
      5.4521500              0.5893530              0.4535270
      2.2258800              0.4652060              0.2521540
SP   3   1.00
      3.1864900             -0.2518300             -0.0142990
      1.1442700              0.0615890              0.3235720
      0.4203770              1.0601800              0.7435070
SP   1   1.00
      0.1426570              1.0000000              1.0000000
D    1   1.00
      1.5000000              1.0000000
D    1   1.00
      0.3750000              1.0000000
F    1   1.00
      0.7000000              1.0000000
****
}

set {
reference uhf
freeze_core true
e_convergence 10
d_convergence 10
dft_spherical_points 1202
dft_radial_points 99
}

e = energy('b3lyp')

print_out('Grab this energy {0}'.format(e))
--------------------------------------------------------------------------

    Molecular point group: c1

    Geometry (in Bohr), charge = 0, multiplicity = 2:

       Center              X                  Y                   Z               Mass
    ------------   -----------------  -----------------  -----------------  -----------------
         C           -0.323663152610    -0.000002530358    -0.001962189632    12.000000000000
         C            0.060567135690    -1.402516258058    -2.430002675832    12.000000000000
         C            0.061136249690     2.807203978442    -0.000783056732    12.000000000000
         C            0.061946088890    -1.404683727258     2.432190559368    12.000000000000
         H            2.084978081690    -1.649196801558    -2.852463370232     1.007825032230
         H           -0.764643057610    -0.388741937558    -4.030435789732     1.007825032230
         H           -0.769156920410    -3.292095534558    -2.350842150232     1.007825032230
         H            2.087062803290     3.294695902942     0.003822921868     1.007825032230
         H           -0.770190745810     3.683360997642     1.674005817868     1.007825032230
         H           -0.761470969110     3.689152928842    -1.679748841832     1.007825032230
         H            2.089432610790    -1.645588776158     2.853839501468     1.007825032230
         H           -0.762351960010    -3.298566247658     2.357149174068     1.007825032230
         H           -0.766540961710    -0.393037948858     4.031309160468     1.007825032230

  Charge       = 0
  Multiplicity = 2
  Basis Set: ANONYMOUS3264D03A
    Blend: 6-31G_2DFP_
  Basis Set: (ANONYMOUS3264D03A AUX)
    Blend: DEF2-UNIVERSAL-JKFIT

    Orbital Energies [Eh]
    ---------------------

    Alpha Occupied:

       1A    -10.181113     2A    -10.167564     3A    -10.167377
       4A    -10.167187     5A     -0.796722     6A     -0.686029
       7A     -0.685745     8A     -0.530778     9A     -0.440532
      10A     -0.434264    11A     -0.434121    12A     -0.382569
      13A     -0.382480    14A     -0.363728    15A     -0.337959
      16A     -0.337662    17A     -0.169285

    Alpha Virtual:

      18A      0.076102    19A      0.134053    20A      0.134178
      21A      0.142414    22A      0.142437    23A      0.154817
      24A      0.178599    25A      0.178605    26A      0.202437
      27A      0.214457    28A      0.275117    29A      0.275790
      30A      0.399237    31A      0.399249    32A      0.403559
      33A      0.424347    34A      0.424420    35A      0.456032
      36A      0.495113    37A      0.495215    38A      0.511827
      39A      0.513569    40A      0.577920    41A      0.578314
      42A      0.590873    43A      0.591311    44A      0.602125
      45A      0.624355    46A      0.631417    47A      0.635372
      48A      0.635537    49A      0.662726    50A      0.663139
      51A      0.683388    52A      0.683435    53A      0.735195
      54A      0.825530    55A      0.825593    56A      0.852911
      57A      0.914169    58A      0.914434    59A      0.942799
      60A      0.945183    61A      0.960296    62A      0.960377
      63A      1.002336    64A      1.127161    65A      1.127254
      66A      1.141868    67A      1.162382    68A      1.162627
      69A      1.222437    70A      1.273396    71A      1.273769
      72A      1.278842    73A      1.323896    74A      1.324145
      75A      1.355826    76A      1.363930    77A      1.364525
      78A      1.390931    79A      1.404015    80A      1.404626
      81A      1.416484    82A      1.417030    83A      1.426489
      84A      1.490298    85A      1.498511    86A      1.541952
      87A      1.542230    88A      1.573056    89A      1.573503
      90A      1.669903    91A      1.738517    92A      1.739051
      93A      1.766803    94A      1.829781    95A      1.830607
      96A      1.970359    97A      2.015964    98A      2.017912
      99A      2.017986   100A      2.047224   101A      2.049167
     102A      2.737829   103A      2.737930   104A      2.789766
     105A      2.808699   106A      2.888338   107A      2.889175
     108A      2.893480   109A      2.929161   110A      2.929497
     111A      2.958756   112A      2.964416   113A      2.964940
     114A      3.034037   115A      3.070059   116A      3.070635
     117A      3.082779   118A      3.167861   119A      3.167979
     120A      3.178762   121A      3.284743   122A      3.284833
     123A      3.326297   124A      3.327187   125A      3.376975
     126A      3.488139   127A      3.488577   128A      3.513221
     129A      3.522965   130A      3.567627   131A      3.569317
     132A      3.573034   133A      3.666192   134A      3.666627
     135A      3.677757   136A      3.692348   137A      3.693047
     138A      3.770982   139A      3.773662   140A      3.788455
     141A      3.909650   142A      3.910632   143A      4.032616
     144A      4.107444   145A      4.109506   146A      4.146854
     147A      4.147995   148A      4.172033   149A      4.200208
     150A      4.200999   151A      4.201502   152A      4.209259
     153A      4.313913   154A      4.314938   155A      4.356487
     156A      4.421896   157A      4.422903   158A      4.441025
     159A      4.513110   160A      4.514611   161A      4.574034
     162A      4.575380   163A      4.610243   164A      4.704685
     165A      4.767572   166A      4.768801   167A      4.832957
     168A      4.959833   169A      5.000725   170A      5.001966
     171A      5.227014   172A      5.245288   173A      5.245517
     174A      5.351968   175A      5.353857   176A      5.473651

    Beta Occupied:

       1A    -10.168320     2A    -10.168136     3A    -10.167953
       4A    -10.167258     5A     -0.780070     6A     -0.683841
       7A     -0.683579     8A     -0.511648     9A     -0.430660
      10A     -0.430504    11A     -0.421326    12A     -0.376680
      13A     -0.376614    14A     -0.362723    15A     -0.333078
      16A     -0.332779

    Beta Virtual:

      17A     -0.025774    18A      0.077100    19A      0.134945
      20A      0.135079    21A      0.144245    22A      0.144290
      23A      0.163232    24A      0.182243    25A      0.182252
      26A      0.214679    27A      0.217999    28A      0.281546
      29A      0.282196    30A      0.400383    31A      0.400385
      32A      0.420093    33A      0.427155    34A      0.427253
      35A      0.467586    36A      0.497366    37A      0.497454
      38A      0.513546    39A      0.555984    40A      0.583455
      41A      0.583869    42A      0.597129    43A      0.597531
      44A      0.609512    45A      0.627671    46A      0.631566
      47A      0.638565    48A      0.638770    49A      0.666340
      50A      0.666733    51A      0.685957    52A      0.685981
      53A      0.757895    54A      0.830709    55A      0.830717
      56A      0.854228    57A      0.922124    58A      0.922396
      59A      0.944633    60A      0.954202    61A      0.965548
      62A      0.965688    63A      1.007653    64A      1.131139
      65A      1.131336    66A      1.155229    67A      1.167515
      68A      1.167636    69A      1.231269    70A      1.278947
      71A      1.279332    72A      1.284665    73A      1.328901
      74A      1.329125    75A      1.365213    76A      1.369217
      77A      1.369737    78A      1.391980    79A      1.407487
      80A      1.408150    81A      1.421485    82A      1.422013
      83A      1.426727    84A      1.491347    85A      1.508892
      86A      1.546446    87A      1.546663    88A      1.580903
      89A      1.581263    90A      1.674742    91A      1.744262
      92A      1.744823    93A      1.777560    94A      1.833612
      95A      1.834451    96A      1.971215    97A      2.024241
      98A      2.024391    99A      2.037321   100A      2.053949
     101A      2.055818   102A      2.746233   103A      2.746388
     104A      2.809107   105A      2.814920   106A      2.901323
     107A      2.902052   108A      2.923057   109A      2.931491
     110A      2.931826   111A      2.959807   112A      2.968919
     113A      2.969412   114A      3.041884   115A      3.079923
     116A      3.080418   117A      3.084578   118A      3.183597
     119A      3.183874   120A      3.186582   121A      3.289363
     122A      3.289460   123A      3.330185   124A      3.331059
     125A      3.384812   126A      3.490862   127A      3.491348
     128A      3.511598   129A      3.526065   130A      3.572857
     131A      3.580989   132A      3.582606   133A      3.671194
     134A      3.671353   135A      3.691045   136A      3.724322
     137A      3.724695   138A      3.775519   139A      3.778112
     140A      3.817117   141A      3.919504   142A      3.920400
     143A      4.043572   144A      4.114533   145A      4.116594
     146A      4.153950   147A      4.154950   148A      4.185978
     149A      4.206182   150A      4.207115   151A      4.209192
     152A      4.213662   153A      4.321289   154A      4.322379
     155A      4.359870   156A      4.430025   157A      4.430989
     158A      4.443897   159A      4.520784   160A      4.522262
     161A      4.584610   162A      4.585964   163A      4.617456
     164A      4.714947   165A      4.774563   166A      4.775711
     167A      4.835876   168A      4.964605   169A      5.004707
     170A      5.005984   171A      5.232690   172A      5.247048
     173A      5.247302   174A      5.358373   175A      5.360305
     176A      5.475950

    Final Occupation by Irrep:
              A
    DOCC [    16 ]
    SOCC [     1 ]

  @DF-UKS Final Energy:  -157.81306917604132

   => Energetics <=

    Nuclear Repulsion Energy =            125.2136775450525903
    One-Electron Energy =                -458.3926239852775097
    Two-Electron Energy =                 195.6692292325077176
    DFT Exchange-Correlation Energy =     -20.3033519683241046
    Empirical Dispersion Energy =           0.0000000000000000
    VV10 Nonlocal Energy =                  0.0000000000000000
    Total Energy =                       -157.8130691760413242

  UHF NO Occupations:
  HONO-2 :   15  A 1.9996026
  HONO-1 :   16  A 1.9989734
  HONO-0 :   17  A 1.0000000
  LUNO+0 :   18  A 0.0010266
  LUNO+1 :   19  A 0.0003974
  LUNO+2 :   20  A 0.0002003
  LUNO+3 :   21  A 0.0001992

Computation Completed

Properties will be evaluated at   0.000000,   0.000000,   0.000000 [a0]

Properties computed using the SCF density matrix

  Nuclear Dipole Moment: [e a0]
     X:     0.8270      Y:    -0.0000      Z:     0.0033

  Electronic Dipole Moment: [e a0]
     X:    -0.7483      Y:     0.0000      Z:    -0.0033

  Dipole Moment: [e a0]
     X:     0.0788      Y:     0.0000      Z:     0.0000     Total:     0.0788

  Dipole Moment: [D]
     X:     0.2002      Y:     0.0000      Z:     0.0001     Total:     0.2002

*** tstop() called on n033 at Fri Nov  5 15:48:30 2021
Module time:
	user time   =     633.62 seconds =      10.56 minutes
	system time =      12.04 seconds =       0.20 minutes
	total time  =        162 seconds =       2.70 minutes
Total time:
	user time   =     633.62 seconds =      10.56 minutes
	system time =      12.04 seconds =       0.20 minutes
	total time  =        162 seconds =       2.70 minutes
Grab this energy -157.81306917604132
    Psi4 stopped on: Friday, 05 November 2021 03:48PM
    Psi4 wall time for execution: 0:02:42.32

*** Psi4 exiting successfully. Buy a developer a beer!
