                               Psi4 1.4a2.dev629

  ==> Input File <==

--------------------------------------------------------------------------
import os
memory 14 GB

molecule {
 C   -0.3233408003   -0.0000022598    0.0012775748
 C    0.0622679131   -1.3999301805   -2.4273129387
 C    0.0610187792    2.8017569470   -0.0025701802
 C    0.0600124244   -1.4018219979    2.4254488837
 H    2.0868334045   -1.6444598147   -2.8471405430
 H   -0.7659177934   -0.3884922602   -4.0253073807
 H   -0.7657983697   -3.2920316686   -2.3487976660
 H    2.0867955260    3.2880960432    0.0009342643
 H   -0.7653606449    3.6801149081    1.6769500075
 H   -0.7659285521    3.6803833409   -1.6760548286
 H    2.0870414893   -1.6437283227    2.8477422938
 H   -0.7653399163   -3.2919641825    2.3491768669
 H   -0.7648913365   -0.3879448659    4.0256536462
units bohr
0 2
}

basis {

assign 6-31g_2dfp_

[ 6-31g_2dfp_ ]

spherical

!----------------------------------------------------------------------
! Basis Set Exchange
! Version v0.8.13
! https://www.basissetexchange.org
!----------------------------------------------------------------------
!   Basis set: 6-31G(2df,p)
! Description: 6-31G(2df,p)
!        Role: orbital
!     Version: 0  (Data from the original Basis Set Exchange)
!----------------------------------------------------------------------

****
H     0
S    3   1.00
     18.7311370              0.03349460
      2.8253937              0.23472695
      0.6401217              0.81375733
S    1   1.00
      0.1612778              1.00000000
P    1   1.00
      1.5000000              1.0000000
P    1   1.00
      0.3750000              1.0000000
****
B     0
S    6   1.00
   2068.8823000              0.0018663
    310.6495700              0.0142515
     70.6830330              0.0695516
     19.8610800              0.2325729
      6.2993048              0.4670787
      2.1270270              0.3634314
SP   3   1.00
      4.7279710             -0.1303938              0.0745976
      1.1903377             -0.1307889              0.3078467
      0.3594117              1.1309444              0.7434568
SP   1   1.00
      0.1267512              1.0000000              1.0000000
D    1   1.00
      0.8020000              1.0000000
D    1   1.00
      0.2005000              1.0000000
F    1   1.00
      0.5000000              1.0000000
****
C     0
S    6   1.00
   3047.5249000              0.0018347
    457.3695100              0.0140373
    103.9486900              0.0688426
     29.2101550              0.2321844
      9.2866630              0.4679413
      3.1639270              0.3623120
SP   3   1.00
      7.8682724             -0.1193324              0.0689991
      1.8812885             -0.1608542              0.3164240
      0.5442493              1.1434564              0.7443083
SP   1   1.00
      0.1687144              1.0000000              1.0000000
D    1   1.00
      1.2520000              1.0000000
D    1   1.00
      0.3130000              1.0000000
F    1   1.00
      0.8000000              1.0000000
****
N     0
S    6   1.00
   4173.5110000              0.0018348
    627.4579000              0.0139950
    142.9021000              0.0685870
     40.2343300              0.2322410
     12.8202100              0.4690700
      4.3904370              0.3604550
SP   3   1.00
     11.6263580             -0.1149610              0.0675800
      2.7162800             -0.1691180              0.3239070
      0.7722180              1.1458520              0.7408950
SP   1   1.00
      0.2120313              1.0000000              1.0000000
D    1   1.00
      1.8260000              1.0000000
D    1   1.00
      0.4565000              1.0000000
F    1   1.00
      1.0000000              1.0000000
****
O     0
S    6   1.00
   5484.6717000              0.0018311
    825.2349500              0.0139501
    188.0469600              0.0684451
     52.9645000              0.2327143
     16.8975700              0.4701930
      5.7996353              0.3585209
SP   3   1.00
     15.5396160             -0.1107775              0.0708743
      3.5999336             -0.1480263              0.3397528
      1.0137618              1.1307670              0.7271586
SP   1   1.00
      0.2700058              1.0000000              1.0000000
D    1   1.00
      2.5840000              1.0000000
D    1   1.00
      0.6460000              1.0000000
F    1   1.00
      1.4000000              1.0000000
****
F     0
S    6   1.00
   7001.7130900              0.0018196169
   1051.3660900              0.0139160796
    239.2856900              0.0684053245
     67.3974453              0.233185760
     21.5199573              0.471267439
      7.40310130             0.356618546
SP   3   1.00
     20.8479528             -0.108506975            0.0716287243
      4.80830834            -0.146451658            0.3459121030
      1.34406986             1.128688580            0.7224699570
SP   1   1.00
      0.358151393            1.0000000              1.0000000
D    1   1.00
      3.5000000              1.0000000
D    1   1.00
      0.8750000              1.0000000
F    1   1.00
      1.8500000              1.0000000
****
Al     0
S    6   1.00
  13983.1000000              0.00194267
   2098.7500000              0.0148599
    477.7050000              0.0728494
    134.3600000              0.2468300
     42.8709000              0.4872580
     14.5189000              0.3234960
SP   6   1.00
    239.6680000             -0.00292619             0.00460285
     57.4419000             -0.0374080              0.0331990
     18.2859000             -0.1144870              0.1362820
      6.5991400              0.1156350              0.3304760
      2.4904900              0.6125950              0.4491460
      0.9445400              0.3937990              0.2657040
SP   3   1.00
      1.2779000             -0.2276060             -0.0175130
      0.3975900              0.00144583             0.2445330
      0.1600950              1.0927900              0.8049340
SP   1   1.00
      0.0556577              1.0000000              1.0000000
D    1   1.00
      0.6500000              1.0000000
D    1   1.00
      0.1625000              1.0000000
F    1   1.00
      0.2500000              1.0000000
****
Si     0
S    6   1.00
  16115.9000000              0.00195948
   2425.5800000              0.01492880
    553.8670000              0.07284780
    156.3400000              0.24613000
     50.0683000              0.48591400
     17.0178000              0.32500200
SP   6   1.00
    292.7180000             -0.00278094             0.00443826
     69.8731000             -0.03571460             0.03266790
     22.3363000             -0.11498500             0.13472100
      8.1503900              0.09356340             0.32867800
      3.1345800              0.60301700             0.44964000
      1.2254300              0.41895900             0.26137200
SP   3   1.00
      1.7273800             -0.24463000            -0.01779510
      0.5729220              0.00431572             0.25353900
      0.2221920              1.09818000             0.80066900
SP   1   1.00
      0.0778369              1.00000000             1.00000000
D    1   1.00
      0.9000000              1.0000000
D    1   1.00
      0.2250000              1.0000000
F    1   1.00
      0.3200000              1.0000000
****
P     0
S    6   1.00
  19413.3000000              0.0018516
   2909.4200000              0.0142062
    661.3640000              0.0699995
    185.7590000              0.2400790
     59.1943000              0.4847620
     20.0310000              0.3352000
SP   6   1.00
    339.4780000             -0.00278217             0.00456462
     81.0101000             -0.0360499              0.03369360
     25.8780000             -0.1166310              0.13975500
      9.4522100              0.0968328              0.33936200
      3.6656600              0.6144180              0.45092100
      1.4674600              0.4037980              0.23858600
SP   3   1.00
      2.1562300             -0.2529230             -0.01776530
      0.7489970              0.0328517              0.27405800
      0.2831450              1.0812500              0.78542100
SP   1   1.00
      0.0998317              1.0000000              1.00000000
D    1   1.00
      1.1000000              1.0000000
D    1   1.00
      0.2750000              1.0000000
F    1   1.00
      0.4500000              1.0000000
****
S     0
S    6   1.00
  21917.1000000              0.0018690
   3301.4900000              0.0142300
    754.1460000              0.0696960
    212.7110000              0.2384870
     67.9896000              0.4833070
     23.0515000              0.3380740
SP   6   1.00
    423.7350000             -0.0023767              0.0040610
    100.7100000             -0.0316930              0.0306810
     32.1599000             -0.1133170              0.1304520
     11.8079000              0.0560900              0.3272050
      4.6311000              0.5922550              0.4528510
      1.8702500              0.4550060              0.2560420
SP   3   1.00
      2.6158400             -0.2503740             -0.0145110
      0.9221670              0.0669570              0.3102630
      0.3412870              1.0545100              0.7544830
SP   1   1.00
      0.1171670              1.0000000              1.0000000
D    1   1.00
      1.3000000              1.0000000
D    1   1.00
      0.3250000              1.0000000
F    1   1.00
      0.5500000              1.0000000
****
Cl     0
S    6   1.00
  25180.1000000              0.0018330
   3780.3500000              0.0140340
    860.4740000              0.0690970
    242.1450000              0.2374520
     77.3349000              0.4830340
     26.2470000              0.3398560
SP   6   1.00
    491.7650000             -0.0022974              0.0039894
    116.9840000             -0.0307140              0.0303180
     37.4153000             -0.1125280              0.1298800
     13.7834000              0.0450160              0.3279510
      5.4521500              0.5893530              0.4535270
      2.2258800              0.4652060              0.2521540
SP   3   1.00
      3.1864900             -0.2518300             -0.0142990
      1.1442700              0.0615890              0.3235720
      0.4203770              1.0601800              0.7435070
SP   1   1.00
      0.1426570              1.0000000              1.0000000
D    1   1.00
      1.5000000              1.0000000
D    1   1.00
      0.3750000              1.0000000
F    1   1.00
      0.7000000              1.0000000
****
}

set {
reference uhf
freeze_core true
e_convergence 10
d_convergence 10
dft_spherical_points 1202
dft_radial_points 99
}

e = energy('b3lyp')

print_out('Grab this energy {0}'.format(e))
--------------------------------------------------------------------------

    Molecular point group: c1

    Geometry (in Bohr), charge = 0, multiplicity = 2:

       Center              X                  Y                   Z               Mass
    ------------   -----------------  -----------------  -----------------  -----------------
         C           -0.323340473107    -0.000002313651     0.001885570329    12.000000000000
         C            0.062268240293    -1.399930234351    -2.426704943171    12.000000000000
         C            0.061019106393     2.801756893149    -0.001962184671    12.000000000000
         C            0.060012751593    -1.401822051751     2.426056879229    12.000000000000
         H            2.086833731693    -1.644459868551    -2.846532547471     1.007825032230
         H           -0.765917466207    -0.388492314051    -4.024699385171     1.007825032230
         H           -0.765798042507    -3.292031722451    -2.348189670471     1.007825032230
         H            2.086795853193     3.288095989349     0.001542259829     1.007825032230
         H           -0.765360317707     3.680114854249     1.677558003029     1.007825032230
         H           -0.765928224907     3.680383287049    -1.675446833071     1.007825032230
         H            2.087041816493    -1.643728376551     2.848350289329     1.007825032230
         H           -0.765339589107    -3.291964236351     2.349784862429     1.007825032230
         H           -0.764891009307    -0.387944919751     4.026261641729     1.007825032230

  Charge       = 0
  Multiplicity = 2
  Basis Set: ANONYMOUSDC736FD3
    Blend: 6-31G_2DFP_
  Basis Set: (ANONYMOUSDC736FD3 AUX)
    Blend: DEF2-UNIVERSAL-JKFIT

    Orbital Energies [Eh]
    ---------------------

    Alpha Occupied:

       1A    -10.180342     2A    -10.167075     3A    -10.167017
       4A    -10.166953     5A     -0.797766     6A     -0.686299
       7A     -0.686074     8A     -0.530776     9A     -0.441130
      10A     -0.434778    11A     -0.434559    12A     -0.382713
      13A     -0.382488    14A     -0.363610    15A     -0.338376
      16A     -0.337620    17A     -0.168961

    Alpha Virtual:

      18A      0.076072    19A      0.134151    20A      0.134161
      21A      0.142625    22A      0.142629    23A      0.154881
      24A      0.178614    25A      0.178942    26A      0.203547
      27A      0.214803    28A      0.275804    29A      0.276166
      30A      0.398962    31A      0.399494    32A      0.403346
      33A      0.424054    34A      0.424140    35A      0.456593
      36A      0.495383    37A      0.495396    38A      0.512160
      39A      0.513979    40A      0.578773    41A      0.578862
      42A      0.591533    43A      0.591735    44A      0.602570
      45A      0.624757    46A      0.631774    47A      0.636145
      48A      0.636356    49A      0.663332    50A      0.663492
      51A      0.683716    52A      0.683991    53A      0.734995
      54A      0.825396    55A      0.825417    56A      0.853917
      57A      0.914900    58A      0.915152    59A      0.944127
      60A      0.944612    61A      0.961274    62A      0.961308
      63A      1.003454    64A      1.127990    65A      1.128232
      66A      1.142206    67A      1.163158    68A      1.163393
      69A      1.223316    70A      1.274455    71A      1.274532
      72A      1.279352    73A      1.324159    74A      1.324552
      75A      1.355986    76A      1.365988    77A      1.366124
      78A      1.392446    79A      1.403936    80A      1.404179
      81A      1.417079    82A      1.417140    83A      1.427922
      84A      1.491493    85A      1.499082    86A      1.542696
      87A      1.542953    88A      1.574289    89A      1.574616
      90A      1.669811    91A      1.739107    92A      1.739703
      93A      1.768371    94A      1.831268    95A      1.831521
      96A      1.971730    97A      2.017997    98A      2.018308
      99A      2.020091   100A      2.051661   101A      2.053609
     102A      2.738477   103A      2.738493   104A      2.790924
     105A      2.811431   106A      2.889012   107A      2.890897
     108A      2.894940   109A      2.929297   110A      2.929694
     111A      2.958992   112A      2.963981   113A      2.964775
     114A      3.034010   115A      3.071032   116A      3.071535
     117A      3.084354   118A      3.168539   119A      3.169019
     120A      3.180590   121A      3.285129   122A      3.285497
     123A      3.326961   124A      3.327361   125A      3.375618
     126A      3.489808   127A      3.490505   128A      3.514021
     129A      3.525321   130A      3.568173   131A      3.568592
     132A      3.575155   133A      3.666280   134A      3.666463
     135A      3.679689   136A      3.694097   137A      3.694154
     138A      3.776758   139A      3.776859   140A      3.789117
     141A      3.911785   142A      3.912654   143A      4.034455
     144A      4.111244   145A      4.111507   146A      4.147885
     147A      4.148372   148A      4.173248   149A      4.202320
     150A      4.203026   151A      4.203445   152A      4.210849
     153A      4.314732   154A      4.317170   155A      4.358984
     156A      4.423982   157A      4.424857   158A      4.443484
     159A      4.515976   160A      4.517710   161A      4.577775
     162A      4.578771   163A      4.617529   164A      4.709456
     165A      4.773926   166A      4.775253   167A      4.836922
     168A      4.962862   169A      5.002209   170A      5.003677
     171A      5.228028   172A      5.246607   173A      5.247043
     174A      5.355215   175A      5.355793   176A      5.479354

    Beta Occupied:

       1A    -10.167833     2A    -10.167776     3A    -10.167716
       4A    -10.166519     5A     -0.781091     6A     -0.684099
       7A     -0.683879     8A     -0.511747     9A     -0.431165
      10A     -0.430923    11A     -0.421817    12A     -0.376800
      13A     -0.376572    14A     -0.362593    15A     -0.333500
      16A     -0.332742

    Beta Virtual:

      17A     -0.025742    18A      0.077081    19A      0.135020
      20A      0.135071    21A      0.144485    22A      0.144510
      23A      0.163339    24A      0.182295    25A      0.182603
      26A      0.215032    27A      0.218929    28A      0.282169
      29A      0.282497    30A      0.400131    31A      0.400666
      32A      0.419790    33A      0.426863    34A      0.426953
      35A      0.468501    36A      0.497642    37A      0.497658
      38A      0.513895    39A      0.556324    40A      0.584328
      41A      0.584407    42A      0.597717    43A      0.597910
      44A      0.609994    45A      0.628133    46A      0.631931
      47A      0.639426    48A      0.639645    49A      0.666915
      50A      0.667037    51A      0.686350    52A      0.686627
      53A      0.757518    54A      0.830564    55A      0.830587
      56A      0.855270    57A      0.922873    58A      0.923122
      59A      0.945963    60A      0.953540    61A      0.966565
      62A      0.966629    63A      1.008694    64A      1.131991
      65A      1.132287    66A      1.155575    67A      1.168271
      68A      1.168434    69A      1.232289    70A      1.280031
      71A      1.280151    72A      1.285106    73A      1.329148
      74A      1.329541    75A      1.365403    76A      1.371256
      77A      1.371342    78A      1.393504    79A      1.407405
      80A      1.407641    81A      1.422122    82A      1.422193
      83A      1.428196    84A      1.492541    85A      1.509525
      86A      1.547022    87A      1.547444    88A      1.582115
      89A      1.582533    90A      1.674659    91A      1.744877
      92A      1.745461    93A      1.779144    94A      1.835121
      95A      1.835378    96A      1.972590    97A      2.024407
      98A      2.026497    99A      2.039672   100A      2.058380
     101A      2.060319   102A      2.746814   103A      2.746827
     104A      2.811843   105A      2.816060   106A      2.901723
     107A      2.903563   108A      2.924646   109A      2.931748
     110A      2.932207   111A      2.960056   112A      2.968540
     113A      2.969302   114A      3.041946   115A      3.080936
     116A      3.081443   117A      3.086179   118A      3.184291
     119A      3.184770   120A      3.188270   121A      3.289948
     122A      3.290275   123A      3.330739   124A      3.331192
     125A      3.383436   126A      3.492523   127A      3.493249
     128A      3.512386   129A      3.528367   130A      3.574986
     131A      3.581634   132A      3.581841   133A      3.671062
     134A      3.671193   135A      3.692970   136A      3.725434
     137A      3.726076   138A      3.781311   139A      3.781361
     140A      3.817662   141A      3.921565   142A      3.922508
     143A      4.045342   144A      4.118007   145A      4.118376
     146A      4.155083   147A      4.155587   148A      4.187311
     149A      4.208792   150A      4.209093   151A      4.210752
     152A      4.215321   153A      4.322115   154A      4.324667
     155A      4.362348   156A      4.432177   157A      4.433070
     158A      4.446389   159A      4.523755   160A      4.525510
     161A      4.588413   162A      4.589336   163A      4.624722
     164A      4.719801   165A      4.780916   166A      4.782168
     167A      4.839840   168A      4.967657   169A      5.006265
     170A      5.007699   171A      5.233741   172A      5.248401
     173A      5.248821   174A      5.361677   175A      5.362292
     176A      5.481676

    Final Occupation by Irrep:
              A
    DOCC [    16 ]
    SOCC [     1 ]

  @DF-UKS Final Energy:  -157.81306886784549

   => Energetics <=

    Nuclear Repulsion Energy =            125.3946218700441761
    One-Electron Energy =                -458.7489062930049499
    Two-Electron Energy =                 195.8483580479187935
    DFT Exchange-Correlation Energy =     -20.3071424928035391
    Empirical Dispersion Energy =           0.0000000000000000
    VV10 Nonlocal Energy =                  0.0000000000000000
    Total Energy =                       -157.8130688678454874

  UHF NO Occupations:
  HONO-2 :   15  A 1.9996009
  HONO-1 :   16  A 1.9989805
  HONO-0 :   17  A 1.0000000
  LUNO+0 :   18  A 0.0010195
  LUNO+1 :   19  A 0.0003991
  LUNO+2 :   20  A 0.0001981
  LUNO+3 :   21  A 0.0001970

Computation Completed

Properties will be evaluated at   0.000000,   0.000000,   0.000000 [a0]

Properties computed using the SCF density matrix

  Nuclear Dipole Moment: [e a0]
     X:     0.8272      Y:    -0.0000      Z:     0.0043

  Electronic Dipole Moment: [e a0]
     X:    -0.7493      Y:     0.0000      Z:    -0.0041

  Dipole Moment: [e a0]
     X:     0.0779      Y:     0.0000      Z:     0.0002     Total:     0.0779

  Dipole Moment: [D]
     X:     0.1980      Y:     0.0000      Z:     0.0004     Total:     0.1980

*** tstop() called on n089 at Fri Nov  5 11:58:55 2021
Module time:
	user time   =     503.28 seconds =       8.39 minutes
	system time =       4.64 seconds =       0.08 minutes
	total time  =        128 seconds =       2.13 minutes
Total time:
	user time   =     503.28 seconds =       8.39 minutes
	system time =       4.64 seconds =       0.08 minutes
	total time  =        128 seconds =       2.13 minutes
Grab this energy -157.8130688678455
    Psi4 stopped on: Friday, 05 November 2021 11:58AM
    Psi4 wall time for execution: 0:02:07.76

*** Psi4 exiting successfully. Buy a developer a beer!
