                               Psi4 1.4a2.dev629

  ==> Input File <==

--------------------------------------------------------------------------
import os
memory 14 GB

molecule {
 C   -0.3233294014   -0.0000021526   -0.0000000000
 C    0.0610505555   -1.4003869768   -2.4255305576
 C    0.0609308937    2.8007792410   -0.0000000000
 C    0.0610505555   -1.4003869768    2.4255305576
 H    2.0837313765   -1.6445259711   -2.8481831787
 H   -0.7637596200   -0.3908684640   -4.0242791544
 H   -0.7639226460   -3.2896348104   -2.3506789595
 H    2.0835927608    3.2889592869    0.0000000000
 H   -0.7640007310    3.6805358780    1.6736068736
 H   -0.7640007310    3.6805358780   -1.6736068736
 H    2.0837313765   -1.6445259711    2.8481831787
 H   -0.7639226460   -3.2896348104    2.3506789595
 H   -0.7637596200   -0.3908684640    4.0242791544
units bohr
0 2
}

basis {

assign 6-31g_2dfp_

[ 6-31g_2dfp_ ]

spherical

!----------------------------------------------------------------------
! Basis Set Exchange
! Version v0.8.13
! https://www.basissetexchange.org
!----------------------------------------------------------------------
!   Basis set: 6-31G(2df,p)
! Description: 6-31G(2df,p)
!        Role: orbital
!     Version: 0  (Data from the original Basis Set Exchange)
!----------------------------------------------------------------------

****
H     0
S    3   1.00
     18.7311370              0.03349460
      2.8253937              0.23472695
      0.6401217              0.81375733
S    1   1.00
      0.1612778              1.00000000
P    1   1.00
      1.5000000              1.0000000
P    1   1.00
      0.3750000              1.0000000
****
B     0
S    6   1.00
   2068.8823000              0.0018663
    310.6495700              0.0142515
     70.6830330              0.0695516
     19.8610800              0.2325729
      6.2993048              0.4670787
      2.1270270              0.3634314
SP   3   1.00
      4.7279710             -0.1303938              0.0745976
      1.1903377             -0.1307889              0.3078467
      0.3594117              1.1309444              0.7434568
SP   1   1.00
      0.1267512              1.0000000              1.0000000
D    1   1.00
      0.8020000              1.0000000
D    1   1.00
      0.2005000              1.0000000
F    1   1.00
      0.5000000              1.0000000
****
C     0
S    6   1.00
   3047.5249000              0.0018347
    457.3695100              0.0140373
    103.9486900              0.0688426
     29.2101550              0.2321844
      9.2866630              0.4679413
      3.1639270              0.3623120
SP   3   1.00
      7.8682724             -0.1193324              0.0689991
      1.8812885             -0.1608542              0.3164240
      0.5442493              1.1434564              0.7443083
SP   1   1.00
      0.1687144              1.0000000              1.0000000
D    1   1.00
      1.2520000              1.0000000
D    1   1.00
      0.3130000              1.0000000
F    1   1.00
      0.8000000              1.0000000
****
N     0
S    6   1.00
   4173.5110000              0.0018348
    627.4579000              0.0139950
    142.9021000              0.0685870
     40.2343300              0.2322410
     12.8202100              0.4690700
      4.3904370              0.3604550
SP   3   1.00
     11.6263580             -0.1149610              0.0675800
      2.7162800             -0.1691180              0.3239070
      0.7722180              1.1458520              0.7408950
SP   1   1.00
      0.2120313              1.0000000              1.0000000
D    1   1.00
      1.8260000              1.0000000
D    1   1.00
      0.4565000              1.0000000
F    1   1.00
      1.0000000              1.0000000
****
O     0
S    6   1.00
   5484.6717000              0.0018311
    825.2349500              0.0139501
    188.0469600              0.0684451
     52.9645000              0.2327143
     16.8975700              0.4701930
      5.7996353              0.3585209
SP   3   1.00
     15.5396160             -0.1107775              0.0708743
      3.5999336             -0.1480263              0.3397528
      1.0137618              1.1307670              0.7271586
SP   1   1.00
      0.2700058              1.0000000              1.0000000
D    1   1.00
      2.5840000              1.0000000
D    1   1.00
      0.6460000              1.0000000
F    1   1.00
      1.4000000              1.0000000
****
F     0
S    6   1.00
   7001.7130900              0.0018196169
   1051.3660900              0.0139160796
    239.2856900              0.0684053245
     67.3974453              0.233185760
     21.5199573              0.471267439
      7.40310130             0.356618546
SP   3   1.00
     20.8479528             -0.108506975            0.0716287243
      4.80830834            -0.146451658            0.3459121030
      1.34406986             1.128688580            0.7224699570
SP   1   1.00
      0.358151393            1.0000000              1.0000000
D    1   1.00
      3.5000000              1.0000000
D    1   1.00
      0.8750000              1.0000000
F    1   1.00
      1.8500000              1.0000000
****
Al     0
S    6   1.00
  13983.1000000              0.00194267
   2098.7500000              0.0148599
    477.7050000              0.0728494
    134.3600000              0.2468300
     42.8709000              0.4872580
     14.5189000              0.3234960
SP   6   1.00
    239.6680000             -0.00292619             0.00460285
     57.4419000             -0.0374080              0.0331990
     18.2859000             -0.1144870              0.1362820
      6.5991400              0.1156350              0.3304760
      2.4904900              0.6125950              0.4491460
      0.9445400              0.3937990              0.2657040
SP   3   1.00
      1.2779000             -0.2276060             -0.0175130
      0.3975900              0.00144583             0.2445330
      0.1600950              1.0927900              0.8049340
SP   1   1.00
      0.0556577              1.0000000              1.0000000
D    1   1.00
      0.6500000              1.0000000
D    1   1.00
      0.1625000              1.0000000
F    1   1.00
      0.2500000              1.0000000
****
Si     0
S    6   1.00
  16115.9000000              0.00195948
   2425.5800000              0.01492880
    553.8670000              0.07284780
    156.3400000              0.24613000
     50.0683000              0.48591400
     17.0178000              0.32500200
SP   6   1.00
    292.7180000             -0.00278094             0.00443826
     69.8731000             -0.03571460             0.03266790
     22.3363000             -0.11498500             0.13472100
      8.1503900              0.09356340             0.32867800
      3.1345800              0.60301700             0.44964000
      1.2254300              0.41895900             0.26137200
SP   3   1.00
      1.7273800             -0.24463000            -0.01779510
      0.5729220              0.00431572             0.25353900
      0.2221920              1.09818000             0.80066900
SP   1   1.00
      0.0778369              1.00000000             1.00000000
D    1   1.00
      0.9000000              1.0000000
D    1   1.00
      0.2250000              1.0000000
F    1   1.00
      0.3200000              1.0000000
****
P     0
S    6   1.00
  19413.3000000              0.0018516
   2909.4200000              0.0142062
    661.3640000              0.0699995
    185.7590000              0.2400790
     59.1943000              0.4847620
     20.0310000              0.3352000
SP   6   1.00
    339.4780000             -0.00278217             0.00456462
     81.0101000             -0.0360499              0.03369360
     25.8780000             -0.1166310              0.13975500
      9.4522100              0.0968328              0.33936200
      3.6656600              0.6144180              0.45092100
      1.4674600              0.4037980              0.23858600
SP   3   1.00
      2.1562300             -0.2529230             -0.01776530
      0.7489970              0.0328517              0.27405800
      0.2831450              1.0812500              0.78542100
SP   1   1.00
      0.0998317              1.0000000              1.00000000
D    1   1.00
      1.1000000              1.0000000
D    1   1.00
      0.2750000              1.0000000
F    1   1.00
      0.4500000              1.0000000
****
S     0
S    6   1.00
  21917.1000000              0.0018690
   3301.4900000              0.0142300
    754.1460000              0.0696960
    212.7110000              0.2384870
     67.9896000              0.4833070
     23.0515000              0.3380740
SP   6   1.00
    423.7350000             -0.0023767              0.0040610
    100.7100000             -0.0316930              0.0306810
     32.1599000             -0.1133170              0.1304520
     11.8079000              0.0560900              0.3272050
      4.6311000              0.5922550              0.4528510
      1.8702500              0.4550060              0.2560420
SP   3   1.00
      2.6158400             -0.2503740             -0.0145110
      0.9221670              0.0669570              0.3102630
      0.3412870              1.0545100              0.7544830
SP   1   1.00
      0.1171670              1.0000000              1.0000000
D    1   1.00
      1.3000000              1.0000000
D    1   1.00
      0.3250000              1.0000000
F    1   1.00
      0.5500000              1.0000000
****
Cl     0
S    6   1.00
  25180.1000000              0.0018330
   3780.3500000              0.0140340
    860.4740000              0.0690970
    242.1450000              0.2374520
     77.3349000              0.4830340
     26.2470000              0.3398560
SP   6   1.00
    491.7650000             -0.0022974              0.0039894
    116.9840000             -0.0307140              0.0303180
     37.4153000             -0.1125280              0.1298800
     13.7834000              0.0450160              0.3279510
      5.4521500              0.5893530              0.4535270
      2.2258800              0.4652060              0.2521540
SP   3   1.00
      3.1864900             -0.2518300             -0.0142990
      1.1442700              0.0615890              0.3235720
      0.4203770              1.0601800              0.7435070
SP   1   1.00
      0.1426570              1.0000000              1.0000000
D    1   1.00
      1.5000000              1.0000000
D    1   1.00
      0.3750000              1.0000000
F    1   1.00
      0.7000000              1.0000000
****
}

set {
reference uhf
freeze_core true
e_convergence 10
d_convergence 10
dft_spherical_points 1202
dft_radial_points 99
}

e = energy('b3lyp')

print_out('Grab this energy {0}'.format(e))
--------------------------------------------------------------------------

    Molecular point group: cs

    Geometry (in Bohr), charge = 0, multiplicity = 2:

       Center              X                  Y                   Z               Mass
    ------------   -----------------  -----------------  -----------------  -----------------
         C           -0.323279822019    -0.000002327029     0.000000000000    12.000000000000
         C            0.061100134881    -1.400387151229    -2.425530557600    12.000000000000
         C            0.060980473081     2.800779066571     0.000000000000    12.000000000000
         C            0.061100134881    -1.400387151229     2.425530557600    12.000000000000
         H            2.083780955881    -1.644526145529    -2.848183178700     1.007825032230
         H           -0.763710040619    -0.390868638429    -4.024279154400     1.007825032230
         H           -0.763873066619    -3.289634984829    -2.350678959500     1.007825032230
         H            2.083642340181     3.288959112471     0.000000000000     1.007825032230
         H           -0.763951151619     3.680535703571     1.673606873600     1.007825032230
         H           -0.763951151619     3.680535703571    -1.673606873600     1.007825032230
         H            2.083780955881    -1.644526145529     2.848183178700     1.007825032230
         H           -0.763873066619    -3.289634984829     2.350678959500     1.007825032230
         H           -0.763710040619    -0.390868638429     4.024279154400     1.007825032230

  Charge       = 0
  Multiplicity = 2
  Basis Set: ANONYMOUSB9632932
    Blend: 6-31G_2DFP_
  Basis Set: (ANONYMOUSB9632932 AUX)
    Blend: DEF2-UNIVERSAL-JKFIT

    Orbital Energies [Eh]
    ---------------------

    Alpha Occupied:

       1Ap   -10.180222     2Ap   -10.166547     1App  -10.166547
       3Ap   -10.166501     4Ap    -0.797983     5Ap    -0.686556
       2App   -0.686556     6Ap    -0.531254     7Ap    -0.441234
       3App   -0.434878     8Ap    -0.434877     9Ap    -0.382720
       4App   -0.382719     5App   -0.363725     6App   -0.338165
      10Ap    -0.338165    11Ap    -0.168920

    Alpha Virtual:

      12Ap     0.076396    13Ap     0.134463     7App    0.134464
      14Ap     0.142906     8App    0.142906    15Ap     0.155283
      16Ap     0.179120     9App    0.179120    17Ap     0.203727
      10App    0.215133    11App    0.276249    18Ap     0.276251
      19Ap     0.399166    12App    0.399170    20Ap     0.403460
      13App    0.424317    21Ap     0.424317    22Ap     0.456906
      23Ap     0.495605    14App    0.495606    15App    0.512377
      24Ap     0.514053    25Ap     0.579108    16App    0.579116
      17App    0.592135    26Ap     0.592137    27Ap     0.603179
      28Ap     0.625623    18App    0.632247    19App    0.636863
      29Ap     0.636866    30Ap     0.663862    20App    0.663863
      31Ap     0.684389    21App    0.684390    32Ap     0.735172
      22App    0.826244    33Ap     0.826247    23App    0.854568
      24App    0.915695    34Ap     0.915701    25App    0.944799
      35Ap     0.945716    26App    0.961873    36Ap     0.961889
      37Ap     1.003383    38Ap     1.128599    27App    1.128612
      39Ap     1.143511    40Ap     1.162909    28App    1.162922
      41Ap     1.224197    42Ap     1.275157    29App    1.275160
      43Ap     1.279060    30App    1.325264    44Ap     1.325267
      45Ap     1.357190    31App    1.366692    46Ap     1.366696
      32App    1.392550    47Ap     1.404359    33App    1.404361
      34App    1.418022    48Ap     1.418029    35App    1.428398
      36App    1.492916    49Ap     1.499849    37App    1.543485
      50Ap     1.543486    51Ap     1.574735    38App    1.574737
      52Ap     1.671200    53Ap     1.741353    39App    1.741364
      54Ap     1.769816    40App    1.833453    55Ap     1.833453
      41App    1.973954    56Ap     2.019162    57Ap     2.020986
      42App    2.020990    58Ap     2.054150    43App    2.054151
      44App    2.739638    59Ap     2.739639    60Ap     2.791355
      45App    2.812027    61Ap     2.890614    46App    2.890620
      62Ap     2.895424    63Ap     2.929717    47App    2.929725
      48App    2.959571    64Ap     2.965004    49App    2.965018
      65Ap     3.035097    50App    3.072178    66Ap     3.072192
      51App    3.085686    67Ap     3.168225    52App    3.168233
      68Ap     3.181476    53App    3.284943    69Ap     3.284944
      70Ap     3.326900    54App    3.326906    71Ap     3.374815
      55App    3.489250    72Ap     3.489270    56App    3.513875
      73Ap     3.525070    57App    3.568810    74Ap     3.568830
      58App    3.573333    75Ap     3.666324    59App    3.666332
      76Ap     3.680888    60App    3.694837    77Ap     3.694853
      78Ap     3.777385    61App    3.777412    79Ap     3.789385
      80Ap     3.914275    62App    3.914282    81Ap     4.037353
      82Ap     4.113551    63App    4.113556    83Ap     4.151452
      64App    4.151460    84Ap     4.176901    85Ap     4.204959
      65App    4.205182    86Ap     4.205185    66App    4.214907
      87Ap     4.318081    67App    4.318101    68App    4.360754
      88Ap     4.425857    69App    4.425860    70App    4.443469
      71App    4.519599    89Ap     4.519600    72App    4.580462
      90Ap     4.580474    91Ap     4.618588    92Ap     4.712764
      93Ap     4.777161    73App    4.777169    74App    4.840559
      94Ap     4.962347    75App    5.003163    95Ap     5.003176
      96Ap     5.232801    76App    5.251820    97Ap     5.251820
      98Ap     5.360249    77App    5.360263    78App    5.483802

    Beta Occupied:

       1Ap   -10.167298     1App  -10.167298     2Ap   -10.167281
       3Ap   -10.166392     4Ap    -0.781321     5Ap    -0.684351
       2App   -0.684351     6Ap    -0.512213     3App   -0.431238
       7Ap    -0.431238     8Ap    -0.421924     9Ap    -0.376798
       4App   -0.376796     5App   -0.362709     6App   -0.333293
      10Ap    -0.333293

    Beta Virtual:

      11Ap    -0.025679    12Ap     0.077404    13Ap     0.135369
       7App    0.135370    14Ap     0.144750     8App    0.144750
      15Ap     0.163722    16Ap     0.182796     9App    0.182797
      10App    0.215363    17Ap     0.219080    11App    0.282587
      18Ap     0.282589    19Ap     0.400337    12App    0.400341
      20Ap     0.419930    13App    0.427132    21Ap     0.427132
      22Ap     0.468873    23Ap     0.497871    14App    0.497872
      15App    0.514115    24Ap     0.556426    25Ap     0.584673
      16App    0.584682    17App    0.598326    26Ap     0.598327
      27Ap     0.610585    28Ap     0.629023    18App    0.632401
      19App    0.640144    29Ap     0.640148    30Ap     0.667433
      20App    0.667434    31Ap     0.686999    21App    0.687000
      32Ap     0.757644    22App    0.831426    33Ap     0.831428
      23App    0.855909    24App    0.923649    34Ap     0.923656
      25App    0.946642    35Ap     0.954680    26App    0.967180
      36Ap     0.967196    37Ap     1.008625    38Ap     1.132607
      27App    1.132619    39Ap     1.156920    40Ap     1.168002
      28App    1.168015    41Ap     1.233094    42Ap     1.280774
      29App    1.280778    43Ap     1.284777    30App    1.330302
      44Ap     1.330304    45Ap     1.366641    31App    1.371871
      46Ap     1.371875    32App    1.393610    47Ap     1.407854
      33App    1.407857    34App    1.423074    48Ap     1.423080
      35App    1.428643    36App    1.493982    49Ap     1.510315
      50Ap     1.547784    37App    1.547785    38App    1.582697
      51Ap     1.582698    52Ap     1.676115    53Ap     1.747118
      39App    1.747130    54Ap     1.780580    40App    1.837302
      55Ap     1.837303    41App    1.974817    56Ap     2.027432
      42App    2.027437    57Ap     2.040524    58Ap     2.060822
      43App    2.060823    44App    2.747954    59Ap     2.747956
      45App    2.812440    60Ap     2.816483    61Ap     2.903308
      46App    2.903314    62Ap     2.925212    63Ap     2.932173
      47App    2.932182    48App    2.960636    64Ap     2.969621
      49App    2.969635    65Ap     3.042994    50App    3.082195
      66Ap     3.082207    51App    3.087514    67Ap     3.183839
      52App    3.183844    68Ap     3.189177    69Ap     3.289736
      53App    3.289736    70Ap     3.330706    54App    3.330712
      71Ap     3.382690    55App    3.492034    72Ap     3.492054
      56App    3.512242    73Ap     3.528094    57App    3.573193
      58App    3.582098    74Ap     3.582120    75Ap     3.671156
      59App    3.671167    76Ap     3.694242    60App    3.726434
      77Ap     3.726449    78Ap     3.781957    61App    3.781983
      79Ap     3.817906    80Ap     3.924039    62App    3.924047
      81Ap     4.048287    82Ap     4.120540    63App    4.120542
      83Ap     4.158573    64App    4.158582    84Ap     4.190870
      65App    4.211114    85Ap     4.211117    86Ap     4.212897
      66App    4.219370    87Ap     4.325347    67App    4.325368
      68App    4.364128    88Ap     4.434112    69App    4.434115
      70App    4.446332    71App    4.527442    89Ap     4.527443
      72App    4.591049    90Ap     4.591061    91Ap     4.625792
      92Ap     4.723106    93Ap     4.784109    73App    4.784116
      74App    4.843478    94Ap     4.967136    75App    5.007206
      95Ap     5.007219    96Ap     5.238509    76App    5.253608
      97Ap     5.253608    98Ap     5.366731    77App    5.366744
      78App    5.486119

    Final Occupation by Irrep:
             Ap   App
    DOCC [    10,    6 ]
    SOCC [     1,    0 ]

  @DF-UKS Final Energy:  -157.81304925180567

   => Energetics <=

    Nuclear Repulsion Energy =            125.4599605484853697
    One-Electron Energy =                -458.8747708273532453
    Two-Electron Energy =                 195.9128144286117958
    DFT Exchange-Correlation Energy =     -20.3110534015495787
    Empirical Dispersion Energy =           0.0000000000000000
    VV10 Nonlocal Energy =                  0.0000000000000000
    Total Energy =                       -157.8130492518056656

  UHF NO Occupations:
  HONO-2 :    9 Ap 1.9996018
  HONO-1 :   10 Ap 1.9989820
  HONO-0 :   11 Ap 1.0000000
  LUNO+0 :   12 Ap 0.0010180
  LUNO+1 :   13 Ap 0.0003982
  LUNO+2 :    7App 0.0001971
  LUNO+3 :   14 Ap 0.0001971

Computation Completed

Properties will be evaluated at   0.000000,   0.000000,   0.000000 [a0]

Properties computed using the SCF density matrix

  Nuclear Dipole Moment: [e a0]
     X:     0.8275      Y:    -0.0000      Z:     0.0000

  Electronic Dipole Moment: [e a0]
     X:    -0.7491      Y:     0.0000      Z:     0.0000

  Dipole Moment: [e a0]
     X:     0.0784      Y:    -0.0000      Z:     0.0000     Total:     0.0784

  Dipole Moment: [D]
     X:     0.1993      Y:    -0.0000      Z:     0.0000     Total:     0.1993

*** tstop() called on n056 at Fri Nov  5 13:23:38 2021
Module time:
	user time   =     546.14 seconds =       9.10 minutes
	system time =      12.15 seconds =       0.20 minutes
	total time  =        141 seconds =       2.35 minutes
Total time:
	user time   =     546.14 seconds =       9.10 minutes
	system time =      12.15 seconds =       0.20 minutes
	total time  =        141 seconds =       2.35 minutes
Grab this energy -157.81304925180567
    Psi4 stopped on: Friday, 05 November 2021 01:23PM
    Psi4 wall time for execution: 0:02:20.42

*** Psi4 exiting successfully. Buy a developer a beer!
