                               Psi4 1.4a2.dev629

  ==> Input File <==

--------------------------------------------------------------------------
import os
memory 14 GB

molecule {
 C   -0.3233397155    0.0002229238   -0.0004332302
 C    0.0614922047   -1.4004344297   -2.4278397094
 C    0.0608539748    2.7994899620   -0.0013883248
 C    0.0609558023   -1.4017299347    2.4273040785
 H    2.0861890161   -1.6425570991   -2.8479480746
 H   -0.7636178125   -0.3881227397   -4.0245010903
 H   -0.7668811869   -3.2938482743   -2.3478981076
 H    2.0867150055    3.2887891280   -0.0034940003
 H   -0.7687215219    3.6818236301    1.6787343314
 H   -0.7623116309    3.6800065216   -1.6739518408
 H    2.0877666679   -1.6455766246    2.8461823484
 H   -0.7642804897   -3.2900809569    2.3493282082
 H   -0.7674281907   -0.3880064202    4.0259054116
units bohr
0 2
}

basis {

assign 6-31g_2dfp_

[ 6-31g_2dfp_ ]

spherical

!----------------------------------------------------------------------
! Basis Set Exchange
! Version v0.8.13
! https://www.basissetexchange.org
!----------------------------------------------------------------------
!   Basis set: 6-31G(2df,p)
! Description: 6-31G(2df,p)
!        Role: orbital
!     Version: 0  (Data from the original Basis Set Exchange)
!----------------------------------------------------------------------

****
H     0
S    3   1.00
     18.7311370              0.03349460
      2.8253937              0.23472695
      0.6401217              0.81375733
S    1   1.00
      0.1612778              1.00000000
P    1   1.00
      1.5000000              1.0000000
P    1   1.00
      0.3750000              1.0000000
****
B     0
S    6   1.00
   2068.8823000              0.0018663
    310.6495700              0.0142515
     70.6830330              0.0695516
     19.8610800              0.2325729
      6.2993048              0.4670787
      2.1270270              0.3634314
SP   3   1.00
      4.7279710             -0.1303938              0.0745976
      1.1903377             -0.1307889              0.3078467
      0.3594117              1.1309444              0.7434568
SP   1   1.00
      0.1267512              1.0000000              1.0000000
D    1   1.00
      0.8020000              1.0000000
D    1   1.00
      0.2005000              1.0000000
F    1   1.00
      0.5000000              1.0000000
****
C     0
S    6   1.00
   3047.5249000              0.0018347
    457.3695100              0.0140373
    103.9486900              0.0688426
     29.2101550              0.2321844
      9.2866630              0.4679413
      3.1639270              0.3623120
SP   3   1.00
      7.8682724             -0.1193324              0.0689991
      1.8812885             -0.1608542              0.3164240
      0.5442493              1.1434564              0.7443083
SP   1   1.00
      0.1687144              1.0000000              1.0000000
D    1   1.00
      1.2520000              1.0000000
D    1   1.00
      0.3130000              1.0000000
F    1   1.00
      0.8000000              1.0000000
****
N     0
S    6   1.00
   4173.5110000              0.0018348
    627.4579000              0.0139950
    142.9021000              0.0685870
     40.2343300              0.2322410
     12.8202100              0.4690700
      4.3904370              0.3604550
SP   3   1.00
     11.6263580             -0.1149610              0.0675800
      2.7162800             -0.1691180              0.3239070
      0.7722180              1.1458520              0.7408950
SP   1   1.00
      0.2120313              1.0000000              1.0000000
D    1   1.00
      1.8260000              1.0000000
D    1   1.00
      0.4565000              1.0000000
F    1   1.00
      1.0000000              1.0000000
****
O     0
S    6   1.00
   5484.6717000              0.0018311
    825.2349500              0.0139501
    188.0469600              0.0684451
     52.9645000              0.2327143
     16.8975700              0.4701930
      5.7996353              0.3585209
SP   3   1.00
     15.5396160             -0.1107775              0.0708743
      3.5999336             -0.1480263              0.3397528
      1.0137618              1.1307670              0.7271586
SP   1   1.00
      0.2700058              1.0000000              1.0000000
D    1   1.00
      2.5840000              1.0000000
D    1   1.00
      0.6460000              1.0000000
F    1   1.00
      1.4000000              1.0000000
****
F     0
S    6   1.00
   7001.7130900              0.0018196169
   1051.3660900              0.0139160796
    239.2856900              0.0684053245
     67.3974453              0.233185760
     21.5199573              0.471267439
      7.40310130             0.356618546
SP   3   1.00
     20.8479528             -0.108506975            0.0716287243
      4.80830834            -0.146451658            0.3459121030
      1.34406986             1.128688580            0.7224699570
SP   1   1.00
      0.358151393            1.0000000              1.0000000
D    1   1.00
      3.5000000              1.0000000
D    1   1.00
      0.8750000              1.0000000
F    1   1.00
      1.8500000              1.0000000
****
Al     0
S    6   1.00
  13983.1000000              0.00194267
   2098.7500000              0.0148599
    477.7050000              0.0728494
    134.3600000              0.2468300
     42.8709000              0.4872580
     14.5189000              0.3234960
SP   6   1.00
    239.6680000             -0.00292619             0.00460285
     57.4419000             -0.0374080              0.0331990
     18.2859000             -0.1144870              0.1362820
      6.5991400              0.1156350              0.3304760
      2.4904900              0.6125950              0.4491460
      0.9445400              0.3937990              0.2657040
SP   3   1.00
      1.2779000             -0.2276060             -0.0175130
      0.3975900              0.00144583             0.2445330
      0.1600950              1.0927900              0.8049340
SP   1   1.00
      0.0556577              1.0000000              1.0000000
D    1   1.00
      0.6500000              1.0000000
D    1   1.00
      0.1625000              1.0000000
F    1   1.00
      0.2500000              1.0000000
****
Si     0
S    6   1.00
  16115.9000000              0.00195948
   2425.5800000              0.01492880
    553.8670000              0.07284780
    156.3400000              0.24613000
     50.0683000              0.48591400
     17.0178000              0.32500200
SP   6   1.00
    292.7180000             -0.00278094             0.00443826
     69.8731000             -0.03571460             0.03266790
     22.3363000             -0.11498500             0.13472100
      8.1503900              0.09356340             0.32867800
      3.1345800              0.60301700             0.44964000
      1.2254300              0.41895900             0.26137200
SP   3   1.00
      1.7273800             -0.24463000            -0.01779510
      0.5729220              0.00431572             0.25353900
      0.2221920              1.09818000             0.80066900
SP   1   1.00
      0.0778369              1.00000000             1.00000000
D    1   1.00
      0.9000000              1.0000000
D    1   1.00
      0.2250000              1.0000000
F    1   1.00
      0.3200000              1.0000000
****
P     0
S    6   1.00
  19413.3000000              0.0018516
   2909.4200000              0.0142062
    661.3640000              0.0699995
    185.7590000              0.2400790
     59.1943000              0.4847620
     20.0310000              0.3352000
SP   6   1.00
    339.4780000             -0.00278217             0.00456462
     81.0101000             -0.0360499              0.03369360
     25.8780000             -0.1166310              0.13975500
      9.4522100              0.0968328              0.33936200
      3.6656600              0.6144180              0.45092100
      1.4674600              0.4037980              0.23858600
SP   3   1.00
      2.1562300             -0.2529230             -0.01776530
      0.7489970              0.0328517              0.27405800
      0.2831450              1.0812500              0.78542100
SP   1   1.00
      0.0998317              1.0000000              1.00000000
D    1   1.00
      1.1000000              1.0000000
D    1   1.00
      0.2750000              1.0000000
F    1   1.00
      0.4500000              1.0000000
****
S     0
S    6   1.00
  21917.1000000              0.0018690
   3301.4900000              0.0142300
    754.1460000              0.0696960
    212.7110000              0.2384870
     67.9896000              0.4833070
     23.0515000              0.3380740
SP   6   1.00
    423.7350000             -0.0023767              0.0040610
    100.7100000             -0.0316930              0.0306810
     32.1599000             -0.1133170              0.1304520
     11.8079000              0.0560900              0.3272050
      4.6311000              0.5922550              0.4528510
      1.8702500              0.4550060              0.2560420
SP   3   1.00
      2.6158400             -0.2503740             -0.0145110
      0.9221670              0.0669570              0.3102630
      0.3412870              1.0545100              0.7544830
SP   1   1.00
      0.1171670              1.0000000              1.0000000
D    1   1.00
      1.3000000              1.0000000
D    1   1.00
      0.3250000              1.0000000
F    1   1.00
      0.5500000              1.0000000
****
Cl     0
S    6   1.00
  25180.1000000              0.0018330
   3780.3500000              0.0140340
    860.4740000              0.0690970
    242.1450000              0.2374520
     77.3349000              0.4830340
     26.2470000              0.3398560
SP   6   1.00
    491.7650000             -0.0022974              0.0039894
    116.9840000             -0.0307140              0.0303180
     37.4153000             -0.1125280              0.1298800
     13.7834000              0.0450160              0.3279510
      5.4521500              0.5893530              0.4535270
      2.2258800              0.4652060              0.2521540
SP   3   1.00
      3.1864900             -0.2518300             -0.0142990
      1.1442700              0.0615890              0.3235720
      0.4203770              1.0601800              0.7435070
SP   1   1.00
      0.1426570              1.0000000              1.0000000
D    1   1.00
      1.5000000              1.0000000
D    1   1.00
      0.3750000              1.0000000
F    1   1.00
      0.7000000              1.0000000
****
}

set {
reference uhf
freeze_core true
e_convergence 10
d_convergence 10
dft_spherical_points 1202
dft_radial_points 99
}

e = energy('b3lyp')

print_out('Grab this energy {0}'.format(e))
--------------------------------------------------------------------------

    Molecular point group: c1

    Geometry (in Bohr), charge = 0, multiplicity = 2:

       Center              X                  Y                   Z               Mass
    ------------   -----------------  -----------------  -----------------  -----------------
         C           -0.323340149085     0.000695525599     0.000020780781    12.000000000000
         C            0.061491771115    -1.399961827901    -2.427385698419    12.000000000000
         C            0.060853541215     2.799962563799    -0.000934313819    12.000000000000
         C            0.060955368715    -1.401257332901     2.427758089481    12.000000000000
         H            2.086188582515    -1.642084497301    -2.847494063619     1.007825032230
         H           -0.763618246085    -0.387650137901    -4.024047079319     1.007825032230
         H           -0.766881620485    -3.293375672501    -2.347444096619     1.007825032230
         H            2.086714571915     3.289261729799    -0.003039989319     1.007825032230
         H           -0.768721955485     3.682296231899     1.679188342381     1.007825032230
         H           -0.762312064485     3.680479123399    -1.673497829819     1.007825032230
         H            2.087766234315    -1.645104022801     2.846636359381     1.007825032230
         H           -0.764280923285    -3.289608355101     2.349782219181     1.007825032230
         H           -0.767428624285    -0.387533818401     4.026359422581     1.007825032230

  Charge       = 0
  Multiplicity = 2
  Basis Set: ANONYMOUS8E07F9F4
    Blend: 6-31G_2DFP_
  Basis Set: (ANONYMOUS8E07F9F4 AUX)
    Blend: DEF2-UNIVERSAL-JKFIT

    Orbital Energies [Eh]
    ---------------------

    Alpha Occupied:

       1A    -10.180342     2A    -10.167063     3A    -10.167010
       4A    -10.166972     5A     -0.797767     6A     -0.686252
       7A     -0.686124     8A     -0.530779     9A     -0.441126
      10A     -0.434875    11A     -0.434465    12A     -0.382691
      13A     -0.382507    14A     -0.363613    15A     -0.338262
      16A     -0.337733    17A     -0.168961

    Alpha Virtual:

      18A      0.076070    19A      0.134038    20A      0.134268
      21A      0.142412    22A      0.142843    23A      0.154883
      24A      0.178653    25A      0.178903    26A      0.203545
      27A      0.214804    28A      0.275734    29A      0.276239
      30A      0.398982    31A      0.399470    32A      0.403347
      33A      0.423929    34A      0.424266    35A      0.456593
      36A      0.495334    37A      0.495445    38A      0.512161
      39A      0.513980    40A      0.578748    41A      0.578881
      42A      0.591479    43A      0.591788    44A      0.602573
      45A      0.624715    46A      0.631765    47A      0.635969
      48A      0.636582    49A      0.663193    50A      0.663631
      51A      0.683661    52A      0.684060    53A      0.734994
      54A      0.825150    55A      0.825665    56A      0.853916
      57A      0.914810    58A      0.915241    59A      0.944125
      60A      0.944607    61A      0.961204    62A      0.961384
      63A      1.003454    64A      1.127824    65A      1.128395
      66A      1.142228    67A      1.162980    68A      1.163558
      69A      1.223323    70A      1.274093    71A      1.274868
      72A      1.279374    73A      1.324132    74A      1.324573
      75A      1.355988    76A      1.365720    77A      1.366392
      78A      1.392441    79A      1.403860    80A      1.404230
      81A      1.416399    82A      1.417821    83A      1.427914
      84A      1.491495    85A      1.499072    86A      1.542759
      87A      1.542912    88A      1.574161    89A      1.574735
      90A      1.669827    91A      1.738706    92A      1.740128
      93A      1.768321    94A      1.830465    95A      1.832316
      96A      1.971756    97A      2.017503    98A      2.018842
      99A      2.020036   100A      2.051787   101A      2.053520
     102A      2.738266   103A      2.738703   104A      2.790924
     105A      2.811426   106A      2.889788   107A      2.890112
     108A      2.894947   109A      2.929435   110A      2.929560
     111A      2.958961   112A      2.964295   113A      2.964496
     114A      3.034010   115A      3.070696   116A      3.071810
     117A      3.084438   118A      3.168312   119A      3.169230
     120A      3.180609   121A      3.285152   122A      3.285469
     123A      3.326737   124A      3.327585   125A      3.375624
     126A      3.489719   127A      3.490598   128A      3.514017
     129A      3.525329   130A      3.567947   131A      3.568839
     132A      3.575121   133A      3.665555   134A      3.667221
     135A      3.679656   136A      3.693892   137A      3.694388
     138A      3.776583   139A      3.776998   140A      3.789130
     141A      3.911283   142A      3.913168   143A      4.034442
     144A      4.110790   145A      4.111881   146A      4.147617
     147A      4.148550   148A      4.173339   149A      4.202126
     150A      4.202623   151A      4.203967   152A      4.211004
     153A      4.314970   154A      4.316942   155A      4.358980
     156A      4.423289   157A      4.425543   158A      4.443540
     159A      4.515612   160A      4.518069   161A      4.578236
     162A      4.578297   163A      4.617553   164A      4.709430
     165A      4.773554   166A      4.775627   167A      4.836928
     168A      4.962829   169A      5.002204   170A      5.003757
     171A      5.227578   172A      5.246897   173A      5.247138
     174A      5.354257   175A      5.356780   176A      5.479412

    Beta Occupied:

       1A    -10.167822     2A    -10.167762     3A    -10.167740
       4A    -10.166519     5A     -0.781092     6A     -0.684058
       7A     -0.683923     8A     -0.511750     9A     -0.431246
      10A     -0.430838    11A     -0.421820    12A     -0.376795
      13A     -0.376573    14A     -0.362597    15A     -0.333383
      16A     -0.332859

    Beta Virtual:

      17A     -0.025743    18A      0.077079    19A      0.134904
      20A      0.135182    21A      0.144261    22A      0.144736
      23A      0.163340    24A      0.182332    25A      0.182566
      26A      0.215033    27A      0.218928    28A      0.282090
      29A      0.282579    30A      0.400147    31A      0.400647
      32A      0.419791    33A      0.426740    34A      0.427077
      35A      0.468501    36A      0.497587    37A      0.497714
      38A      0.513896    39A      0.556325    40A      0.584297
      41A      0.584433    42A      0.597636    43A      0.597988
      44A      0.609998    45A      0.628093    46A      0.631925
      47A      0.639271    48A      0.639847    49A      0.666769
      50A      0.667183    51A      0.686319    52A      0.686671
      53A      0.757517    54A      0.830329    55A      0.830822
      56A      0.855269    57A      0.922800    58A      0.923193
      59A      0.945962    60A      0.953534    61A      0.966493
      62A      0.966708    63A      1.008694    64A      1.131858
      65A      1.132423    66A      1.155598    67A      1.168036
      68A      1.168651    69A      1.232295    70A      1.279675
      71A      1.280480    72A      1.285129    73A      1.329126
      74A      1.329556    75A      1.365403    76A      1.371033
      77A      1.371566    78A      1.393502    79A      1.407367
      80A      1.407652    81A      1.421499    82A      1.422815
      83A      1.428189    84A      1.492545    85A      1.509515
      86A      1.547149    87A      1.547340    88A      1.582026
      89A      1.582610    90A      1.674674    91A      1.744454
      92A      1.745906    93A      1.779099    94A      1.834322
      95A      1.836169    96A      1.972617    97A      2.024647
      98A      2.026217    99A      2.039677   100A      2.058500
     101A      2.060256   102A      2.746603   103A      2.747037
     104A      2.811838   105A      2.816059   106A      2.902443
     107A      2.902838   108A      2.924646   109A      2.931930
     110A      2.932028   111A      2.960037   112A      2.968821
     113A      2.969045   114A      3.041944   115A      3.080551
     116A      3.081641   117A      3.086390   118A      3.184045
     119A      3.184941   120A      3.188347   121A      3.289940
     122A      3.290279   123A      3.330513   124A      3.331416
     125A      3.383442   126A      3.492439   127A      3.493338
     128A      3.512383   129A      3.528374   130A      3.574976
     131A      3.581208   132A      3.582262   133A      3.670349
     134A      3.671927   135A      3.692960   136A      3.725635
     137A      3.725895   138A      3.781062   139A      3.781576
     140A      3.817670   141A      3.921095   142A      3.922988
     143A      4.045330   144A      4.117377   145A      4.118929
     146A      4.154712   147A      4.155888   148A      4.187373
     149A      4.208144   150A      4.209609   151A      4.210787
     152A      4.215502   153A      4.322417   154A      4.324378
     155A      4.362343   156A      4.431512   157A      4.433721
     158A      4.446453   159A      4.523397   160A      4.525862
     161A      4.588805   162A      4.588931   163A      4.624747
     164A      4.719774   165A      4.780539   166A      4.782549
     167A      4.839847   168A      4.967624   169A      5.006257
     170A      5.007782   171A      5.233186   172A      5.248710
     173A      5.249005   174A      5.360745   175A      5.363247
     176A      5.481735

    Final Occupation by Irrep:
              A
    DOCC [    16 ]
    SOCC [     1 ]

  @DF-UKS Final Energy:  -157.81305890890491

   => Energetics <=

    Nuclear Repulsion Energy =            125.3946499291638759
    One-Electron Energy =                -458.7489308599176638
    Two-Electron Energy =                 195.8483682411641666
    DFT Exchange-Correlation Energy =     -20.3071462193152712
    Empirical Dispersion Energy =           0.0000000000000000
    VV10 Nonlocal Energy =                  0.0000000000000000
    Total Energy =                       -157.8130589089049067

  UHF NO Occupations:
  HONO-2 :   15  A 1.9996009
  HONO-1 :   16  A 1.9989805
  HONO-0 :   17  A 1.0000000
  LUNO+0 :   18  A 0.0010195
  LUNO+1 :   19  A 0.0003991
  LUNO+2 :   20  A 0.0001979
  LUNO+3 :   21  A 0.0001972

Computation Completed

Properties will be evaluated at   0.000000,   0.000000,   0.000000 [a0]

Properties computed using the SCF density matrix

  Nuclear Dipole Moment: [e a0]
     X:     0.8272      Y:     0.0033      Z:     0.0032

  Electronic Dipole Moment: [e a0]
     X:    -0.7493      Y:    -0.0034      Z:    -0.0049

  Dipole Moment: [e a0]
     X:     0.0779      Y:    -0.0001      Z:    -0.0017     Total:     0.0779

  Dipole Moment: [D]
     X:     0.1980      Y:    -0.0002      Z:    -0.0044     Total:     0.1981

*** tstop() called on n091 at Fri Nov  5 12:58:07 2021
Module time:
	user time   =     491.27 seconds =       8.19 minutes
	system time =       4.54 seconds =       0.08 minutes
	total time  =        125 seconds =       2.08 minutes
Total time:
	user time   =     491.27 seconds =       8.19 minutes
	system time =       4.54 seconds =       0.08 minutes
	total time  =        125 seconds =       2.08 minutes
Grab this energy -157.8130589089049
    Psi4 stopped on: Friday, 05 November 2021 12:58PM
    Psi4 wall time for execution: 0:02:04.70

*** Psi4 exiting successfully. Buy a developer a beer!
