                               Psi4 1.4a2.dev629

  ==> Input File <==

--------------------------------------------------------------------------
import os
memory 14 GB

molecule {
 C   -0.3233404986   -0.0002278291    0.0002565358
 C    0.0628318597   -1.4003375075   -2.4253752350
 C    0.0611873211    2.8040281471   -0.0007688317
 C    0.0592820950   -1.4010097845    2.4250033118
 H    2.0867218512   -1.6442335617   -2.8477605818
 H   -0.7659130687   -0.3886148254   -4.0256355233
 H   -0.7660453205   -3.2919308335   -2.3493805775
 H    2.0868772504    3.2874206627    0.0002354294
 H   -0.7656381999    3.6795475112    1.6768177020
 H   -0.7659105213    3.6796405857   -1.6764870126
 H    2.0870723126   -1.6440251231    2.8478735375
 H   -0.7650697138   -3.2921350242    2.3493398661
 H   -0.7646632438   -0.3881467313    4.0258813793
units bohr
0 2
}

basis {

assign 6-31g_2dfp_

[ 6-31g_2dfp_ ]

spherical

!----------------------------------------------------------------------
! Basis Set Exchange
! Version v0.8.13
! https://www.basissetexchange.org
!----------------------------------------------------------------------
!   Basis set: 6-31G(2df,p)
! Description: 6-31G(2df,p)
!        Role: orbital
!     Version: 0  (Data from the original Basis Set Exchange)
!----------------------------------------------------------------------

****
H     0
S    3   1.00
     18.7311370              0.03349460
      2.8253937              0.23472695
      0.6401217              0.81375733
S    1   1.00
      0.1612778              1.00000000
P    1   1.00
      1.5000000              1.0000000
P    1   1.00
      0.3750000              1.0000000
****
B     0
S    6   1.00
   2068.8823000              0.0018663
    310.6495700              0.0142515
     70.6830330              0.0695516
     19.8610800              0.2325729
      6.2993048              0.4670787
      2.1270270              0.3634314
SP   3   1.00
      4.7279710             -0.1303938              0.0745976
      1.1903377             -0.1307889              0.3078467
      0.3594117              1.1309444              0.7434568
SP   1   1.00
      0.1267512              1.0000000              1.0000000
D    1   1.00
      0.8020000              1.0000000
D    1   1.00
      0.2005000              1.0000000
F    1   1.00
      0.5000000              1.0000000
****
C     0
S    6   1.00
   3047.5249000              0.0018347
    457.3695100              0.0140373
    103.9486900              0.0688426
     29.2101550              0.2321844
      9.2866630              0.4679413
      3.1639270              0.3623120
SP   3   1.00
      7.8682724             -0.1193324              0.0689991
      1.8812885             -0.1608542              0.3164240
      0.5442493              1.1434564              0.7443083
SP   1   1.00
      0.1687144              1.0000000              1.0000000
D    1   1.00
      1.2520000              1.0000000
D    1   1.00
      0.3130000              1.0000000
F    1   1.00
      0.8000000              1.0000000
****
N     0
S    6   1.00
   4173.5110000              0.0018348
    627.4579000              0.0139950
    142.9021000              0.0685870
     40.2343300              0.2322410
     12.8202100              0.4690700
      4.3904370              0.3604550
SP   3   1.00
     11.6263580             -0.1149610              0.0675800
      2.7162800             -0.1691180              0.3239070
      0.7722180              1.1458520              0.7408950
SP   1   1.00
      0.2120313              1.0000000              1.0000000
D    1   1.00
      1.8260000              1.0000000
D    1   1.00
      0.4565000              1.0000000
F    1   1.00
      1.0000000              1.0000000
****
O     0
S    6   1.00
   5484.6717000              0.0018311
    825.2349500              0.0139501
    188.0469600              0.0684451
     52.9645000              0.2327143
     16.8975700              0.4701930
      5.7996353              0.3585209
SP   3   1.00
     15.5396160             -0.1107775              0.0708743
      3.5999336             -0.1480263              0.3397528
      1.0137618              1.1307670              0.7271586
SP   1   1.00
      0.2700058              1.0000000              1.0000000
D    1   1.00
      2.5840000              1.0000000
D    1   1.00
      0.6460000              1.0000000
F    1   1.00
      1.4000000              1.0000000
****
F     0
S    6   1.00
   7001.7130900              0.0018196169
   1051.3660900              0.0139160796
    239.2856900              0.0684053245
     67.3974453              0.233185760
     21.5199573              0.471267439
      7.40310130             0.356618546
SP   3   1.00
     20.8479528             -0.108506975            0.0716287243
      4.80830834            -0.146451658            0.3459121030
      1.34406986             1.128688580            0.7224699570
SP   1   1.00
      0.358151393            1.0000000              1.0000000
D    1   1.00
      3.5000000              1.0000000
D    1   1.00
      0.8750000              1.0000000
F    1   1.00
      1.8500000              1.0000000
****
Al     0
S    6   1.00
  13983.1000000              0.00194267
   2098.7500000              0.0148599
    477.7050000              0.0728494
    134.3600000              0.2468300
     42.8709000              0.4872580
     14.5189000              0.3234960
SP   6   1.00
    239.6680000             -0.00292619             0.00460285
     57.4419000             -0.0374080              0.0331990
     18.2859000             -0.1144870              0.1362820
      6.5991400              0.1156350              0.3304760
      2.4904900              0.6125950              0.4491460
      0.9445400              0.3937990              0.2657040
SP   3   1.00
      1.2779000             -0.2276060             -0.0175130
      0.3975900              0.00144583             0.2445330
      0.1600950              1.0927900              0.8049340
SP   1   1.00
      0.0556577              1.0000000              1.0000000
D    1   1.00
      0.6500000              1.0000000
D    1   1.00
      0.1625000              1.0000000
F    1   1.00
      0.2500000              1.0000000
****
Si     0
S    6   1.00
  16115.9000000              0.00195948
   2425.5800000              0.01492880
    553.8670000              0.07284780
    156.3400000              0.24613000
     50.0683000              0.48591400
     17.0178000              0.32500200
SP   6   1.00
    292.7180000             -0.00278094             0.00443826
     69.8731000             -0.03571460             0.03266790
     22.3363000             -0.11498500             0.13472100
      8.1503900              0.09356340             0.32867800
      3.1345800              0.60301700             0.44964000
      1.2254300              0.41895900             0.26137200
SP   3   1.00
      1.7273800             -0.24463000            -0.01779510
      0.5729220              0.00431572             0.25353900
      0.2221920              1.09818000             0.80066900
SP   1   1.00
      0.0778369              1.00000000             1.00000000
D    1   1.00
      0.9000000              1.0000000
D    1   1.00
      0.2250000              1.0000000
F    1   1.00
      0.3200000              1.0000000
****
P     0
S    6   1.00
  19413.3000000              0.0018516
   2909.4200000              0.0142062
    661.3640000              0.0699995
    185.7590000              0.2400790
     59.1943000              0.4847620
     20.0310000              0.3352000
SP   6   1.00
    339.4780000             -0.00278217             0.00456462
     81.0101000             -0.0360499              0.03369360
     25.8780000             -0.1166310              0.13975500
      9.4522100              0.0968328              0.33936200
      3.6656600              0.6144180              0.45092100
      1.4674600              0.4037980              0.23858600
SP   3   1.00
      2.1562300             -0.2529230             -0.01776530
      0.7489970              0.0328517              0.27405800
      0.2831450              1.0812500              0.78542100
SP   1   1.00
      0.0998317              1.0000000              1.00000000
D    1   1.00
      1.1000000              1.0000000
D    1   1.00
      0.2750000              1.0000000
F    1   1.00
      0.4500000              1.0000000
****
S     0
S    6   1.00
  21917.1000000              0.0018690
   3301.4900000              0.0142300
    754.1460000              0.0696960
    212.7110000              0.2384870
     67.9896000              0.4833070
     23.0515000              0.3380740
SP   6   1.00
    423.7350000             -0.0023767              0.0040610
    100.7100000             -0.0316930              0.0306810
     32.1599000             -0.1133170              0.1304520
     11.8079000              0.0560900              0.3272050
      4.6311000              0.5922550              0.4528510
      1.8702500              0.4550060              0.2560420
SP   3   1.00
      2.6158400             -0.2503740             -0.0145110
      0.9221670              0.0669570              0.3102630
      0.3412870              1.0545100              0.7544830
SP   1   1.00
      0.1171670              1.0000000              1.0000000
D    1   1.00
      1.3000000              1.0000000
D    1   1.00
      0.3250000              1.0000000
F    1   1.00
      0.5500000              1.0000000
****
Cl     0
S    6   1.00
  25180.1000000              0.0018330
   3780.3500000              0.0140340
    860.4740000              0.0690970
    242.1450000              0.2374520
     77.3349000              0.4830340
     26.2470000              0.3398560
SP   6   1.00
    491.7650000             -0.0022974              0.0039894
    116.9840000             -0.0307140              0.0303180
     37.4153000             -0.1125280              0.1298800
     13.7834000              0.0450160              0.3279510
      5.4521500              0.5893530              0.4535270
      2.2258800              0.4652060              0.2521540
SP   3   1.00
      3.1864900             -0.2518300             -0.0142990
      1.1442700              0.0615890              0.3235720
      0.4203770              1.0601800              0.7435070
SP   1   1.00
      0.1426570              1.0000000              1.0000000
D    1   1.00
      1.5000000              1.0000000
D    1   1.00
      0.3750000              1.0000000
F    1   1.00
      0.7000000              1.0000000
****
}

set {
reference uhf
freeze_core true
e_convergence 10
d_convergence 10
dft_spherical_points 1202
dft_radial_points 99
}

e = energy('b3lyp')

print_out('Grab this energy {0}'.format(e))
--------------------------------------------------------------------------

    Molecular point group: c1

    Geometry (in Bohr), charge = 0, multiplicity = 2:

       Center              X                  Y                   Z               Mass
    ------------   -----------------  -----------------  -----------------  -----------------
         C           -0.323340645377    -0.000699870214     0.000426842767    12.000000000000
         C            0.062831712923    -1.400809548614    -2.425204928033    12.000000000000
         C            0.061187174323     2.803556105986    -0.000598524733    12.000000000000
         C            0.059281948223    -1.401481825614     2.425173618767    12.000000000000
         H            2.086721704423    -1.644705602814    -2.847590274833     1.007825032230
         H           -0.765913215477    -0.389086866514    -4.025465216333     1.007825032230
         H           -0.766045467277    -3.292402874614    -2.349210270533     1.007825032230
         H            2.086877103623     3.286948621586     0.000405736367     1.007825032230
         H           -0.765638346677     3.679075470086     1.676988008967     1.007825032230
         H           -0.765910668077     3.679168544586    -1.676316705633     1.007825032230
         H            2.087072165823    -1.644497164214     2.848043844467     1.007825032230
         H           -0.765069860577    -3.292607065314     2.349510173067     1.007825032230
         H           -0.764663390577    -0.388618772414     4.026051686267     1.007825032230

  Charge       = 0
  Multiplicity = 2
  Basis Set: ANONYMOUSF48AD810
    Blend: 6-31G_2DFP_
  Basis Set: (ANONYMOUSF48AD810 AUX)
    Blend: DEF2-UNIVERSAL-JKFIT

    Orbital Energies [Eh]
    ---------------------

    Alpha Occupied:

       1A    -10.180342     2A    -10.167069     3A    -10.167012
       4A    -10.166964     5A     -0.797766     6A     -0.686227
       7A     -0.686146     8A     -0.530776     9A     -0.441126
      10A     -0.434799    11A     -0.434541    12A     -0.382775
      13A     -0.382423    14A     -0.363613    15A     -0.338222
      16A     -0.337774    17A     -0.168961

    Alpha Virtual:

      18A      0.076073    19A      0.134118    20A      0.134192
      21A      0.142539    22A      0.142717    23A      0.154880
      24A      0.178638    25A      0.178919    26A      0.203545
      27A      0.214802    28A      0.275755    29A      0.276216
      30A      0.399065    31A      0.399387    32A      0.403349
      33A      0.424032    34A      0.424162    35A      0.456593
      36A      0.495352    37A      0.495426    38A      0.512160
      39A      0.513980    40A      0.578718    41A      0.578912
      42A      0.591499    43A      0.591770    44A      0.602574
      45A      0.624761    46A      0.631771    47A      0.636054
      48A      0.636445    49A      0.663233    50A      0.663593
      51A      0.683702    52A      0.684002    53A      0.734995
      54A      0.825350    55A      0.825465    56A      0.853916
      57A      0.915002    58A      0.915050    59A      0.944126
      60A      0.944613    61A      0.961204    62A      0.961379
      63A      1.003452    64A      1.127972    65A      1.128241
      66A      1.142226    67A      1.162965    68A      1.163575
      69A      1.223323    70A      1.274146    71A      1.274819
      72A      1.279376    73A      1.324096    74A      1.324618
      75A      1.355984    76A      1.365718    77A      1.366397
      78A      1.392447    79A      1.403833    80A      1.404266
      81A      1.416779    82A      1.417443    83A      1.427924
      84A      1.491490    85A      1.499081    86A      1.542742
      87A      1.542908    88A      1.574198    89A      1.574695
      90A      1.669823    91A      1.738994    92A      1.739844
      93A      1.768323    94A      1.830854    95A      1.831941
      96A      1.971731    97A      2.018141    98A      2.018318
      99A      2.019930   100A      2.051871   101A      2.053416
     102A      2.738357   103A      2.738612   104A      2.790925
     105A      2.811426   106A      2.889671   107A      2.890231
     108A      2.894950   109A      2.929427   110A      2.929567
     111A      2.958995   112A      2.964239   113A      2.964510
     114A      3.034008   115A      3.071095   116A      3.071465
     117A      3.084358   118A      3.168540   119A      3.169002
     120A      3.180607   121A      3.285279   122A      3.285351
     123A      3.326915   124A      3.327404   125A      3.375616
     126A      3.489714   127A      3.490599   128A      3.514018
     129A      3.525327   130A      3.568259   131A      3.568524
     132A      3.575142   133A      3.665654   134A      3.667099
     135A      3.679666   136A      3.693995   137A      3.694260
     138A      3.776605   139A      3.776997   140A      3.789121
     141A      3.911467   142A      3.912981   143A      4.034453
     144A      4.111192   145A      4.111553   146A      4.147811
     147A      4.148436   148A      4.173245   149A      4.202162
     150A      4.203062   151A      4.203570   152A      4.210860
     153A      4.315096   154A      4.316794   155A      4.358990
     156A      4.423513   157A      4.425302   158A      4.443524
     159A      4.515616   160A      4.518074   161A      4.578067
     162A      4.578480   163A      4.617538   164A      4.709446
     165A      4.773982   166A      4.775165   167A      4.836929
     168A      4.962829   169A      5.002102   170A      5.003829
     171A      5.228048   172A      5.246610   173A      5.247011
     174A      5.355231   175A      5.355780   176A      5.479347

    Beta Occupied:

       1A    -10.167828     2A    -10.167769     3A    -10.167727
       4A    -10.166519     5A     -0.781091     6A     -0.684033
       7A     -0.683945     8A     -0.511748     9A     -0.431178
      10A     -0.430907    11A     -0.421821    12A     -0.376878
      13A     -0.376490    14A     -0.362597    15A     -0.333347
      16A     -0.332895

    Beta Virtual:

      17A     -0.025743    18A      0.077081    19A      0.135020
      20A      0.135070    21A      0.144424    22A      0.144574
      23A      0.163338    24A      0.182315    25A      0.182585
      26A      0.215032    27A      0.218928    28A      0.282113
      29A      0.282554    30A      0.400238    31A      0.400557
      32A      0.419791    33A      0.426841    34A      0.426976
      35A      0.468501    36A      0.497612    37A      0.497688
      38A      0.513895    39A      0.556325    40A      0.584270
      41A      0.584461    42A      0.597675    43A      0.597953
      44A      0.609999    45A      0.628135    46A      0.631929
      47A      0.639343    48A      0.639726    49A      0.666808
      50A      0.667145    51A      0.686336    52A      0.686639
      53A      0.757518    54A      0.830514    55A      0.830638
      56A      0.855269    57A      0.922973    58A      0.923022
      59A      0.945962    60A      0.953542    61A      0.966505
      62A      0.966690    63A      1.008692    64A      1.131975
      65A      1.132299    66A      1.155598    67A      1.168034
      68A      1.168655    69A      1.232296    70A      1.279737
      71A      1.280423    72A      1.285128    73A      1.329078
      74A      1.329614    75A      1.365399    76A      1.370972
      77A      1.371630    78A      1.393506    79A      1.407328
      80A      1.407702    81A      1.421847    82A      1.422469
      83A      1.428199    84A      1.492538    85A      1.509524
      86A      1.547149    87A      1.547317    88A      1.582096
      89A      1.582542    90A      1.674670    91A      1.744761
      92A      1.745600    93A      1.779103    94A      1.834719
      95A      1.835787    96A      1.972590    97A      2.024609
      98A      2.026284    99A      2.039670   100A      2.058603
     101A      2.060120   102A      2.746715   103A      2.746925
     104A      2.811838   105A      2.816060   106A      2.902374
     107A      2.902912   108A      2.924648   109A      2.931925
     110A      2.932032   111A      2.960057   112A      2.968777
     113A      2.969060   114A      3.041944   115A      3.081006
     116A      3.081361   117A      3.086189   118A      3.184251
     119A      3.184737   120A      3.188342   121A      3.290083
     122A      3.290144   123A      3.330716   124A      3.331211
     125A      3.383434   126A      3.492429   127A      3.493343
     128A      3.512383   129A      3.528373   130A      3.574994
     131A      3.581634   132A      3.581834   133A      3.670394
     134A      3.671860   135A      3.692960   136A      3.725556
     137A      3.725963   138A      3.781089   139A      3.781563
     140A      3.817667   141A      3.921331   142A      3.922750
     143A      4.045340   144A      4.117927   145A      4.118448
     146A      4.155099   147A      4.155567   148A      4.187305
     149A      4.208469   150A      4.209414   151A      4.210754
     152A      4.215335   153A      4.322498   154A      4.324270
     155A      4.362355   156A      4.431759   157A      4.433453
     158A      4.446441   159A      4.523412   160A      4.525857
     161A      4.588682   162A      4.589069   163A      4.624731
     164A      4.719791   165A      4.780960   166A      4.782092
     167A      4.839847   168A      4.967625   169A      5.006163
     170A      5.007846   171A      5.233764   172A      5.248401
     173A      5.248789   174A      5.361706   175A      5.362266
     176A      5.481669

    Final Occupation by Irrep:
              A
    DOCC [    16 ]
    SOCC [     1 ]

  @DF-UKS Final Energy:  -157.81306959562752

   => Energetics <=

    Nuclear Repulsion Energy =            125.3945892380850466
    One-Electron Energy =                -458.7488430185273387
    Two-Electron Energy =                 195.8483269036805439
    DFT Exchange-Correlation Energy =     -20.3071427188657978
    Empirical Dispersion Energy =           0.0000000000000000
    VV10 Nonlocal Energy =                  0.0000000000000000
    Total Energy =                       -157.8130695956275247

  UHF NO Occupations:
  HONO-2 :   15  A 1.9996009
  HONO-1 :   16  A 1.9989805
  HONO-0 :   17  A 1.0000000
  LUNO+0 :   18  A 0.0010195
  LUNO+1 :   19  A 0.0003991
  LUNO+2 :   20  A 0.0001979
  LUNO+3 :   21  A 0.0001972

Computation Completed

Properties will be evaluated at   0.000000,   0.000000,   0.000000 [a0]

Properties computed using the SCF density matrix

  Nuclear Dipole Moment: [e a0]
     X:     0.8272      Y:    -0.0033      Z:     0.0012

  Electronic Dipole Moment: [e a0]
     X:    -0.7493      Y:     0.0034      Z:    -0.0011

  Dipole Moment: [e a0]
     X:     0.0779      Y:     0.0001      Z:     0.0001     Total:     0.0779

  Dipole Moment: [D]
     X:     0.1980      Y:     0.0002      Z:     0.0003     Total:     0.1980

*** tstop() called on n056 at Fri Nov  5 12:14:20 2021
Module time:
	user time   =     537.03 seconds =       8.95 minutes
	system time =      12.00 seconds =       0.20 minutes
	total time  =        138 seconds =       2.30 minutes
Total time:
	user time   =     537.03 seconds =       8.95 minutes
	system time =      12.00 seconds =       0.20 minutes
	total time  =        138 seconds =       2.30 minutes
Grab this energy -157.81306959562752
    Psi4 stopped on: Friday, 05 November 2021 12:14PM
    Psi4 wall time for execution: 0:02:18.07

*** Psi4 exiting successfully. Buy a developer a beer!
