                               Psi4 1.4a2.dev629

  ==> Input File <==

--------------------------------------------------------------------------
import os
memory 14 GB

molecule {
 C   -0.3243643459   -0.0010231524   -0.0000000000
 C    0.0604536792   -1.3995045094   -2.4271226928
 C    0.0592110743    2.8023075901    0.0000000000
 C    0.0604536792   -1.3995045094    2.4271226928
 H    2.0902076043   -1.6448579964   -2.8475386923
 H   -0.7665918017   -0.3904371624   -4.0240398589
 H   -0.7665022894   -3.2899891215   -2.3498110871
 H    2.0901917213    3.2884244232   -0.0000000000
 H   -0.7663903556    3.6799222024    1.6742442366
 H   -0.7663903556    3.6799222024   -1.6742442366
 H    2.0902076043   -1.6448579964    2.8475386923
 H   -0.7665022894   -3.2899891215    2.3498110871
 H   -0.7665918017   -0.3904371624    4.0240398589
units bohr
0 2
}

basis {

assign 6-31g_2dfp_

[ 6-31g_2dfp_ ]

spherical

!----------------------------------------------------------------------
! Basis Set Exchange
! Version v0.8.13
! https://www.basissetexchange.org
!----------------------------------------------------------------------
!   Basis set: 6-31G(2df,p)
! Description: 6-31G(2df,p)
!        Role: orbital
!     Version: 0  (Data from the original Basis Set Exchange)
!----------------------------------------------------------------------

****
H     0
S    3   1.00
     18.7311370              0.03349460
      2.8253937              0.23472695
      0.6401217              0.81375733
S    1   1.00
      0.1612778              1.00000000
P    1   1.00
      1.5000000              1.0000000
P    1   1.00
      0.3750000              1.0000000
****
B     0
S    6   1.00
   2068.8823000              0.0018663
    310.6495700              0.0142515
     70.6830330              0.0695516
     19.8610800              0.2325729
      6.2993048              0.4670787
      2.1270270              0.3634314
SP   3   1.00
      4.7279710             -0.1303938              0.0745976
      1.1903377             -0.1307889              0.3078467
      0.3594117              1.1309444              0.7434568
SP   1   1.00
      0.1267512              1.0000000              1.0000000
D    1   1.00
      0.8020000              1.0000000
D    1   1.00
      0.2005000              1.0000000
F    1   1.00
      0.5000000              1.0000000
****
C     0
S    6   1.00
   3047.5249000              0.0018347
    457.3695100              0.0140373
    103.9486900              0.0688426
     29.2101550              0.2321844
      9.2866630              0.4679413
      3.1639270              0.3623120
SP   3   1.00
      7.8682724             -0.1193324              0.0689991
      1.8812885             -0.1608542              0.3164240
      0.5442493              1.1434564              0.7443083
SP   1   1.00
      0.1687144              1.0000000              1.0000000
D    1   1.00
      1.2520000              1.0000000
D    1   1.00
      0.3130000              1.0000000
F    1   1.00
      0.8000000              1.0000000
****
N     0
S    6   1.00
   4173.5110000              0.0018348
    627.4579000              0.0139950
    142.9021000              0.0685870
     40.2343300              0.2322410
     12.8202100              0.4690700
      4.3904370              0.3604550
SP   3   1.00
     11.6263580             -0.1149610              0.0675800
      2.7162800             -0.1691180              0.3239070
      0.7722180              1.1458520              0.7408950
SP   1   1.00
      0.2120313              1.0000000              1.0000000
D    1   1.00
      1.8260000              1.0000000
D    1   1.00
      0.4565000              1.0000000
F    1   1.00
      1.0000000              1.0000000
****
O     0
S    6   1.00
   5484.6717000              0.0018311
    825.2349500              0.0139501
    188.0469600              0.0684451
     52.9645000              0.2327143
     16.8975700              0.4701930
      5.7996353              0.3585209
SP   3   1.00
     15.5396160             -0.1107775              0.0708743
      3.5999336             -0.1480263              0.3397528
      1.0137618              1.1307670              0.7271586
SP   1   1.00
      0.2700058              1.0000000              1.0000000
D    1   1.00
      2.5840000              1.0000000
D    1   1.00
      0.6460000              1.0000000
F    1   1.00
      1.4000000              1.0000000
****
F     0
S    6   1.00
   7001.7130900              0.0018196169
   1051.3660900              0.0139160796
    239.2856900              0.0684053245
     67.3974453              0.233185760
     21.5199573              0.471267439
      7.40310130             0.356618546
SP   3   1.00
     20.8479528             -0.108506975            0.0716287243
      4.80830834            -0.146451658            0.3459121030
      1.34406986             1.128688580            0.7224699570
SP   1   1.00
      0.358151393            1.0000000              1.0000000
D    1   1.00
      3.5000000              1.0000000
D    1   1.00
      0.8750000              1.0000000
F    1   1.00
      1.8500000              1.0000000
****
Al     0
S    6   1.00
  13983.1000000              0.00194267
   2098.7500000              0.0148599
    477.7050000              0.0728494
    134.3600000              0.2468300
     42.8709000              0.4872580
     14.5189000              0.3234960
SP   6   1.00
    239.6680000             -0.00292619             0.00460285
     57.4419000             -0.0374080              0.0331990
     18.2859000             -0.1144870              0.1362820
      6.5991400              0.1156350              0.3304760
      2.4904900              0.6125950              0.4491460
      0.9445400              0.3937990              0.2657040
SP   3   1.00
      1.2779000             -0.2276060             -0.0175130
      0.3975900              0.00144583             0.2445330
      0.1600950              1.0927900              0.8049340
SP   1   1.00
      0.0556577              1.0000000              1.0000000
D    1   1.00
      0.6500000              1.0000000
D    1   1.00
      0.1625000              1.0000000
F    1   1.00
      0.2500000              1.0000000
****
Si     0
S    6   1.00
  16115.9000000              0.00195948
   2425.5800000              0.01492880
    553.8670000              0.07284780
    156.3400000              0.24613000
     50.0683000              0.48591400
     17.0178000              0.32500200
SP   6   1.00
    292.7180000             -0.00278094             0.00443826
     69.8731000             -0.03571460             0.03266790
     22.3363000             -0.11498500             0.13472100
      8.1503900              0.09356340             0.32867800
      3.1345800              0.60301700             0.44964000
      1.2254300              0.41895900             0.26137200
SP   3   1.00
      1.7273800             -0.24463000            -0.01779510
      0.5729220              0.00431572             0.25353900
      0.2221920              1.09818000             0.80066900
SP   1   1.00
      0.0778369              1.00000000             1.00000000
D    1   1.00
      0.9000000              1.0000000
D    1   1.00
      0.2250000              1.0000000
F    1   1.00
      0.3200000              1.0000000
****
P     0
S    6   1.00
  19413.3000000              0.0018516
   2909.4200000              0.0142062
    661.3640000              0.0699995
    185.7590000              0.2400790
     59.1943000              0.4847620
     20.0310000              0.3352000
SP   6   1.00
    339.4780000             -0.00278217             0.00456462
     81.0101000             -0.0360499              0.03369360
     25.8780000             -0.1166310              0.13975500
      9.4522100              0.0968328              0.33936200
      3.6656600              0.6144180              0.45092100
      1.4674600              0.4037980              0.23858600
SP   3   1.00
      2.1562300             -0.2529230             -0.01776530
      0.7489970              0.0328517              0.27405800
      0.2831450              1.0812500              0.78542100
SP   1   1.00
      0.0998317              1.0000000              1.00000000
D    1   1.00
      1.1000000              1.0000000
D    1   1.00
      0.2750000              1.0000000
F    1   1.00
      0.4500000              1.0000000
****
S     0
S    6   1.00
  21917.1000000              0.0018690
   3301.4900000              0.0142300
    754.1460000              0.0696960
    212.7110000              0.2384870
     67.9896000              0.4833070
     23.0515000              0.3380740
SP   6   1.00
    423.7350000             -0.0023767              0.0040610
    100.7100000             -0.0316930              0.0306810
     32.1599000             -0.1133170              0.1304520
     11.8079000              0.0560900              0.3272050
      4.6311000              0.5922550              0.4528510
      1.8702500              0.4550060              0.2560420
SP   3   1.00
      2.6158400             -0.2503740             -0.0145110
      0.9221670              0.0669570              0.3102630
      0.3412870              1.0545100              0.7544830
SP   1   1.00
      0.1171670              1.0000000              1.0000000
D    1   1.00
      1.3000000              1.0000000
D    1   1.00
      0.3250000              1.0000000
F    1   1.00
      0.5500000              1.0000000
****
Cl     0
S    6   1.00
  25180.1000000              0.0018330
   3780.3500000              0.0140340
    860.4740000              0.0690970
    242.1450000              0.2374520
     77.3349000              0.4830340
     26.2470000              0.3398560
SP   6   1.00
    491.7650000             -0.0022974              0.0039894
    116.9840000             -0.0307140              0.0303180
     37.4153000             -0.1125280              0.1298800
     13.7834000              0.0450160              0.3279510
      5.4521500              0.5893530              0.4535270
      2.2258800              0.4652060              0.2521540
SP   3   1.00
      3.1864900             -0.2518300             -0.0142990
      1.1442700              0.0615890              0.3235720
      0.4203770              1.0601800              0.7435070
SP   1   1.00
      0.1426570              1.0000000              1.0000000
D    1   1.00
      1.5000000              1.0000000
D    1   1.00
      0.3750000              1.0000000
F    1   1.00
      0.7000000              1.0000000
****
}

set {
reference uhf
freeze_core true
e_convergence 10
d_convergence 10
dft_spherical_points 1202
dft_radial_points 99
}

e = energy('b3lyp')

print_out('Grab this energy {0}'.format(e))
--------------------------------------------------------------------------

    Molecular point group: cs

    Geometry (in Bohr), charge = 0, multiplicity = 2:

       Center              X                  Y                   Z               Mass
    ------------   -----------------  -----------------  -----------------  -----------------
         C           -0.323554253805    -0.001460985106     0.000000000000    12.000000000000
         C            0.061263771295    -1.399942342106    -2.427122692800    12.000000000000
         C            0.060021166395     2.801869757394     0.000000000000    12.000000000000
         C            0.061263771295    -1.399942342106     2.427122692800    12.000000000000
         H            2.091017696395    -1.645295829106    -2.847538692300     1.007825032230
         H           -0.765781709605    -0.390874995106    -4.024039858900     1.007825032230
         H           -0.765692197305    -3.290426954206    -2.349811087100     1.007825032230
         H            2.091001813395     3.287986590494     0.000000000000     1.007825032230
         H           -0.765580263505     3.679484369694     1.674244236600     1.007825032230
         H           -0.765580263505     3.679484369694    -1.674244236600     1.007825032230
         H            2.091017696395    -1.645295829106     2.847538692300     1.007825032230
         H           -0.765692197305    -3.290426954206     2.349811087100     1.007825032230
         H           -0.765781709605    -0.390874995106     4.024039858900     1.007825032230

  Charge       = 0
  Multiplicity = 2
  Basis Set: ANONYMOUS2243A320
    Blend: 6-31G_2DFP_
  Basis Set: (ANONYMOUS2243A320 AUX)
    Blend: DEF2-UNIVERSAL-JKFIT

    Orbital Energies [Eh]
    ---------------------

    Alpha Occupied:

       1Ap   -10.180401     1App  -10.167049     2Ap   -10.167029
       3Ap   -10.166976     4Ap    -0.797729     2App   -0.686262
       5Ap    -0.686103     6Ap    -0.530769     7Ap    -0.441026
       8Ap    -0.434725     3App   -0.434707     4App   -0.382502
       9Ap    -0.382422     5App   -0.363788     6App   -0.338347
      10Ap    -0.337760    11Ap    -0.168998

    Alpha Virtual:

      12Ap     0.076157    13Ap     0.134112     7App    0.134183
      14Ap     0.142635     8App    0.142770    15Ap     0.154712
       9App    0.178553    16Ap     0.178656    17Ap     0.203505
      10App    0.215076    18Ap     0.275836    11App    0.276085
      19Ap     0.398998    12App    0.399220    20Ap     0.403254
      13App    0.424282    21Ap     0.424291    22Ap     0.456518
      14App    0.495535    23Ap     0.495604    15App    0.512042
      24Ap     0.513826    25Ap     0.578597    16App    0.578692
      26Ap     0.591351    17App    0.591387    27Ap     0.601819
      28Ap     0.625272    18App    0.632157    29Ap     0.636623
      19App    0.636624    30Ap     0.662837    20App    0.663015
      21App    0.684094    31Ap     0.684114    32Ap     0.735056
      22App    0.825368    33Ap     0.825378    23App    0.853637
      24App    0.914695    34Ap     0.914912    25App    0.944414
      35Ap     0.944752    36Ap     0.961141    26App    0.961250
      37Ap     1.003265    27App    1.128350    38Ap     1.128373
      39Ap     1.141492    28App    1.163520    40Ap     1.163555
      41Ap     1.223738    42Ap     1.274067    29App    1.274432
      43Ap     1.279193    44Ap     1.324089    30App    1.324194
      45Ap     1.356511    31App    1.365738    46Ap     1.366208
      32App    1.392382    47Ap     1.402796    33App    1.403264
      48Ap     1.417821    34App    1.418368    35App    1.427703
      36App    1.491482    49Ap     1.498154    50Ap     1.542296
      37App    1.542632    38App    1.574500    51Ap     1.575127
      52Ap     1.671078    53Ap     1.738449    39App    1.738692
      54Ap     1.766478    40App    1.832723    55Ap     1.832869
      41App    1.972739    56Ap     2.018136    42App    2.018616
      57Ap     2.019510    43App    2.050787    58Ap     2.052024
      59Ap     2.738757    44App    2.738852    60Ap     2.790533
      45App    2.811883    61Ap     2.888910    46App    2.890251
      62Ap     2.894595    63Ap     2.929534    47App    2.929875
      48App    2.958862    49App    2.963679    64Ap     2.964245
      65Ap     3.033320    66Ap     3.071130    50App    3.071380
      51App    3.085758    52App    3.168541    67Ap     3.168751
      68Ap     3.180560    69Ap     3.284998    53App    3.285441
      54App    3.327750    70Ap     3.327830    71Ap     3.375786
      72Ap     3.489911    55App    3.489958    56App    3.512804
      73Ap     3.526533    57App    3.567871    74Ap     3.568096
      58App    3.574322    75Ap     3.665755    59App    3.666238
      76Ap     3.680289    77Ap     3.694316    60App    3.694325
      78Ap     3.777221    61App    3.777228    79Ap     3.788331
      80Ap     3.912430    62App    3.913137    81Ap     4.034881
      63App    4.111102    82Ap     4.111541    83Ap     4.147317
      64App    4.147701    84Ap     4.171471    85Ap     4.202665
      86Ap     4.203906    65App    4.203942    66App    4.209652
      87Ap     4.314739    67App    4.316323    68App    4.360209
      69App    4.423138    88Ap     4.424283    70App    4.443710
      89Ap     4.515998    71App    4.516374    90Ap     4.578684
      72App    4.579257    91Ap     4.617390    92Ap     4.708943
      73App    4.774570    93Ap     4.774882    74App    4.838266
      94Ap     4.963171    75App    5.001357    95Ap     5.001924
      96Ap     5.225320    97Ap     5.249580    76App    5.250055
      98Ap     5.353535    77App    5.353573    78App    5.481311

    Beta Occupied:

       1App  -10.167803     1Ap   -10.167790     2Ap   -10.167745
       3Ap   -10.166584     4Ap    -0.781061     2App   -0.684074
       5Ap    -0.683921     6Ap    -0.511789     7Ap    -0.431129
       3App   -0.431095     8Ap    -0.421663     4App   -0.376570
       9Ap    -0.376475     5App   -0.362781     6App   -0.333465
      10Ap    -0.332879

    Beta Virtual:

      11Ap    -0.025872    12Ap     0.077183    13Ap     0.135061
       7App    0.135157    14Ap     0.144497     8App    0.144596
      15Ap     0.163191     9App    0.182208    16Ap     0.182286
      10App    0.215298    17Ap     0.218886    18Ap     0.282203
      11App    0.282424    19Ap     0.400169    12App    0.400391
      20Ap     0.419797    13App    0.427091    21Ap     0.427104
      22Ap     0.468326    14App    0.497807    23Ap     0.497871
      15App    0.513785    24Ap     0.556133    25Ap     0.584174
      16App    0.584269    26Ap     0.597513    17App    0.597567
      27Ap     0.609364    28Ap     0.628524    18App    0.632315
      19App    0.639866    29Ap     0.639874    30Ap     0.666428
      20App    0.666613    21App    0.686716    31Ap     0.686738
      32Ap     0.757576    22App    0.830562    33Ap     0.830565
      23App    0.854999    24App    0.922683    34Ap     0.922902
      25App    0.946242    35Ap     0.953731    36Ap     0.966422
      26App    0.966513    37Ap     1.008466    27App    1.132425
      38Ap     1.132427    39Ap     1.154944    28App    1.168557
      40Ap     1.168622    41Ap     1.232695    42Ap     1.279614
      29App    1.280033    43Ap     1.284891    44Ap     1.329114
      30App    1.329242    45Ap     1.365909    31App    1.371025
      46Ap     1.371550    32App    1.393457    47Ap     1.406192
      33App    1.406681    48Ap     1.422859    34App    1.423360
      35App    1.427982    36App    1.492504    49Ap     1.508606
      50Ap     1.546720    37App    1.547085    38App    1.582361
      51Ap     1.582976    52Ap     1.675977    53Ap     1.744208
      39App    1.744447    54Ap     1.777244    40App    1.836581
      55Ap     1.836724    41App    1.973586    42App    2.024889
      56Ap     2.025668    57Ap     2.039586    43App    2.057607
      58Ap     2.058888    59Ap     2.747108    44App    2.747190
      45App    2.812297    60Ap     2.815631    61Ap     2.901585
      46App    2.902899    62Ap     2.924103    63Ap     2.931986
      47App    2.932390    48App    2.959923    49App    2.968197
      64Ap     2.968742    65Ap     3.041470    66Ap     3.081019
      50App    3.081287    51App    3.087573    52App    3.184288
      67Ap     3.184508    68Ap     3.188254    69Ap     3.289859
      53App    3.290240    54App    3.331507    70Ap     3.331612
      71Ap     3.383579    72Ap     3.492586    55App    3.492663
      56App    3.511167    73Ap     3.529564    57App    3.574164
      58App    3.581441    74Ap     3.581562    75Ap     3.670334
      59App    3.670987    76Ap     3.693550    60App    3.725770
      77Ap     3.726117    78Ap     3.781629    61App    3.781747
      79Ap     3.816902    80Ap     3.922282    62App    3.923032
      81Ap     4.045831    63App    4.117920    82Ap     4.118360
      83Ap     4.154555    64App    4.154863    84Ap     4.185556
      85Ap     4.209893    65App    4.210013    86Ap     4.210633
      66App    4.214245    87Ap     4.322082    67App    4.323733
      68App    4.363526    69App    4.431343    88Ap     4.432495
      70App    4.446552    89Ap     4.523837    71App    4.524184
      90Ap     4.589265    72App    4.589795    91Ap     4.624490
      92Ap     4.719404    73App    4.781493    93Ap     4.781767
      74App    4.841171    94Ap     4.967978    75App    5.005421
      95Ap     5.005991    96Ap     5.231000    97Ap     5.251359
      76App    5.251817    98Ap     5.359967    77App    5.360045
      78App    5.483620

    Final Occupation by Irrep:
             Ap   App
    DOCC [    10,    6 ]
    SOCC [     1,    0 ]

  @DF-UKS Final Energy:  -157.81305830747556

   => Energetics <=

    Nuclear Repulsion Energy =            125.3892903874500604
    One-Electron Energy =                -458.7381844321949984
    Two-Electron Energy =                 195.8428722996730471
    DFT Exchange-Correlation Energy =     -20.3070365624036597
    Empirical Dispersion Energy =           0.0000000000000000
    VV10 Nonlocal Energy =                  0.0000000000000000
    Total Energy =                       -157.8130583074755577

  UHF NO Occupations:
  HONO-2 :    9 Ap 1.9995985
  HONO-1 :   10 Ap 1.9989796
  HONO-0 :   11 Ap 1.0000000
  LUNO+0 :   12 Ap 0.0010204
  LUNO+1 :   13 Ap 0.0004015
  LUNO+2 :   14 Ap 0.0001980
  LUNO+3 :    7App 0.0001971

Computation Completed

Properties will be evaluated at   0.000000,   0.000000,   0.000000 [a0]

Properties computed using the SCF density matrix

  Nuclear Dipole Moment: [e a0]
     X:     0.8329      Y:    -0.0031      Z:     0.0000

  Electronic Dipole Moment: [e a0]
     X:    -0.7582      Y:     0.0030      Z:     0.0000

  Dipole Moment: [e a0]
     X:     0.0747      Y:    -0.0001      Z:     0.0000     Total:     0.0747

  Dipole Moment: [D]
     X:     0.1899      Y:    -0.0001      Z:     0.0000     Total:     0.1899

*** tstop() called on n031 at Fri Nov  5 11:51:45 2021
Module time:
	user time   =     632.10 seconds =      10.54 minutes
	system time =      11.94 seconds =       0.20 minutes
	total time  =        162 seconds =       2.70 minutes
Total time:
	user time   =     632.10 seconds =      10.54 minutes
	system time =      11.94 seconds =       0.20 minutes
	total time  =        162 seconds =       2.70 minutes
Grab this energy -157.81305830747556
    Psi4 stopped on: Friday, 05 November 2021 11:51AM
    Psi4 wall time for execution: 0:02:41.96

*** Psi4 exiting successfully. Buy a developer a beer!
