                               Psi4 1.4a2.dev629

  ==> Input File <==

--------------------------------------------------------------------------
import os
memory 14 GB

molecule {
 C   -0.3233391153    0.0053431275    0.0004970904
 C    0.0624056966   -1.4001597330   -2.4266626635
 C    0.0608727731    2.8018174235    0.0003842649
 C    0.0600201734   -1.3999099446    2.4270003985
 H    2.0832464794   -1.6452882897   -2.8475844009
 H   -0.7651040393   -0.3863949580   -4.0263709696
 H   -0.7626168423   -3.2950373762   -2.3482471412
 H    2.0870369934    3.2875018633    0.0001828001
 H   -0.7643934795    3.6789612268    1.6765884205
 H   -0.7667899172    3.6798900579   -1.6771922244
 H    2.0903880584   -1.6447084750    2.8469394628
 H   -0.7671243942   -3.2908829959    2.3512811821
 H   -0.7672102634   -0.3911562400    4.0231837802
units bohr
0 2
}

basis {

assign 6-31g_2dfp_

[ 6-31g_2dfp_ ]

spherical

!----------------------------------------------------------------------
! Basis Set Exchange
! Version v0.8.13
! https://www.basissetexchange.org
!----------------------------------------------------------------------
!   Basis set: 6-31G(2df,p)
! Description: 6-31G(2df,p)
!        Role: orbital
!     Version: 0  (Data from the original Basis Set Exchange)
!----------------------------------------------------------------------

****
H     0
S    3   1.00
     18.7311370              0.03349460
      2.8253937              0.23472695
      0.6401217              0.81375733
S    1   1.00
      0.1612778              1.00000000
P    1   1.00
      1.5000000              1.0000000
P    1   1.00
      0.3750000              1.0000000
****
B     0
S    6   1.00
   2068.8823000              0.0018663
    310.6495700              0.0142515
     70.6830330              0.0695516
     19.8610800              0.2325729
      6.2993048              0.4670787
      2.1270270              0.3634314
SP   3   1.00
      4.7279710             -0.1303938              0.0745976
      1.1903377             -0.1307889              0.3078467
      0.3594117              1.1309444              0.7434568
SP   1   1.00
      0.1267512              1.0000000              1.0000000
D    1   1.00
      0.8020000              1.0000000
D    1   1.00
      0.2005000              1.0000000
F    1   1.00
      0.5000000              1.0000000
****
C     0
S    6   1.00
   3047.5249000              0.0018347
    457.3695100              0.0140373
    103.9486900              0.0688426
     29.2101550              0.2321844
      9.2866630              0.4679413
      3.1639270              0.3623120
SP   3   1.00
      7.8682724             -0.1193324              0.0689991
      1.8812885             -0.1608542              0.3164240
      0.5442493              1.1434564              0.7443083
SP   1   1.00
      0.1687144              1.0000000              1.0000000
D    1   1.00
      1.2520000              1.0000000
D    1   1.00
      0.3130000              1.0000000
F    1   1.00
      0.8000000              1.0000000
****
N     0
S    6   1.00
   4173.5110000              0.0018348
    627.4579000              0.0139950
    142.9021000              0.0685870
     40.2343300              0.2322410
     12.8202100              0.4690700
      4.3904370              0.3604550
SP   3   1.00
     11.6263580             -0.1149610              0.0675800
      2.7162800             -0.1691180              0.3239070
      0.7722180              1.1458520              0.7408950
SP   1   1.00
      0.2120313              1.0000000              1.0000000
D    1   1.00
      1.8260000              1.0000000
D    1   1.00
      0.4565000              1.0000000
F    1   1.00
      1.0000000              1.0000000
****
O     0
S    6   1.00
   5484.6717000              0.0018311
    825.2349500              0.0139501
    188.0469600              0.0684451
     52.9645000              0.2327143
     16.8975700              0.4701930
      5.7996353              0.3585209
SP   3   1.00
     15.5396160             -0.1107775              0.0708743
      3.5999336             -0.1480263              0.3397528
      1.0137618              1.1307670              0.7271586
SP   1   1.00
      0.2700058              1.0000000              1.0000000
D    1   1.00
      2.5840000              1.0000000
D    1   1.00
      0.6460000              1.0000000
F    1   1.00
      1.4000000              1.0000000
****
F     0
S    6   1.00
   7001.7130900              0.0018196169
   1051.3660900              0.0139160796
    239.2856900              0.0684053245
     67.3974453              0.233185760
     21.5199573              0.471267439
      7.40310130             0.356618546
SP   3   1.00
     20.8479528             -0.108506975            0.0716287243
      4.80830834            -0.146451658            0.3459121030
      1.34406986             1.128688580            0.7224699570
SP   1   1.00
      0.358151393            1.0000000              1.0000000
D    1   1.00
      3.5000000              1.0000000
D    1   1.00
      0.8750000              1.0000000
F    1   1.00
      1.8500000              1.0000000
****
Al     0
S    6   1.00
  13983.1000000              0.00194267
   2098.7500000              0.0148599
    477.7050000              0.0728494
    134.3600000              0.2468300
     42.8709000              0.4872580
     14.5189000              0.3234960
SP   6   1.00
    239.6680000             -0.00292619             0.00460285
     57.4419000             -0.0374080              0.0331990
     18.2859000             -0.1144870              0.1362820
      6.5991400              0.1156350              0.3304760
      2.4904900              0.6125950              0.4491460
      0.9445400              0.3937990              0.2657040
SP   3   1.00
      1.2779000             -0.2276060             -0.0175130
      0.3975900              0.00144583             0.2445330
      0.1600950              1.0927900              0.8049340
SP   1   1.00
      0.0556577              1.0000000              1.0000000
D    1   1.00
      0.6500000              1.0000000
D    1   1.00
      0.1625000              1.0000000
F    1   1.00
      0.2500000              1.0000000
****
Si     0
S    6   1.00
  16115.9000000              0.00195948
   2425.5800000              0.01492880
    553.8670000              0.07284780
    156.3400000              0.24613000
     50.0683000              0.48591400
     17.0178000              0.32500200
SP   6   1.00
    292.7180000             -0.00278094             0.00443826
     69.8731000             -0.03571460             0.03266790
     22.3363000             -0.11498500             0.13472100
      8.1503900              0.09356340             0.32867800
      3.1345800              0.60301700             0.44964000
      1.2254300              0.41895900             0.26137200
SP   3   1.00
      1.7273800             -0.24463000            -0.01779510
      0.5729220              0.00431572             0.25353900
      0.2221920              1.09818000             0.80066900
SP   1   1.00
      0.0778369              1.00000000             1.00000000
D    1   1.00
      0.9000000              1.0000000
D    1   1.00
      0.2250000              1.0000000
F    1   1.00
      0.3200000              1.0000000
****
P     0
S    6   1.00
  19413.3000000              0.0018516
   2909.4200000              0.0142062
    661.3640000              0.0699995
    185.7590000              0.2400790
     59.1943000              0.4847620
     20.0310000              0.3352000
SP   6   1.00
    339.4780000             -0.00278217             0.00456462
     81.0101000             -0.0360499              0.03369360
     25.8780000             -0.1166310              0.13975500
      9.4522100              0.0968328              0.33936200
      3.6656600              0.6144180              0.45092100
      1.4674600              0.4037980              0.23858600
SP   3   1.00
      2.1562300             -0.2529230             -0.01776530
      0.7489970              0.0328517              0.27405800
      0.2831450              1.0812500              0.78542100
SP   1   1.00
      0.0998317              1.0000000              1.00000000
D    1   1.00
      1.1000000              1.0000000
D    1   1.00
      0.2750000              1.0000000
F    1   1.00
      0.4500000              1.0000000
****
S     0
S    6   1.00
  21917.1000000              0.0018690
   3301.4900000              0.0142300
    754.1460000              0.0696960
    212.7110000              0.2384870
     67.9896000              0.4833070
     23.0515000              0.3380740
SP   6   1.00
    423.7350000             -0.0023767              0.0040610
    100.7100000             -0.0316930              0.0306810
     32.1599000             -0.1133170              0.1304520
     11.8079000              0.0560900              0.3272050
      4.6311000              0.5922550              0.4528510
      1.8702500              0.4550060              0.2560420
SP   3   1.00
      2.6158400             -0.2503740             -0.0145110
      0.9221670              0.0669570              0.3102630
      0.3412870              1.0545100              0.7544830
SP   1   1.00
      0.1171670              1.0000000              1.0000000
D    1   1.00
      1.3000000              1.0000000
D    1   1.00
      0.3250000              1.0000000
F    1   1.00
      0.5500000              1.0000000
****
Cl     0
S    6   1.00
  25180.1000000              0.0018330
   3780.3500000              0.0140340
    860.4740000              0.0690970
    242.1450000              0.2374520
     77.3349000              0.4830340
     26.2470000              0.3398560
SP   6   1.00
    491.7650000             -0.0022974              0.0039894
    116.9840000             -0.0307140              0.0303180
     37.4153000             -0.1125280              0.1298800
     13.7834000              0.0450160              0.3279510
      5.4521500              0.5893530              0.4535270
      2.2258800              0.4652060              0.2521540
SP   3   1.00
      3.1864900             -0.2518300             -0.0142990
      1.1442700              0.0615890              0.3235720
      0.4203770              1.0601800              0.7435070
SP   1   1.00
      0.1426570              1.0000000              1.0000000
D    1   1.00
      1.5000000              1.0000000
D    1   1.00
      0.3750000              1.0000000
F    1   1.00
      0.7000000              1.0000000
****
}

set {
reference uhf
freeze_core true
e_convergence 10
d_convergence 10
dft_spherical_points 1202
dft_radial_points 99
}

e = energy('b3lyp')

print_out('Grab this energy {0}'.format(e))
--------------------------------------------------------------------------

    Molecular point group: c1

    Geometry (in Bohr), charge = 0, multiplicity = 2:

       Center              X                  Y                   Z               Mass
    ------------   -----------------  -----------------  -----------------  -----------------
         C           -0.323339021428     0.003977803568     0.000262284829    12.000000000000
         C            0.062405790472    -1.401525056932    -2.426897469071    12.000000000000
         C            0.060872866972     2.800452099568     0.000149459329    12.000000000000
         C            0.060020267272    -1.401275268532     2.426765592929    12.000000000000
         H            2.083246573272    -1.646653613632    -2.847819206471     1.007825032230
         H           -0.765103945428    -0.387760281932    -4.026605775171     1.007825032230
         H           -0.762616748428    -3.296402700132    -2.348481946771     1.007825032230
         H            2.087037087272     3.286136539368    -0.000052005471     1.007825032230
         H           -0.764393385628     3.677595902868     1.676353614929     1.007825032230
         H           -0.766789823328     3.678524733968    -1.677427029971     1.007825032230
         H            2.090388152272    -1.646073798932     2.846704657229     1.007825032230
         H           -0.767124300328    -3.292248319832     2.351046376529     1.007825032230
         H           -0.767210169528    -0.392521563932     4.022948974629     1.007825032230

  Charge       = 0
  Multiplicity = 2
  Basis Set: ANONYMOUS53ABE061
    Blend: 6-31G_2DFP_
  Basis Set: (ANONYMOUS53ABE061 AUX)
    Blend: DEF2-UNIVERSAL-JKFIT

    Orbital Energies [Eh]
    ---------------------

    Alpha Occupied:

       1A    -10.180342     2A    -10.167060     3A    -10.167014
       4A    -10.166970     5A     -0.797769     6A     -0.686376
       7A     -0.685999     8A     -0.530777     9A     -0.441133
      10A     -0.434886    11A     -0.434451    12A     -0.382718
      13A     -0.382481    14A     -0.363609    15A     -0.338519
      16A     -0.337477    17A     -0.168960

    Alpha Virtual:

      18A      0.076071    19A      0.133987    20A      0.134321
      21A      0.142438    22A      0.142811    23A      0.154881
      24A      0.178693    25A      0.178866    26A      0.203544
      27A      0.214803    28A      0.275685    29A      0.276285
      30A      0.399102    31A      0.399355    32A      0.403344
      33A      0.424013    34A      0.424182    35A      0.456592
      36A      0.495234    37A      0.495542    38A      0.512161
      39A      0.513979    40A      0.578555    41A      0.579070
      42A      0.591483    43A      0.591793    44A      0.602584
      45A      0.624751    46A      0.631755    47A      0.636065
      48A      0.636462    49A      0.663039    50A      0.663799
      51A      0.683672    52A      0.684036    53A      0.734995
      54A      0.825294    55A      0.825511    56A      0.853921
      57A      0.914780    58A      0.915262    59A      0.944126
      60A      0.944616    61A      0.961074    62A      0.961518
      63A      1.003453    64A      1.127864    65A      1.128312
      66A      1.142256    67A      1.162875    68A      1.163668
      69A      1.223330    70A      1.274001    71A      1.274962
      72A      1.279369    73A      1.324252    74A      1.324460
      75A      1.355961    76A      1.365774    77A      1.366330
      78A      1.392439    79A      1.403586    80A      1.404523
      81A      1.416502    82A      1.417734    83A      1.427925
      84A      1.491486    85A      1.499077    86A      1.542382
      87A      1.543302    88A      1.574283    89A      1.574608
      90A      1.669817    91A      1.739133    92A      1.739673
      93A      1.768349    94A      1.830542    95A      1.832245
      96A      1.971717    97A      2.018056    98A      2.018495
      99A      2.019854   100A      2.051575   101A      2.053747
     102A      2.738012   103A      2.738960   104A      2.790926
     105A      2.811422   106A      2.889366   107A      2.890511
     108A      2.894961   109A      2.929110   110A      2.929884
     111A      2.958993   112A      2.964015   113A      2.964745
     114A      3.034009   115A      3.070774   116A      3.071796
     117A      3.084365   118A      3.168543   119A      3.168963
     120A      3.180672   121A      3.284871   122A      3.285754
     123A      3.326718   124A      3.327591   125A      3.375613
     126A      3.489574   127A      3.490713   128A      3.514024
     129A      3.525333   130A      3.568134   131A      3.568644
     132A      3.575159   133A      3.665605   134A      3.667160
     135A      3.679654   136A      3.693975   137A      3.694268
     138A      3.776077   139A      3.777500   140A      3.789181
     141A      3.911758   142A      3.912701   143A      4.034418
     144A      4.110795   145A      4.111911   146A      4.146968
     147A      4.149215   148A      4.173245   149A      4.201898
     150A      4.202456   151A      4.204402   152A      4.210942
     153A      4.314992   154A      4.317004   155A      4.358986
     156A      4.424123   157A      4.424791   158A      4.443438
     159A      4.516136   160A      4.517562   161A      4.577770
     162A      4.578463   163A      4.617858   164A      4.709466
     165A      4.773886   166A      4.775332   167A      4.836887
     168A      4.962829   169A      5.002201   170A      5.003746
     171A      5.228008   172A      5.244728   173A      5.248897
     174A      5.354220   175A      5.356854   176A      5.479376

    Beta Occupied:

       1A    -10.167816     2A    -10.167767     3A    -10.167740
       4A    -10.166519     5A     -0.781094     6A     -0.684166
       7A     -0.683814     8A     -0.511749     9A     -0.431257
      10A     -0.430836    11A     -0.421816    12A     -0.376772
      13A     -0.376598    14A     -0.362592    15A     -0.333651
      16A     -0.332591

    Beta Virtual:

      17A     -0.025743    18A      0.077080    19A      0.134888
      20A      0.135201    21A      0.144327    22A      0.144665
      23A      0.163338    24A      0.182345    25A      0.182557
      26A      0.215033    27A      0.218927    28A      0.282065
      29A      0.282600    30A      0.400274    31A      0.400521
      32A      0.419790    33A      0.426824    34A      0.426993
      35A      0.468499    36A      0.497488    37A      0.497810
      38A      0.513896    39A      0.556321    40A      0.584098
      41A      0.584631    42A      0.597639    43A      0.597996
      44A      0.610005    45A      0.628126    46A      0.631920
      47A      0.639337    48A      0.639754    49A      0.666636
      50A      0.667332    51A      0.686324    52A      0.686654
      53A      0.757517    54A      0.830467    55A      0.830675
      56A      0.855276    57A      0.922749    58A      0.923235
      59A      0.945963    60A      0.953545    61A      0.966357
      62A      0.966847    63A      1.008693    64A      1.131921
      65A      1.132330    66A      1.155612    67A      1.167946
      68A      1.168747    69A      1.232301    70A      1.279645
      71A      1.280513    72A      1.285124    73A      1.329254
      74A      1.329437    75A      1.365370    76A      1.371069
      77A      1.371526    78A      1.393499    79A      1.406997
      80A      1.408041    81A      1.421540    82A      1.422794
      83A      1.428198    84A      1.492535    85A      1.509520
      86A      1.546803    87A      1.547695    88A      1.582171
      89A      1.582465    90A      1.674664    91A      1.744897
      92A      1.745439    93A      1.779121    94A      1.834387
      95A      1.836112    96A      1.972578    97A      2.024716
      98A      2.026176    99A      2.039676   100A      2.058336
     101A      2.060428   102A      2.746339   103A      2.747305
     104A      2.811834   105A      2.816062   106A      2.902156
     107A      2.903115   108A      2.924645   109A      2.931537
     110A      2.932422   111A      2.960058   112A      2.968547
     113A      2.969304   114A      3.041943   115A      3.080746
     116A      3.081618   117A      3.086206   118A      3.184184
     119A      3.184683   120A      3.188494   121A      3.289688
     122A      3.290534   123A      3.330511   124A      3.331410
     125A      3.383431   126A      3.492302   127A      3.493440
     128A      3.512395   129A      3.528379   130A      3.574988
     131A      3.581502   132A      3.581988   133A      3.670329
     134A      3.671931   135A      3.692950   136A      3.725528
     137A      3.725974   138A      3.780616   139A      3.782045
     140A      3.817688   141A      3.921571   142A      3.922527
     143A      4.045304   144A      4.117653   145A      4.118686
     146A      4.154229   147A      4.156379   148A      4.187294
     149A      4.208019   150A      4.209314   151A      4.211274
     152A      4.215418   153A      4.322392   154A      4.324481
     155A      4.362349   156A      4.432333   157A      4.433005
     158A      4.446327   159A      4.523916   160A      4.525363
     161A      4.588341   162A      4.589070   163A      4.625075
     164A      4.719812   165A      4.780811   166A      4.782316
     167A      4.839804   168A      4.967621   169A      5.006264
     170A      5.007765   171A      5.233722   172A      5.246524
     173A      5.250670   174A      5.360681   175A      5.363354
     176A      5.481697

    Final Occupation by Irrep:
              A
    DOCC [    16 ]
    SOCC [     1 ]

  @DF-UKS Final Energy:  -157.81305449380250

   => Energetics <=

    Nuclear Repulsion Energy =            125.3947168542756287
    One-Electron Energy =                -458.7490527667836773
    Two-Electron Energy =                 195.8484302639797647
    DFT Exchange-Correlation Energy =     -20.3071488452741988
    Empirical Dispersion Energy =           0.0000000000000000
    VV10 Nonlocal Energy =                  0.0000000000000000
    Total Energy =                       -157.8130544938024968

  UHF NO Occupations:
  HONO-2 :   15  A 1.9996008
  HONO-1 :   16  A 1.9989804
  HONO-0 :   17  A 1.0000000
  LUNO+0 :   18  A 0.0010196
  LUNO+1 :   19  A 0.0003992
  LUNO+2 :   20  A 0.0001986
  LUNO+3 :   21  A 0.0001965

Computation Completed

Properties will be evaluated at   0.000000,   0.000000,   0.000000 [a0]

Properties computed using the SCF density matrix

  Nuclear Dipole Moment: [e a0]
     X:     0.8272      Y:    -0.0096      Z:    -0.0017

  Electronic Dipole Moment: [e a0]
     X:    -0.7493      Y:     0.0109      Z:     0.0023

  Dipole Moment: [e a0]
     X:     0.0779      Y:     0.0012      Z:     0.0006     Total:     0.0779

  Dipole Moment: [D]
     X:     0.1980      Y:     0.0031      Z:     0.0016     Total:     0.1981

*** tstop() called on n082 at Fri Nov  5 13:41:52 2021
Module time:
	user time   =     491.10 seconds =       8.19 minutes
	system time =       4.48 seconds =       0.07 minutes
	total time  =        125 seconds =       2.08 minutes
Total time:
	user time   =     491.10 seconds =       8.19 minutes
	system time =       4.48 seconds =       0.07 minutes
	total time  =        125 seconds =       2.08 minutes
Grab this energy -157.8130544938025
    Psi4 stopped on: Friday, 05 November 2021 01:41PM
    Psi4 wall time for execution: 0:02:04.61

*** Psi4 exiting successfully. Buy a developer a beer!
