                               Psi4 1.4a2.dev629

  ==> Input File <==

--------------------------------------------------------------------------
import os
memory 14 GB

molecule {
 C   -0.3233401929    0.0004291425    0.0024290278
 C    0.0616739727   -1.4009485499   -2.4276549455
 C    0.0613292406    2.8016513389    0.0012507573
 C    0.0602981046   -1.3987784071    2.4264022180
 H    2.0896150803   -1.6396666609   -2.8491697750
 H   -0.7637515679   -0.3922039828   -4.0235712075
 H   -0.7651134948   -3.2970626511   -2.3516120095
 H    2.0858818075    3.2881108334   -0.0033527875
 H   -0.7609318989    3.6830015759    1.6807492064
 H   -0.7696569496    3.6772093235   -1.6740693366
 H    2.0851693919   -1.6432770151    2.8487309520
 H   -0.7719235026   -3.2905787070    2.3462375184
 H   -0.7618578676   -0.3879105540    4.0236303816
units bohr
0 2
}

basis {

assign 6-31g_2dfp_

[ 6-31g_2dfp_ ]

spherical

!----------------------------------------------------------------------
! Basis Set Exchange
! Version v0.8.13
! https://www.basissetexchange.org
!----------------------------------------------------------------------
!   Basis set: 6-31G(2df,p)
! Description: 6-31G(2df,p)
!        Role: orbital
!     Version: 0  (Data from the original Basis Set Exchange)
!----------------------------------------------------------------------

****
H     0
S    3   1.00
     18.7311370              0.03349460
      2.8253937              0.23472695
      0.6401217              0.81375733
S    1   1.00
      0.1612778              1.00000000
P    1   1.00
      1.5000000              1.0000000
P    1   1.00
      0.3750000              1.0000000
****
B     0
S    6   1.00
   2068.8823000              0.0018663
    310.6495700              0.0142515
     70.6830330              0.0695516
     19.8610800              0.2325729
      6.2993048              0.4670787
      2.1270270              0.3634314
SP   3   1.00
      4.7279710             -0.1303938              0.0745976
      1.1903377             -0.1307889              0.3078467
      0.3594117              1.1309444              0.7434568
SP   1   1.00
      0.1267512              1.0000000              1.0000000
D    1   1.00
      0.8020000              1.0000000
D    1   1.00
      0.2005000              1.0000000
F    1   1.00
      0.5000000              1.0000000
****
C     0
S    6   1.00
   3047.5249000              0.0018347
    457.3695100              0.0140373
    103.9486900              0.0688426
     29.2101550              0.2321844
      9.2866630              0.4679413
      3.1639270              0.3623120
SP   3   1.00
      7.8682724             -0.1193324              0.0689991
      1.8812885             -0.1608542              0.3164240
      0.5442493              1.1434564              0.7443083
SP   1   1.00
      0.1687144              1.0000000              1.0000000
D    1   1.00
      1.2520000              1.0000000
D    1   1.00
      0.3130000              1.0000000
F    1   1.00
      0.8000000              1.0000000
****
N     0
S    6   1.00
   4173.5110000              0.0018348
    627.4579000              0.0139950
    142.9021000              0.0685870
     40.2343300              0.2322410
     12.8202100              0.4690700
      4.3904370              0.3604550
SP   3   1.00
     11.6263580             -0.1149610              0.0675800
      2.7162800             -0.1691180              0.3239070
      0.7722180              1.1458520              0.7408950
SP   1   1.00
      0.2120313              1.0000000              1.0000000
D    1   1.00
      1.8260000              1.0000000
D    1   1.00
      0.4565000              1.0000000
F    1   1.00
      1.0000000              1.0000000
****
O     0
S    6   1.00
   5484.6717000              0.0018311
    825.2349500              0.0139501
    188.0469600              0.0684451
     52.9645000              0.2327143
     16.8975700              0.4701930
      5.7996353              0.3585209
SP   3   1.00
     15.5396160             -0.1107775              0.0708743
      3.5999336             -0.1480263              0.3397528
      1.0137618              1.1307670              0.7271586
SP   1   1.00
      0.2700058              1.0000000              1.0000000
D    1   1.00
      2.5840000              1.0000000
D    1   1.00
      0.6460000              1.0000000
F    1   1.00
      1.4000000              1.0000000
****
F     0
S    6   1.00
   7001.7130900              0.0018196169
   1051.3660900              0.0139160796
    239.2856900              0.0684053245
     67.3974453              0.233185760
     21.5199573              0.471267439
      7.40310130             0.356618546
SP   3   1.00
     20.8479528             -0.108506975            0.0716287243
      4.80830834            -0.146451658            0.3459121030
      1.34406986             1.128688580            0.7224699570
SP   1   1.00
      0.358151393            1.0000000              1.0000000
D    1   1.00
      3.5000000              1.0000000
D    1   1.00
      0.8750000              1.0000000
F    1   1.00
      1.8500000              1.0000000
****
Al     0
S    6   1.00
  13983.1000000              0.00194267
   2098.7500000              0.0148599
    477.7050000              0.0728494
    134.3600000              0.2468300
     42.8709000              0.4872580
     14.5189000              0.3234960
SP   6   1.00
    239.6680000             -0.00292619             0.00460285
     57.4419000             -0.0374080              0.0331990
     18.2859000             -0.1144870              0.1362820
      6.5991400              0.1156350              0.3304760
      2.4904900              0.6125950              0.4491460
      0.9445400              0.3937990              0.2657040
SP   3   1.00
      1.2779000             -0.2276060             -0.0175130
      0.3975900              0.00144583             0.2445330
      0.1600950              1.0927900              0.8049340
SP   1   1.00
      0.0556577              1.0000000              1.0000000
D    1   1.00
      0.6500000              1.0000000
D    1   1.00
      0.1625000              1.0000000
F    1   1.00
      0.2500000              1.0000000
****
Si     0
S    6   1.00
  16115.9000000              0.00195948
   2425.5800000              0.01492880
    553.8670000              0.07284780
    156.3400000              0.24613000
     50.0683000              0.48591400
     17.0178000              0.32500200
SP   6   1.00
    292.7180000             -0.00278094             0.00443826
     69.8731000             -0.03571460             0.03266790
     22.3363000             -0.11498500             0.13472100
      8.1503900              0.09356340             0.32867800
      3.1345800              0.60301700             0.44964000
      1.2254300              0.41895900             0.26137200
SP   3   1.00
      1.7273800             -0.24463000            -0.01779510
      0.5729220              0.00431572             0.25353900
      0.2221920              1.09818000             0.80066900
SP   1   1.00
      0.0778369              1.00000000             1.00000000
D    1   1.00
      0.9000000              1.0000000
D    1   1.00
      0.2250000              1.0000000
F    1   1.00
      0.3200000              1.0000000
****
P     0
S    6   1.00
  19413.3000000              0.0018516
   2909.4200000              0.0142062
    661.3640000              0.0699995
    185.7590000              0.2400790
     59.1943000              0.4847620
     20.0310000              0.3352000
SP   6   1.00
    339.4780000             -0.00278217             0.00456462
     81.0101000             -0.0360499              0.03369360
     25.8780000             -0.1166310              0.13975500
      9.4522100              0.0968328              0.33936200
      3.6656600              0.6144180              0.45092100
      1.4674600              0.4037980              0.23858600
SP   3   1.00
      2.1562300             -0.2529230             -0.01776530
      0.7489970              0.0328517              0.27405800
      0.2831450              1.0812500              0.78542100
SP   1   1.00
      0.0998317              1.0000000              1.00000000
D    1   1.00
      1.1000000              1.0000000
D    1   1.00
      0.2750000              1.0000000
F    1   1.00
      0.4500000              1.0000000
****
S     0
S    6   1.00
  21917.1000000              0.0018690
   3301.4900000              0.0142300
    754.1460000              0.0696960
    212.7110000              0.2384870
     67.9896000              0.4833070
     23.0515000              0.3380740
SP   6   1.00
    423.7350000             -0.0023767              0.0040610
    100.7100000             -0.0316930              0.0306810
     32.1599000             -0.1133170              0.1304520
     11.8079000              0.0560900              0.3272050
      4.6311000              0.5922550              0.4528510
      1.8702500              0.4550060              0.2560420
SP   3   1.00
      2.6158400             -0.2503740             -0.0145110
      0.9221670              0.0669570              0.3102630
      0.3412870              1.0545100              0.7544830
SP   1   1.00
      0.1171670              1.0000000              1.0000000
D    1   1.00
      1.3000000              1.0000000
D    1   1.00
      0.3250000              1.0000000
F    1   1.00
      0.5500000              1.0000000
****
Cl     0
S    6   1.00
  25180.1000000              0.0018330
   3780.3500000              0.0140340
    860.4740000              0.0690970
    242.1450000              0.2374520
     77.3349000              0.4830340
     26.2470000              0.3398560
SP   6   1.00
    491.7650000             -0.0022974              0.0039894
    116.9840000             -0.0307140              0.0303180
     37.4153000             -0.1125280              0.1298800
     13.7834000              0.0450160              0.3279510
      5.4521500              0.5893530              0.4535270
      2.2258800              0.4652060              0.2521540
SP   3   1.00
      3.1864900             -0.2518300             -0.0142990
      1.1442700              0.0615890              0.3235720
      0.4203770              1.0601800              0.7435070
SP   1   1.00
      0.1426570              1.0000000              1.0000000
D    1   1.00
      1.5000000              1.0000000
D    1   1.00
      0.3750000              1.0000000
F    1   1.00
      0.7000000              1.0000000
****
}

set {
reference uhf
freeze_core true
e_convergence 10
d_convergence 10
dft_spherical_points 1202
dft_radial_points 99
}

e = energy('b3lyp')

print_out('Grab this energy {0}'.format(e))
--------------------------------------------------------------------------

    Molecular point group: c1

    Geometry (in Bohr), charge = 0, multiplicity = 2:

       Center              X                  Y                   Z               Mass
    ------------   -----------------  -----------------  -----------------  -----------------
         C           -0.323340406664    -0.000023733888     0.001961559027    12.000000000000
         C            0.061673758936    -1.401401426288    -2.428122414273    12.000000000000
         C            0.061329026836     2.801198462512     0.000783288527    12.000000000000
         C            0.060297890836    -1.399231283488     2.425934749227    12.000000000000
         H            2.089614866536    -1.640119537288    -2.849637243773     1.007825032230
         H           -0.763751781664    -0.392656859188    -4.024038676273     1.007825032230
         H           -0.765113708564    -3.297515527488    -2.352079478273     1.007825032230
         H            2.085881593736     3.287657957012    -0.003820256273     1.007825032230
         H           -0.760932112664     3.682548699512     1.680281737627     1.007825032230
         H           -0.769657163364     3.676756447112    -1.674536805373     1.007825032230
         H            2.085169178136    -1.643729891488     2.848263483227     1.007825032230
         H           -0.771923716364    -3.291031583388     2.345770049627     1.007825032230
         H           -0.761858081364    -0.388363430388     4.023162912827     1.007825032230

  Charge       = 0
  Multiplicity = 2
  Basis Set: ANONYMOUSDB24F8BC
    Blend: 6-31G_2DFP_
  Basis Set: (ANONYMOUSDB24F8BC AUX)
    Blend: DEF2-UNIVERSAL-JKFIT

    Orbital Energies [Eh]
    ---------------------

    Alpha Occupied:

       1A    -10.180342     2A    -10.167200     3A    -10.167022
       4A    -10.166822     5A     -0.797768     6A     -0.686342
       7A     -0.686033     8A     -0.530778     9A     -0.441127
      10A     -0.434869    11A     -0.434471    12A     -0.382649
      13A     -0.382549    14A     -0.363611    15A     -0.338217
      16A     -0.337778    17A     -0.168961

    Alpha Virtual:

      18A      0.076070    19A      0.134024    20A      0.134283
      21A      0.142421    22A      0.142831    23A      0.154882
      24A      0.178682    25A      0.178872    26A      0.203547
      27A      0.214803    28A      0.275632    29A      0.276340
      30A      0.398978    31A      0.399465    32A      0.403358
      33A      0.423932    34A      0.424264    35A      0.456594
      36A      0.495318    37A      0.495461    38A      0.512161
      39A      0.513979    40A      0.578618    41A      0.579009
      42A      0.591364    43A      0.591904    44A      0.602573
      45A      0.624717    46A      0.631764    47A      0.635951
      48A      0.636602    49A      0.663119    50A      0.663706
      51A      0.683656    52A      0.684065    53A      0.734995
      54A      0.825152    55A      0.825662    56A      0.853916
      57A      0.914778    58A      0.915274    59A      0.944122
      60A      0.944607    61A      0.961213    62A      0.961378
      63A      1.003457    64A      1.127814    65A      1.128389
      66A      1.142210    67A      1.163147    68A      1.163419
      69A      1.223324    70A      1.274182    71A      1.274791
      72A      1.279362    73A      1.324110    74A      1.324593
      75A      1.355993    76A      1.365627    77A      1.366472
      78A      1.392438    79A      1.403727    80A      1.404371
      81A      1.416370    82A      1.417856    83A      1.427909
      84A      1.491497    85A      1.499075    86A      1.542703
      87A      1.542970    88A      1.574151    89A      1.574745
      90A      1.669837    91A      1.738668    92A      1.740161
      93A      1.768320    94A      1.830514    95A      1.832257
      96A      1.971756    97A      2.017755    98A      2.018541
      99A      2.020075   100A      2.051539   101A      2.053776
     102A      2.738289   103A      2.738673   104A      2.790929
     105A      2.811421   106A      2.889476   107A      2.890376
     108A      2.894994   109A      2.929328   110A      2.929672
     111A      2.958959   112A      2.964136   113A      2.964658
     114A      3.034009   115A      3.070673   116A      3.071831
     117A      3.084437   118A      3.168340   119A      3.169198
     120A      3.180616   121A      3.285144   122A      3.285478
     123A      3.326573   124A      3.327748   125A      3.375628
     126A      3.489806   127A      3.490520   128A      3.514006
     129A      3.525314   130A      3.567463   131A      3.569332
     132A      3.575123   133A      3.665862   134A      3.666906
     135A      3.679665   136A      3.693717   137A      3.694554
     138A      3.775422   139A      3.778130   140A      3.789172
     141A      3.911466   142A      3.912990   143A      4.034440
     144A      4.110187   145A      4.112480   146A      4.147433
     147A      4.148730   148A      4.173343   149A      4.202069
     150A      4.202645   151A      4.203990   152A      4.211010
     153A      4.315124   154A      4.316807   155A      4.358979
     156A      4.423712   157A      4.425197   158A      4.443458
     159A      4.515543   160A      4.518128   161A      4.577585
     162A      4.578929   163A      4.617545   164A      4.709429
     165A      4.773490   166A      4.775769   167A      4.836921
     168A      4.962850   169A      5.002248   170A      5.003686
     171A      5.227567   172A      5.246859   173A      5.247181
     174A      5.353931   175A      5.357119   176A      5.479415

    Beta Occupied:

       1A    -10.167956     2A    -10.167782     3A    -10.167585
       4A    -10.166519     5A     -0.781093     6A     -0.684136
       7A     -0.683845     8A     -0.511749     9A     -0.431245
      10A     -0.430839    11A     -0.421821    12A     -0.376722
      13A     -0.376647    14A     -0.362595    15A     -0.333337
      16A     -0.332904

    Beta Virtual:

      17A     -0.025742    18A      0.077079    19A      0.134890
      20A      0.135198    21A      0.144263    22A      0.144731
      23A      0.163339    24A      0.182355    25A      0.182542
      26A      0.215033    27A      0.218929    28A      0.281990
      29A      0.282678    30A      0.400144    31A      0.400648
      32A      0.419793    33A      0.426740    34A      0.427079
      35A      0.468503    36A      0.497579    37A      0.497721
      38A      0.513896    39A      0.556323    40A      0.584158
      41A      0.584571    42A      0.597546    43A      0.598078
      44A      0.609996    45A      0.628096    46A      0.631924
      47A      0.639250    48A      0.639871    49A      0.666702
      50A      0.667251    51A      0.686315    52A      0.686677
      53A      0.757517    54A      0.830334    55A      0.830816
      56A      0.855269    57A      0.922764    58A      0.923231
      59A      0.945959    60A      0.953533    61A      0.966490
      62A      0.966716    63A      1.008697    64A      1.131835
      65A      1.132428    66A      1.155583    67A      1.168273
      68A      1.168441    69A      1.232297    70A      1.279758
      71A      1.280405    72A      1.285121    73A      1.329107
      74A      1.329574    75A      1.365408    76A      1.370941
      77A      1.371643    78A      1.393498    79A      1.407161
      80A      1.407865    81A      1.421469    82A      1.422856
      83A      1.428180    84A      1.492547    85A      1.509518
      86A      1.547131    87A      1.547360    88A      1.582050
      89A      1.582586    90A      1.674685    91A      1.744411
      92A      1.745944    93A      1.779097    94A      1.834363
      95A      1.836119    96A      1.972616    97A      2.024874
      98A      2.025961    99A      2.039697   100A      2.058277
     101A      2.060484   102A      2.746606   103A      2.747029
     104A      2.811834   105A      2.816063   106A      2.902224
     107A      2.903049   108A      2.924636   109A      2.931818
     110A      2.932162   111A      2.960036   112A      2.968683
     113A      2.969187   114A      3.041943   115A      3.080600
     116A      3.081576   117A      3.086403   118A      3.184047
     119A      3.184931   120A      3.188358   121A      3.289932
     122A      3.290288   123A      3.330360   124A      3.331570
     125A      3.383446   126A      3.492531   127A      3.493256
     128A      3.512374   129A      3.528362   130A      3.574969
     131A      3.580799   132A      3.582683   133A      3.670791
     134A      3.671489   135A      3.692951   136A      3.725562
     137A      3.725961   138A      3.780015   139A      3.782614
     140A      3.817691   141A      3.921256   142A      3.922834
     143A      4.045328   144A      4.116896   145A      4.119407
     146A      4.154550   147A      4.156046   148A      4.187376
     149A      4.208063   150A      4.209716   151A      4.210750
     152A      4.215504   153A      4.322577   154A      4.324239
     155A      4.362342   156A      4.431948   157A      4.433381
     158A      4.446350   159A      4.523333   160A      4.525915
     161A      4.588178   162A      4.589536   163A      4.624742
     164A      4.719773   165A      4.780488   166A      4.782679
     167A      4.839839   168A      4.967644   169A      5.006272
     170A      5.007740   171A      5.233176   172A      5.248637
     173A      5.249083   174A      5.360405   175A      5.363601
     176A      5.481738

    Final Occupation by Irrep:
              A
    DOCC [    16 ]
    SOCC [     1 ]

  @DF-UKS Final Energy:  -157.81305626784390

   => Energetics <=

    Nuclear Repulsion Energy =            125.3946702190577724
    One-Electron Energy =                -458.7489668928417359
    Two-Electron Energy =                 195.8483882009665535
    DFT Exchange-Correlation Energy =     -20.3071477950265091
    Empirical Dispersion Energy =           0.0000000000000000
    VV10 Nonlocal Energy =                  0.0000000000000000
    Total Energy =                       -157.8130562678439048

  UHF NO Occupations:
  HONO-2 :   15  A 1.9996009
  HONO-1 :   16  A 1.9989805
  HONO-0 :   17  A 1.0000000
  LUNO+0 :   18  A 0.0010195
  LUNO+1 :   19  A 0.0003991
  LUNO+2 :   20  A 0.0001981
  LUNO+3 :   21  A 0.0001970

Computation Completed

Properties will be evaluated at   0.000000,   0.000000,   0.000000 [a0]

Properties computed using the SCF density matrix

  Nuclear Dipole Moment: [e a0]
     X:     0.8272      Y:    -0.0032      Z:    -0.0033

  Electronic Dipole Moment: [e a0]
     X:    -0.7493      Y:     0.0049      Z:     0.0033

  Dipole Moment: [e a0]
     X:     0.0779      Y:     0.0017      Z:    -0.0000     Total:     0.0779

  Dipole Moment: [D]
     X:     0.1980      Y:     0.0044      Z:    -0.0001     Total:     0.1981

*** tstop() called on n091 at Fri Nov  5 14:29:22 2021
Module time:
	user time   =     494.31 seconds =       8.24 minutes
	system time =       4.68 seconds =       0.08 minutes
	total time  =        125 seconds =       2.08 minutes
Total time:
	user time   =     494.31 seconds =       8.24 minutes
	system time =       4.68 seconds =       0.08 minutes
	total time  =        125 seconds =       2.08 minutes
Grab this energy -157.8130562678439
    Psi4 stopped on: Friday, 05 November 2021 02:29PM
    Psi4 wall time for execution: 0:02:05.48

*** Psi4 exiting successfully. Buy a developer a beer!
