                               Psi4 1.4a2.dev629

  ==> Input File <==

--------------------------------------------------------------------------
import os
memory 14 GB

molecule {
 C   -0.3201729919    0.0019963591   -0.0000000000
 C    0.0625421732   -1.4001325245   -2.4270907880
 C    0.0621930038    2.8007333494   -0.0000000000
 C    0.0625421732   -1.4001325245    2.4270907880
 H    2.0864898166   -1.6420430569   -2.8509693113
 H   -0.7678757530   -0.3913419521   -4.0294522096
 H   -0.7656531469   -3.2902054172   -2.3445505604
 H    2.0866908861    3.2832518146   -0.0000000000
 H   -0.7661624772    3.6807200324    1.6753303871
 H   -0.7661624772    3.6807200324   -1.6753303871
 H    2.0864898166   -1.6420430569    2.8509693113
 H   -0.7656531469   -3.2902054172    2.3445505604
 H   -0.7678757530   -0.3913419521    4.0294522096
units bohr
0 2
}

basis {

assign 6-31g_2dfp_

[ 6-31g_2dfp_ ]

spherical

!----------------------------------------------------------------------
! Basis Set Exchange
! Version v0.8.13
! https://www.basissetexchange.org
!----------------------------------------------------------------------
!   Basis set: 6-31G(2df,p)
! Description: 6-31G(2df,p)
!        Role: orbital
!     Version: 0  (Data from the original Basis Set Exchange)
!----------------------------------------------------------------------

****
H     0
S    3   1.00
     18.7311370              0.03349460
      2.8253937              0.23472695
      0.6401217              0.81375733
S    1   1.00
      0.1612778              1.00000000
P    1   1.00
      1.5000000              1.0000000
P    1   1.00
      0.3750000              1.0000000
****
B     0
S    6   1.00
   2068.8823000              0.0018663
    310.6495700              0.0142515
     70.6830330              0.0695516
     19.8610800              0.2325729
      6.2993048              0.4670787
      2.1270270              0.3634314
SP   3   1.00
      4.7279710             -0.1303938              0.0745976
      1.1903377             -0.1307889              0.3078467
      0.3594117              1.1309444              0.7434568
SP   1   1.00
      0.1267512              1.0000000              1.0000000
D    1   1.00
      0.8020000              1.0000000
D    1   1.00
      0.2005000              1.0000000
F    1   1.00
      0.5000000              1.0000000
****
C     0
S    6   1.00
   3047.5249000              0.0018347
    457.3695100              0.0140373
    103.9486900              0.0688426
     29.2101550              0.2321844
      9.2866630              0.4679413
      3.1639270              0.3623120
SP   3   1.00
      7.8682724             -0.1193324              0.0689991
      1.8812885             -0.1608542              0.3164240
      0.5442493              1.1434564              0.7443083
SP   1   1.00
      0.1687144              1.0000000              1.0000000
D    1   1.00
      1.2520000              1.0000000
D    1   1.00
      0.3130000              1.0000000
F    1   1.00
      0.8000000              1.0000000
****
N     0
S    6   1.00
   4173.5110000              0.0018348
    627.4579000              0.0139950
    142.9021000              0.0685870
     40.2343300              0.2322410
     12.8202100              0.4690700
      4.3904370              0.3604550
SP   3   1.00
     11.6263580             -0.1149610              0.0675800
      2.7162800             -0.1691180              0.3239070
      0.7722180              1.1458520              0.7408950
SP   1   1.00
      0.2120313              1.0000000              1.0000000
D    1   1.00
      1.8260000              1.0000000
D    1   1.00
      0.4565000              1.0000000
F    1   1.00
      1.0000000              1.0000000
****
O     0
S    6   1.00
   5484.6717000              0.0018311
    825.2349500              0.0139501
    188.0469600              0.0684451
     52.9645000              0.2327143
     16.8975700              0.4701930
      5.7996353              0.3585209
SP   3   1.00
     15.5396160             -0.1107775              0.0708743
      3.5999336             -0.1480263              0.3397528
      1.0137618              1.1307670              0.7271586
SP   1   1.00
      0.2700058              1.0000000              1.0000000
D    1   1.00
      2.5840000              1.0000000
D    1   1.00
      0.6460000              1.0000000
F    1   1.00
      1.4000000              1.0000000
****
F     0
S    6   1.00
   7001.7130900              0.0018196169
   1051.3660900              0.0139160796
    239.2856900              0.0684053245
     67.3974453              0.233185760
     21.5199573              0.471267439
      7.40310130             0.356618546
SP   3   1.00
     20.8479528             -0.108506975            0.0716287243
      4.80830834            -0.146451658            0.3459121030
      1.34406986             1.128688580            0.7224699570
SP   1   1.00
      0.358151393            1.0000000              1.0000000
D    1   1.00
      3.5000000              1.0000000
D    1   1.00
      0.8750000              1.0000000
F    1   1.00
      1.8500000              1.0000000
****
Al     0
S    6   1.00
  13983.1000000              0.00194267
   2098.7500000              0.0148599
    477.7050000              0.0728494
    134.3600000              0.2468300
     42.8709000              0.4872580
     14.5189000              0.3234960
SP   6   1.00
    239.6680000             -0.00292619             0.00460285
     57.4419000             -0.0374080              0.0331990
     18.2859000             -0.1144870              0.1362820
      6.5991400              0.1156350              0.3304760
      2.4904900              0.6125950              0.4491460
      0.9445400              0.3937990              0.2657040
SP   3   1.00
      1.2779000             -0.2276060             -0.0175130
      0.3975900              0.00144583             0.2445330
      0.1600950              1.0927900              0.8049340
SP   1   1.00
      0.0556577              1.0000000              1.0000000
D    1   1.00
      0.6500000              1.0000000
D    1   1.00
      0.1625000              1.0000000
F    1   1.00
      0.2500000              1.0000000
****
Si     0
S    6   1.00
  16115.9000000              0.00195948
   2425.5800000              0.01492880
    553.8670000              0.07284780
    156.3400000              0.24613000
     50.0683000              0.48591400
     17.0178000              0.32500200
SP   6   1.00
    292.7180000             -0.00278094             0.00443826
     69.8731000             -0.03571460             0.03266790
     22.3363000             -0.11498500             0.13472100
      8.1503900              0.09356340             0.32867800
      3.1345800              0.60301700             0.44964000
      1.2254300              0.41895900             0.26137200
SP   3   1.00
      1.7273800             -0.24463000            -0.01779510
      0.5729220              0.00431572             0.25353900
      0.2221920              1.09818000             0.80066900
SP   1   1.00
      0.0778369              1.00000000             1.00000000
D    1   1.00
      0.9000000              1.0000000
D    1   1.00
      0.2250000              1.0000000
F    1   1.00
      0.3200000              1.0000000
****
P     0
S    6   1.00
  19413.3000000              0.0018516
   2909.4200000              0.0142062
    661.3640000              0.0699995
    185.7590000              0.2400790
     59.1943000              0.4847620
     20.0310000              0.3352000
SP   6   1.00
    339.4780000             -0.00278217             0.00456462
     81.0101000             -0.0360499              0.03369360
     25.8780000             -0.1166310              0.13975500
      9.4522100              0.0968328              0.33936200
      3.6656600              0.6144180              0.45092100
      1.4674600              0.4037980              0.23858600
SP   3   1.00
      2.1562300             -0.2529230             -0.01776530
      0.7489970              0.0328517              0.27405800
      0.2831450              1.0812500              0.78542100
SP   1   1.00
      0.0998317              1.0000000              1.00000000
D    1   1.00
      1.1000000              1.0000000
D    1   1.00
      0.2750000              1.0000000
F    1   1.00
      0.4500000              1.0000000
****
S     0
S    6   1.00
  21917.1000000              0.0018690
   3301.4900000              0.0142300
    754.1460000              0.0696960
    212.7110000              0.2384870
     67.9896000              0.4833070
     23.0515000              0.3380740
SP   6   1.00
    423.7350000             -0.0023767              0.0040610
    100.7100000             -0.0316930              0.0306810
     32.1599000             -0.1133170              0.1304520
     11.8079000              0.0560900              0.3272050
      4.6311000              0.5922550              0.4528510
      1.8702500              0.4550060              0.2560420
SP   3   1.00
      2.6158400             -0.2503740             -0.0145110
      0.9221670              0.0669570              0.3102630
      0.3412870              1.0545100              0.7544830
SP   1   1.00
      0.1171670              1.0000000              1.0000000
D    1   1.00
      1.3000000              1.0000000
D    1   1.00
      0.3250000              1.0000000
F    1   1.00
      0.5500000              1.0000000
****
Cl     0
S    6   1.00
  25180.1000000              0.0018330
   3780.3500000              0.0140340
    860.4740000              0.0690970
    242.1450000              0.2374520
     77.3349000              0.4830340
     26.2470000              0.3398560
SP   6   1.00
    491.7650000             -0.0022974              0.0039894
    116.9840000             -0.0307140              0.0303180
     37.4153000             -0.1125280              0.1298800
     13.7834000              0.0450160              0.3279510
      5.4521500              0.5893530              0.4535270
      2.2258800              0.4652060              0.2521540
SP   3   1.00
      3.1864900             -0.2518300             -0.0142990
      1.1442700              0.0615890              0.3235720
      0.4203770              1.0601800              0.7435070
SP   1   1.00
      0.1426570              1.0000000              1.0000000
D    1   1.00
      1.5000000              1.0000000
D    1   1.00
      0.3750000              1.0000000
F    1   1.00
      0.7000000              1.0000000
****
}

set {
reference uhf
freeze_core true
e_convergence 10
d_convergence 10
dft_spherical_points 1202
dft_radial_points 99
}

e = energy('b3lyp')

print_out('Grab this energy {0}'.format(e))
--------------------------------------------------------------------------

    Molecular point group: cs

    Geometry (in Bohr), charge = 0, multiplicity = 2:

       Center              X                  Y                   Z               Mass
    ------------   -----------------  -----------------  -----------------  -----------------
         C           -0.321549043849     0.001522077288     0.000000000000    12.000000000000
         C            0.061166121251    -1.400606806312    -2.427090788000    12.000000000000
         C            0.060816951851     2.800259067588     0.000000000000    12.000000000000
         C            0.061166121251    -1.400606806312     2.427090788000    12.000000000000
         H            2.085113764651    -1.642517338712    -2.850969311300     1.007825032230
         H           -0.769251804949    -0.391816233912    -4.029452209600     1.007825032230
         H           -0.767029198849    -3.290679699012    -2.344550560400     1.007825032230
         H            2.085314834151     3.282777532788     0.000000000000     1.007825032230
         H           -0.767538529149     3.680245750588     1.675330387100     1.007825032230
         H           -0.767538529149     3.680245750588    -1.675330387100     1.007825032230
         H            2.085113764651    -1.642517338712     2.850969311300     1.007825032230
         H           -0.767029198849    -3.290679699012     2.344550560400     1.007825032230
         H           -0.769251804949    -0.391816233912     4.029452209600     1.007825032230

  Charge       = 0
  Multiplicity = 2
  Basis Set: ANONYMOUS7D1111C8
    Blend: 6-31G_2DFP_
  Basis Set: (ANONYMOUS7D1111C8 AUX)
    Blend: DEF2-UNIVERSAL-JKFIT

    Orbital Energies [Eh]
    ---------------------

    Alpha Occupied:

       1Ap   -10.180229     1App  -10.167097     2Ap   -10.167069
       3Ap   -10.166807     4Ap    -0.797821     5Ap    -0.686321
       2App   -0.686077     6Ap    -0.530754     7Ap    -0.441364
       8Ap    -0.434592     3App   -0.434456     9Ap    -0.382883
       4App   -0.382811     5App   -0.363330    10Ap    -0.338015
       6App   -0.337882    11Ap    -0.168845

    Alpha Virtual:

      12Ap     0.076056     7App    0.134118    13Ap     0.134177
      14Ap     0.142483     8App    0.142608    15Ap     0.154944
      16Ap     0.178845     9App    0.178921    17Ap     0.203594
      10App    0.214672    11App    0.275855    18Ap     0.276393
      12App    0.399213    19Ap     0.399272    20Ap     0.403391
      21Ap     0.424051    13App    0.424157    22Ap     0.456597
      23Ap     0.495279    14App    0.495398    15App    0.512264
      24Ap     0.513976    16App    0.578442    25Ap     0.579011
      17App    0.591645    26Ap     0.592229    27Ap     0.602886
      28Ap     0.624616    18App    0.631636    19App    0.636077
      29Ap     0.636164    30Ap     0.663550    20App    0.663617
      21App    0.683801    31Ap     0.683856    32Ap     0.735122
      33Ap     0.825365    22App    0.825794    23App    0.853869
      24App    0.915051    34Ap     0.915320    25App    0.944227
      35Ap     0.944629    36Ap     0.960522    26App    0.961886
      37Ap     1.002582    38Ap     1.127662    27App    1.128065
      39Ap     1.142593    40Ap     1.163302    28App    1.163567
      41Ap     1.223744    29App    1.274623    42Ap     1.274927
      43Ap     1.279497    30App    1.324239    44Ap     1.324245
      45Ap     1.357029    31App    1.365534    46Ap     1.365875
      32App    1.392375    33App    1.404364    47Ap     1.404986
      34App    1.417330    48Ap     1.418112    35App    1.428094
      36App    1.491030    49Ap     1.499582    50Ap     1.542150
      37App    1.542701    51Ap     1.574367    38App    1.574379
      52Ap     1.669297    39App    1.739262    53Ap     1.740002
      54Ap     1.768522    40App    1.830579    55Ap     1.831571
      41App    1.971169    56Ap     2.018307    42App    2.019388
      57Ap     2.019570    43App    2.052217    58Ap     2.053817
      59Ap     2.738534    44App    2.739094    60Ap     2.791151
      45App    2.811140    46App    2.889880    61Ap     2.890341
      62Ap     2.894958    47App    2.929335    63Ap     2.929364
      48App    2.958831    64Ap     2.964243    49App    2.964567
      65Ap     3.034051    66Ap     3.071782    50App    3.072026
      51App    3.084289    52App    3.168606    67Ap     3.169002
      68Ap     3.180386    53App    3.284920    69Ap     3.285006
      54App    3.325906    70Ap     3.326554    71Ap     3.375916
      55App    3.490157    72Ap     3.490519    56App    3.514483
      73Ap     3.525149    57App    3.568408    74Ap     3.569143
      58App    3.575693    75Ap     3.666175    59App    3.666574
      76Ap     3.678605    60App    3.693982    77Ap     3.694883
      78Ap     3.776446    61App    3.778925    79Ap     3.790472
      62App    3.911865    80Ap     3.912392    81Ap     4.035623
      63App    4.109723    82Ap     4.112254    64App    4.147026
      83Ap     4.148733    84Ap     4.173415    85Ap     4.203022
      65App    4.203326    86Ap     4.203462    66App    4.210955
      67App    4.315340    87Ap     4.316953    68App    4.358911
      88Ap     4.424808    69App    4.425325    70App    4.442577
      71App    4.516298    89Ap     4.517112    72App    4.577840
      90Ap     4.578494    91Ap     4.618353    92Ap     4.709900
      93Ap     4.773813    73App    4.775869    74App    4.837184
      94Ap     4.962791    75App    5.003289    95Ap     5.004027
      96Ap     5.228121    97Ap     5.246336    76App    5.247252
      77App    5.354344    98Ap     5.355774    78App    5.479867

    Beta Occupied:

       1App  -10.167851     1Ap   -10.167833     2Ap   -10.167569
       3Ap   -10.166404     4Ap    -0.781130     5Ap    -0.684112
       2App   -0.683884     6Ap    -0.511721     7Ap    -0.430950
       3App   -0.430825     8Ap    -0.422060     9Ap    -0.376975
       4App   -0.376913     5App   -0.362312    10Ap    -0.333136
       6App   -0.333013

    Beta Virtual:

      11Ap    -0.025594    12Ap     0.077063     7App    0.134984
      13Ap     0.135027    14Ap     0.144362     8App    0.144489
      15Ap     0.163372    16Ap     0.182545     9App    0.182585
      10App    0.214905    17Ap     0.218998    11App    0.282201
      18Ap     0.282719    12App    0.400379    19Ap     0.400444
      20Ap     0.419769    21Ap     0.426866    13App    0.426973
      22Ap     0.468568    23Ap     0.497543    14App    0.497655
      15App    0.513994    24Ap     0.556368    16App    0.584000
      25Ap     0.584571    17App    0.597822    26Ap     0.598378
      27Ap     0.610282    28Ap     0.628026    18App    0.631792
      19App    0.639361    29Ap     0.639487    30Ap     0.667084
      20App    0.667155    21App    0.686417    31Ap     0.686515
      32Ap     0.757639    33Ap     0.830491    22App    0.830964
      23App    0.855219    24App    0.923052    34Ap     0.923252
      25App    0.946065    35Ap     0.953588    36Ap     0.965907
      26App    0.967155    37Ap     1.007775    38Ap     1.131721
      27App    1.132274    39Ap     1.155962    40Ap     1.168395
      28App    1.168494    41Ap     1.232723    29App    1.280205
      42Ap     1.280505    43Ap     1.285259    30App    1.329154
      44Ap     1.329193    45Ap     1.366464    31App    1.370800
      46Ap     1.371086    32App    1.393423    33App    1.407823
      47Ap     1.408495    34App    1.422398    48Ap     1.423172
      35App    1.428381    36App    1.492074    49Ap     1.510046
      50Ap     1.546454    37App    1.547006    51Ap     1.582338
      38App    1.582348    52Ap     1.674159    39App    1.745006
      53Ap     1.745764    54Ap     1.779295    40App    1.834443
      55Ap     1.835431    41App    1.972030    56Ap     2.025714
      42App    2.025842    57Ap     2.039940    43App    2.058879
      58Ap     2.060536    59Ap     2.746885    44App    2.747411
      45App    2.811553    60Ap     2.816336    46App    2.902611
      61Ap     2.902996    62Ap     2.924713    63Ap     2.931855
      47App    2.931856    48App    2.959892    64Ap     2.968790
      49App    2.969078    65Ap     3.041946    66Ap     3.081675
      50App    3.081902    51App    3.086100    52App    3.184403
      67Ap     3.184867    68Ap     3.187998    53App    3.289738
      69Ap     3.289874    54App    3.329710    70Ap     3.330324
      71Ap     3.383773    55App    3.492894    72Ap     3.493224
      56App    3.512848    73Ap     3.528239    57App    3.575368
      58App    3.581830    74Ap     3.582442    59App    3.671161
      75Ap     3.671261    76Ap     3.691914    60App    3.725904
      77Ap     3.726141    78Ap     3.780980    61App    3.783366
      79Ap     3.818992    62App    3.921697    80Ap     3.922188
      81Ap     4.046499    63App    4.116672    82Ap     4.118983
      64App    4.154192    83Ap     4.155957    84Ap     4.187439
      65App    4.209249    85Ap     4.209397    86Ap     4.211027
      66App    4.215395    67App    4.322762    87Ap     4.324428
      68App    4.362265    88Ap     4.433013    69App    4.433431
      70App    4.445492    71App    4.524099    89Ap     4.524889
      72App    4.588467    90Ap     4.589113    91Ap     4.625624
      92Ap     4.720154    93Ap     4.780833    73App    4.782802
      74App    4.840105    94Ap     4.967569    75App    5.007307
      95Ap     5.008064    96Ap     5.233867    97Ap     5.248122
      76App    5.249054    77App    5.360820    98Ap     5.362293
      78App    5.482189

    Final Occupation by Irrep:
             Ap   App
    DOCC [    10,    6 ]
    SOCC [     1,    0 ]

  @DF-UKS Final Energy:  -157.81307099101917

   => Energetics <=

    Nuclear Repulsion Energy =            125.4033726785346943
    One-Electron Energy =                -458.7665050432414091
    Two-Electron Energy =                 195.8574598386349805
    DFT Exchange-Correlation Energy =     -20.3073984649474681
    Empirical Dispersion Energy =           0.0000000000000000
    VV10 Nonlocal Energy =                  0.0000000000000000
    Total Energy =                       -157.8130709910191740

  UHF NO Occupations:
  HONO-2 :    9 Ap 1.9996019
  HONO-1 :   10 Ap 1.9989796
  HONO-0 :   11 Ap 1.0000000
  LUNO+0 :   12 Ap 0.0010204
  LUNO+1 :   13 Ap 0.0003981
  LUNO+2 :    7App 0.0001978
  LUNO+3 :   14 Ap 0.0001971

Computation Completed

Properties will be evaluated at   0.000000,   0.000000,   0.000000 [a0]

Properties computed using the SCF density matrix

  Nuclear Dipole Moment: [e a0]
     X:     0.8175      Y:    -0.0034      Z:     0.0000

  Electronic Dipole Moment: [e a0]
     X:    -0.7395      Y:     0.0034      Z:     0.0000

  Dipole Moment: [e a0]
     X:     0.0780      Y:     0.0000      Z:     0.0000     Total:     0.0780

  Dipole Moment: [D]
     X:     0.1984      Y:     0.0001      Z:     0.0000     Total:     0.1984

*** tstop() called on n080 at Fri Nov  5 13:37:07 2021
Module time:
	user time   =     493.58 seconds =       8.23 minutes
	system time =       4.51 seconds =       0.08 minutes
	total time  =        125 seconds =       2.08 minutes
Total time:
	user time   =     493.58 seconds =       8.23 minutes
	system time =       4.51 seconds =       0.08 minutes
	total time  =        125 seconds =       2.08 minutes
Grab this energy -157.81307099101917
    Psi4 stopped on: Friday, 05 November 2021 01:37PM
    Psi4 wall time for execution: 0:02:05.26

*** Psi4 exiting successfully. Buy a developer a beer!
