                               Psi4 1.4a2.dev629

  ==> Input File <==

--------------------------------------------------------------------------
import os
memory 14 GB

molecule {
 C   -0.3233397637   -0.0010233138   -0.0000016418
 C    0.0615122417   -1.3980411706   -2.4277895794
 C    0.0602721299    2.8021529956    0.0015996656
 C    0.0615142046   -1.4008142918    2.4261884268
 H    2.0868918855   -1.6451783778   -2.8468646633
 H   -0.7658338073   -0.3888212237   -4.0253387588
 H   -0.7653481222   -3.2923810903   -2.3486432941
 H    2.0868799304    3.2880041761   -0.0006240191
 H   -0.7656298317    3.6802404631    1.6762920529
 H   -0.7652356452    3.6801073602   -1.6768985461
 H    2.0868969512   -1.6441090215    2.8474887667
 H   -0.7657445226   -3.2919228296    2.3490615806
 H   -0.7654435273   -0.3882379895    4.0255300100
units bohr
0 2
}

basis {

assign 6-31g_2dfp_

[ 6-31g_2dfp_ ]

spherical

!----------------------------------------------------------------------
! Basis Set Exchange
! Version v0.8.13
! https://www.basissetexchange.org
!----------------------------------------------------------------------
!   Basis set: 6-31G(2df,p)
! Description: 6-31G(2df,p)
!        Role: orbital
!     Version: 0  (Data from the original Basis Set Exchange)
!----------------------------------------------------------------------

****
H     0
S    3   1.00
     18.7311370              0.03349460
      2.8253937              0.23472695
      0.6401217              0.81375733
S    1   1.00
      0.1612778              1.00000000
P    1   1.00
      1.5000000              1.0000000
P    1   1.00
      0.3750000              1.0000000
****
B     0
S    6   1.00
   2068.8823000              0.0018663
    310.6495700              0.0142515
     70.6830330              0.0695516
     19.8610800              0.2325729
      6.2993048              0.4670787
      2.1270270              0.3634314
SP   3   1.00
      4.7279710             -0.1303938              0.0745976
      1.1903377             -0.1307889              0.3078467
      0.3594117              1.1309444              0.7434568
SP   1   1.00
      0.1267512              1.0000000              1.0000000
D    1   1.00
      0.8020000              1.0000000
D    1   1.00
      0.2005000              1.0000000
F    1   1.00
      0.5000000              1.0000000
****
C     0
S    6   1.00
   3047.5249000              0.0018347
    457.3695100              0.0140373
    103.9486900              0.0688426
     29.2101550              0.2321844
      9.2866630              0.4679413
      3.1639270              0.3623120
SP   3   1.00
      7.8682724             -0.1193324              0.0689991
      1.8812885             -0.1608542              0.3164240
      0.5442493              1.1434564              0.7443083
SP   1   1.00
      0.1687144              1.0000000              1.0000000
D    1   1.00
      1.2520000              1.0000000
D    1   1.00
      0.3130000              1.0000000
F    1   1.00
      0.8000000              1.0000000
****
N     0
S    6   1.00
   4173.5110000              0.0018348
    627.4579000              0.0139950
    142.9021000              0.0685870
     40.2343300              0.2322410
     12.8202100              0.4690700
      4.3904370              0.3604550
SP   3   1.00
     11.6263580             -0.1149610              0.0675800
      2.7162800             -0.1691180              0.3239070
      0.7722180              1.1458520              0.7408950
SP   1   1.00
      0.2120313              1.0000000              1.0000000
D    1   1.00
      1.8260000              1.0000000
D    1   1.00
      0.4565000              1.0000000
F    1   1.00
      1.0000000              1.0000000
****
O     0
S    6   1.00
   5484.6717000              0.0018311
    825.2349500              0.0139501
    188.0469600              0.0684451
     52.9645000              0.2327143
     16.8975700              0.4701930
      5.7996353              0.3585209
SP   3   1.00
     15.5396160             -0.1107775              0.0708743
      3.5999336             -0.1480263              0.3397528
      1.0137618              1.1307670              0.7271586
SP   1   1.00
      0.2700058              1.0000000              1.0000000
D    1   1.00
      2.5840000              1.0000000
D    1   1.00
      0.6460000              1.0000000
F    1   1.00
      1.4000000              1.0000000
****
F     0
S    6   1.00
   7001.7130900              0.0018196169
   1051.3660900              0.0139160796
    239.2856900              0.0684053245
     67.3974453              0.233185760
     21.5199573              0.471267439
      7.40310130             0.356618546
SP   3   1.00
     20.8479528             -0.108506975            0.0716287243
      4.80830834            -0.146451658            0.3459121030
      1.34406986             1.128688580            0.7224699570
SP   1   1.00
      0.358151393            1.0000000              1.0000000
D    1   1.00
      3.5000000              1.0000000
D    1   1.00
      0.8750000              1.0000000
F    1   1.00
      1.8500000              1.0000000
****
Al     0
S    6   1.00
  13983.1000000              0.00194267
   2098.7500000              0.0148599
    477.7050000              0.0728494
    134.3600000              0.2468300
     42.8709000              0.4872580
     14.5189000              0.3234960
SP   6   1.00
    239.6680000             -0.00292619             0.00460285
     57.4419000             -0.0374080              0.0331990
     18.2859000             -0.1144870              0.1362820
      6.5991400              0.1156350              0.3304760
      2.4904900              0.6125950              0.4491460
      0.9445400              0.3937990              0.2657040
SP   3   1.00
      1.2779000             -0.2276060             -0.0175130
      0.3975900              0.00144583             0.2445330
      0.1600950              1.0927900              0.8049340
SP   1   1.00
      0.0556577              1.0000000              1.0000000
D    1   1.00
      0.6500000              1.0000000
D    1   1.00
      0.1625000              1.0000000
F    1   1.00
      0.2500000              1.0000000
****
Si     0
S    6   1.00
  16115.9000000              0.00195948
   2425.5800000              0.01492880
    553.8670000              0.07284780
    156.3400000              0.24613000
     50.0683000              0.48591400
     17.0178000              0.32500200
SP   6   1.00
    292.7180000             -0.00278094             0.00443826
     69.8731000             -0.03571460             0.03266790
     22.3363000             -0.11498500             0.13472100
      8.1503900              0.09356340             0.32867800
      3.1345800              0.60301700             0.44964000
      1.2254300              0.41895900             0.26137200
SP   3   1.00
      1.7273800             -0.24463000            -0.01779510
      0.5729220              0.00431572             0.25353900
      0.2221920              1.09818000             0.80066900
SP   1   1.00
      0.0778369              1.00000000             1.00000000
D    1   1.00
      0.9000000              1.0000000
D    1   1.00
      0.2250000              1.0000000
F    1   1.00
      0.3200000              1.0000000
****
P     0
S    6   1.00
  19413.3000000              0.0018516
   2909.4200000              0.0142062
    661.3640000              0.0699995
    185.7590000              0.2400790
     59.1943000              0.4847620
     20.0310000              0.3352000
SP   6   1.00
    339.4780000             -0.00278217             0.00456462
     81.0101000             -0.0360499              0.03369360
     25.8780000             -0.1166310              0.13975500
      9.4522100              0.0968328              0.33936200
      3.6656600              0.6144180              0.45092100
      1.4674600              0.4037980              0.23858600
SP   3   1.00
      2.1562300             -0.2529230             -0.01776530
      0.7489970              0.0328517              0.27405800
      0.2831450              1.0812500              0.78542100
SP   1   1.00
      0.0998317              1.0000000              1.00000000
D    1   1.00
      1.1000000              1.0000000
D    1   1.00
      0.2750000              1.0000000
F    1   1.00
      0.4500000              1.0000000
****
S     0
S    6   1.00
  21917.1000000              0.0018690
   3301.4900000              0.0142300
    754.1460000              0.0696960
    212.7110000              0.2384870
     67.9896000              0.4833070
     23.0515000              0.3380740
SP   6   1.00
    423.7350000             -0.0023767              0.0040610
    100.7100000             -0.0316930              0.0306810
     32.1599000             -0.1133170              0.1304520
     11.8079000              0.0560900              0.3272050
      4.6311000              0.5922550              0.4528510
      1.8702500              0.4550060              0.2560420
SP   3   1.00
      2.6158400             -0.2503740             -0.0145110
      0.9221670              0.0669570              0.3102630
      0.3412870              1.0545100              0.7544830
SP   1   1.00
      0.1171670              1.0000000              1.0000000
D    1   1.00
      1.3000000              1.0000000
D    1   1.00
      0.3250000              1.0000000
F    1   1.00
      0.5500000              1.0000000
****
Cl     0
S    6   1.00
  25180.1000000              0.0018330
   3780.3500000              0.0140340
    860.4740000              0.0690970
    242.1450000              0.2374520
     77.3349000              0.4830340
     26.2470000              0.3398560
SP   6   1.00
    491.7650000             -0.0022974              0.0039894
    116.9840000             -0.0307140              0.0303180
     37.4153000             -0.1125280              0.1298800
     13.7834000              0.0450160              0.3279510
      5.4521500              0.5893530              0.4535270
      2.2258800              0.4652060              0.2521540
SP   3   1.00
      3.1864900             -0.2518300             -0.0142990
      1.1442700              0.0615890              0.3235720
      0.4203770              1.0601800              0.7435070
SP   1   1.00
      0.1426570              1.0000000              1.0000000
D    1   1.00
      1.5000000              1.0000000
D    1   1.00
      0.3750000              1.0000000
F    1   1.00
      0.7000000              1.0000000
****
}

set {
reference uhf
freeze_core true
e_convergence 10
d_convergence 10
dft_spherical_points 1202
dft_radial_points 99
}

e = energy('b3lyp')

print_out('Grab this energy {0}'.format(e))
--------------------------------------------------------------------------

    Molecular point group: c1

    Geometry (in Bohr), charge = 0, multiplicity = 2:

       Center              X                  Y                   Z               Mass
    ------------   -----------------  -----------------  -----------------  -----------------
         C           -0.323339532060    -0.001460915475    -0.000001039171    12.000000000000
         C            0.061512473340    -1.398478772275    -2.427788976771    12.000000000000
         C            0.060272361540     2.801715393925     0.001600268229    12.000000000000
         C            0.061514436240    -1.401251893475     2.426189029429    12.000000000000
         H            2.086892117140    -1.645615979475    -2.846864060671     1.007825032230
         H           -0.765833575660    -0.389258825375    -4.025338156171     1.007825032230
         H           -0.765347890560    -3.292818691975    -2.348642691471     1.007825032230
         H            2.086880162040     3.287566574425    -0.000623416471     1.007825032230
         H           -0.765629600060     3.679802861425     1.676292655529     1.007825032230
         H           -0.765235413560     3.679669758525    -1.676897943471     1.007825032230
         H            2.086897182840    -1.644546623175     2.847489369329     1.007825032230
         H           -0.765744290960    -3.292360431275     2.349062183229     1.007825032230
         H           -0.765443295660    -0.388675591175     4.025530612629     1.007825032230

  Charge       = 0
  Multiplicity = 2
  Basis Set: ANONYMOUS806A9C72
    Blend: 6-31G_2DFP_
  Basis Set: (ANONYMOUS806A9C72 AUX)
    Blend: DEF2-UNIVERSAL-JKFIT

    Orbital Energies [Eh]
    ---------------------

    Alpha Occupied:

       1A    -10.180342     2A    -10.167045     3A    -10.167026
       4A    -10.166973     5A     -0.797766     6A     -0.686266
       7A     -0.686107     8A     -0.530776     9A     -0.441126
      10A     -0.434679    11A     -0.434664    12A     -0.382638
      13A     -0.382561    14A     -0.363609    15A     -0.338292
      16A     -0.337705    17A     -0.168960

    Alpha Virtual:

      18A      0.076072    19A      0.134117    20A      0.134194
      21A      0.142564    22A      0.142692    23A      0.154879
      24A      0.178728    25A      0.178829    26A      0.203545
      27A      0.214805    28A      0.275860    29A      0.276110
      30A      0.399118    31A      0.399340    32A      0.403342
      33A      0.424092    34A      0.424103    35A      0.456592
      36A      0.495355    37A      0.495425    38A      0.512153
      39A      0.513986    40A      0.578771    41A      0.578864
      42A      0.591614    43A      0.591652    44A      0.602571
      45A      0.624749    46A      0.631782    47A      0.636248
      48A      0.636252    49A      0.663322    50A      0.663500
      51A      0.683844    52A      0.683866    53A      0.734994
      54A      0.825402    55A      0.825412    56A      0.853916
      57A      0.914918    58A      0.915134    59A      0.944125
      60A      0.944614    61A      0.961237    62A      0.961347
      63A      1.003453    64A      1.128099    65A      1.128121
      66A      1.142209    67A      1.163253    68A      1.163290
      69A      1.223322    70A      1.274305    71A      1.274670
      72A      1.279354    73A      1.324301    74A      1.324411
      75A      1.355983    76A      1.365817    77A      1.366299
      78A      1.392445    79A      1.403813    80A      1.404308
      81A      1.416844    82A      1.417368    83A      1.427911
      84A      1.491454    85A      1.499127    86A      1.542657
      87A      1.542997    88A      1.574140    89A      1.574769
      90A      1.669814    91A      1.739296    92A      1.739534
      93A      1.768343    94A      1.831324    95A      1.831469
      96A      1.971725    97A      2.018212    98A      2.018631
      99A      2.019555   100A      2.052034   101A      2.053243
     102A      2.738439   103A      2.738533   104A      2.790916
     105A      2.811434   106A      2.889279   107A      2.890623
     108A      2.894937   109A      2.929328   110A      2.929668
     111A      2.958994   112A      2.964100   113A      2.964663
     114A      3.034009   115A      3.071160   116A      3.071411
     117A      3.084347   118A      3.168669   119A      3.168878
     120A      3.180606   121A      3.285094   122A      3.285531
     123A      3.327121   124A      3.327202   125A      3.375620
     126A      3.490131   127A      3.490187   128A      3.513986
     129A      3.525353   130A      3.568276   131A      3.568499
     132A      3.575153   133A      3.666134   134A      3.666595
     135A      3.679687   136A      3.694120   137A      3.694140
     138A      3.776801   139A      3.776821   140A      3.789116
     141A      3.911863   142A      3.912576   143A      4.034460
     144A      4.111155   145A      4.111595   146A      4.147936
     147A      4.148319   148A      4.173247   149A      4.202584
     150A      4.203091   151A      4.203111   152A      4.210849
     153A      4.315155   154A      4.316751   155A      4.358967
     156A      4.423863   157A      4.425006   158A      4.443453
     159A      4.516660   160A      4.517027   161A      4.577990
     162A      4.578560   163A      4.617528   164A      4.709462
     165A      4.774442   166A      4.774745   167A      4.836914
     168A      4.962863   169A      5.002655   170A      5.003232
     171A      5.228033   172A      5.246591   173A      5.247054
     174A      5.355475   175A      5.355533   176A      5.479355

    Beta Occupied:

       1A    -10.167799     2A    -10.167785     3A    -10.167740
       4A    -10.166519     5A     -0.781091     6A     -0.684066
       7A     -0.683913     8A     -0.511747     9A     -0.431059
      10A     -0.431027    11A     -0.421821    12A     -0.376731
      13A     -0.376638    14A     -0.362592    15A     -0.333415
      16A     -0.332829

    Beta Virtual:

      17A     -0.025742    18A      0.077081    19A      0.134994
      20A      0.135095    21A      0.144453    22A      0.144545
      23A      0.163338    24A      0.182411    25A      0.182488
      26A      0.215027    27A      0.218934    28A      0.282223
      29A      0.282444    30A      0.400287    31A      0.400509
      32A      0.419789    33A      0.426902    34A      0.426916
      35A      0.468501    36A      0.497618    37A      0.497682
      38A      0.513894    39A      0.556326    40A      0.584321
      41A      0.584413    42A      0.597784    43A      0.597841
      44A      0.609994    45A      0.628119    46A      0.631947
      47A      0.639531    48A      0.639538    49A      0.666882
      50A      0.667068    51A      0.686477    52A      0.686502
      53A      0.757518    54A      0.830574    55A      0.830577
      56A      0.855269    57A      0.922889    58A      0.923106
      59A      0.945963    60A      0.953542    61A      0.966552
      62A      0.966643    63A      1.008693    64A      1.132137
      65A      1.132139    66A      1.155581    67A      1.168315
      68A      1.168382    69A      1.232295    70A      1.279874
      71A      1.280294    72A      1.285109    73A      1.329280
      74A      1.329412    75A      1.365397    76A      1.371034
      77A      1.371567    78A      1.393508    79A      1.407270
      80A      1.407781    81A      1.421916    82A      1.422394
      83A      1.428184    84A      1.492522    85A      1.509550
      86A      1.547051    87A      1.547418    88A      1.582018
      89A      1.582634    90A      1.674662    91A      1.745061
      92A      1.745294    93A      1.779120    94A      1.835181
      95A      1.835322    96A      1.972585    97A      2.025049
      98A      2.025850    99A      2.039677   100A      2.058727
     101A      2.059980   102A      2.746781   103A      2.746862
     104A      2.811805   105A      2.816094   106A      2.901979
     107A      2.903296   108A      2.924644   109A      2.931779
     110A      2.932183   111A      2.960059   112A      2.968654
     113A      2.969196   114A      3.041944   115A      3.081061
     116A      3.081331   117A      3.086164   118A      3.184400
     119A      3.184619   120A      3.188315   121A      3.289923
     122A      3.290298   123A      3.330913   124A      3.331020
     125A      3.383439   126A      3.492846   127A      3.492932
     128A      3.512358   129A      3.528390   130A      3.575000
     131A      3.581673   132A      3.581793   133A      3.670797
     134A      3.671442   135A      3.692972   136A      3.725576
     137A      3.725941   138A      3.781270   139A      3.781404
     140A      3.817661   141A      3.921658   142A      3.922414
     143A      4.045347   144A      4.117969   145A      4.118411
     146A      4.155180   147A      4.155491   148A      4.187308
     149A      4.208958   150A      4.209042   151A      4.210629
     152A      4.215323   153A      4.322563   154A      4.324225
     155A      4.362329   156A      4.432070   157A      4.433221
     158A      4.446345   159A      4.524465   160A      4.524802
     161A      4.588614   162A      4.589139   163A      4.624720
     164A      4.719807   165A      4.781415   166A      4.781679
     167A      4.839831   168A      4.967657   169A      5.006693
     170A      5.007272   171A      5.233748   172A      5.248385
     173A      5.248830   174A      5.361936   175A      5.362033
     176A      5.481676

    Final Occupation by Irrep:
              A
    DOCC [    16 ]
    SOCC [     1 ]

  @DF-UKS Final Energy:  -157.81306911455201

   => Energetics <=

    Nuclear Repulsion Energy =            125.3946137947273769
    One-Electron Energy =                -458.7488917743088450
    Two-Electron Energy =                 195.8483514030216384
    DFT Exchange-Correlation Energy =     -20.3071425379921671
    Empirical Dispersion Energy =           0.0000000000000000
    VV10 Nonlocal Energy =                  0.0000000000000000
    Total Energy =                       -157.8130691145520075

  UHF NO Occupations:
  HONO-2 :   15  A 1.9996009
  HONO-1 :   16  A 1.9989805
  HONO-0 :   17  A 1.0000000
  LUNO+0 :   18  A 0.0010195
  LUNO+1 :   19  A 0.0003991
  LUNO+2 :   20  A 0.0001980
  LUNO+3 :   21  A 0.0001971

Computation Completed

Properties will be evaluated at   0.000000,   0.000000,   0.000000 [a0]

Properties computed using the SCF density matrix

  Nuclear Dipole Moment: [e a0]
     X:     0.8272      Y:    -0.0031      Z:     0.0000

  Electronic Dipole Moment: [e a0]
     X:    -0.7493      Y:     0.0030      Z:    -0.0000

  Dipole Moment: [e a0]
     X:     0.0779      Y:    -0.0000      Z:    -0.0000     Total:     0.0779

  Dipole Moment: [D]
     X:     0.1980      Y:    -0.0001      Z:    -0.0000     Total:     0.1980

*** tstop() called on n082 at Fri Nov  5 11:45:42 2021
Module time:
	user time   =     629.28 seconds =      10.49 minutes
	system time =       5.77 seconds =       0.10 minutes
	total time  =        160 seconds =       2.67 minutes
Total time:
	user time   =     629.28 seconds =      10.49 minutes
	system time =       5.77 seconds =       0.10 minutes
	total time  =        160 seconds =       2.67 minutes
Grab this energy -157.813069114552
    Psi4 stopped on: Friday, 05 November 2021 11:45AM
    Psi4 wall time for execution: 0:02:39.55

*** Psi4 exiting successfully. Buy a developer a beer!
