                               Psi4 1.4a2.dev629

  ==> Input File <==

--------------------------------------------------------------------------
import os
memory 14 GB

molecule {
 C   -0.3233297773   -0.0047510882   -0.0000000000
 C    0.0618642370   -1.3987564937   -2.4321590965
 C    0.0595791389    2.7938479806    0.0000000000
 C    0.0618642370   -1.3987564937    2.4321590965
 H    2.0864438015   -1.6378469253   -2.8563221067
 H   -0.7685346896   -0.3797034101   -4.0273100031
 H   -0.7641474844   -3.2900542886   -2.3622843366
 H    2.0877835181    3.2789350448    0.0000000000
 H   -0.7639462428    3.6723329923    1.6765125289
 H   -0.7639462428    3.6723329923   -1.6765125289
 H    2.0864438015   -1.6378469253    2.8563221067
 H   -0.7641474844   -3.2900542886    2.3622843366
 H   -0.7685346896   -0.3797034101    4.0273100031
units bohr
0 2
}

basis {

assign 6-31g_2dfp_

[ 6-31g_2dfp_ ]

spherical

!----------------------------------------------------------------------
! Basis Set Exchange
! Version v0.8.13
! https://www.basissetexchange.org
!----------------------------------------------------------------------
!   Basis set: 6-31G(2df,p)
! Description: 6-31G(2df,p)
!        Role: orbital
!     Version: 0  (Data from the original Basis Set Exchange)
!----------------------------------------------------------------------

****
H     0
S    3   1.00
     18.7311370              0.03349460
      2.8253937              0.23472695
      0.6401217              0.81375733
S    1   1.00
      0.1612778              1.00000000
P    1   1.00
      1.5000000              1.0000000
P    1   1.00
      0.3750000              1.0000000
****
B     0
S    6   1.00
   2068.8823000              0.0018663
    310.6495700              0.0142515
     70.6830330              0.0695516
     19.8610800              0.2325729
      6.2993048              0.4670787
      2.1270270              0.3634314
SP   3   1.00
      4.7279710             -0.1303938              0.0745976
      1.1903377             -0.1307889              0.3078467
      0.3594117              1.1309444              0.7434568
SP   1   1.00
      0.1267512              1.0000000              1.0000000
D    1   1.00
      0.8020000              1.0000000
D    1   1.00
      0.2005000              1.0000000
F    1   1.00
      0.5000000              1.0000000
****
C     0
S    6   1.00
   3047.5249000              0.0018347
    457.3695100              0.0140373
    103.9486900              0.0688426
     29.2101550              0.2321844
      9.2866630              0.4679413
      3.1639270              0.3623120
SP   3   1.00
      7.8682724             -0.1193324              0.0689991
      1.8812885             -0.1608542              0.3164240
      0.5442493              1.1434564              0.7443083
SP   1   1.00
      0.1687144              1.0000000              1.0000000
D    1   1.00
      1.2520000              1.0000000
D    1   1.00
      0.3130000              1.0000000
F    1   1.00
      0.8000000              1.0000000
****
N     0
S    6   1.00
   4173.5110000              0.0018348
    627.4579000              0.0139950
    142.9021000              0.0685870
     40.2343300              0.2322410
     12.8202100              0.4690700
      4.3904370              0.3604550
SP   3   1.00
     11.6263580             -0.1149610              0.0675800
      2.7162800             -0.1691180              0.3239070
      0.7722180              1.1458520              0.7408950
SP   1   1.00
      0.2120313              1.0000000              1.0000000
D    1   1.00
      1.8260000              1.0000000
D    1   1.00
      0.4565000              1.0000000
F    1   1.00
      1.0000000              1.0000000
****
O     0
S    6   1.00
   5484.6717000              0.0018311
    825.2349500              0.0139501
    188.0469600              0.0684451
     52.9645000              0.2327143
     16.8975700              0.4701930
      5.7996353              0.3585209
SP   3   1.00
     15.5396160             -0.1107775              0.0708743
      3.5999336             -0.1480263              0.3397528
      1.0137618              1.1307670              0.7271586
SP   1   1.00
      0.2700058              1.0000000              1.0000000
D    1   1.00
      2.5840000              1.0000000
D    1   1.00
      0.6460000              1.0000000
F    1   1.00
      1.4000000              1.0000000
****
F     0
S    6   1.00
   7001.7130900              0.0018196169
   1051.3660900              0.0139160796
    239.2856900              0.0684053245
     67.3974453              0.233185760
     21.5199573              0.471267439
      7.40310130             0.356618546
SP   3   1.00
     20.8479528             -0.108506975            0.0716287243
      4.80830834            -0.146451658            0.3459121030
      1.34406986             1.128688580            0.7224699570
SP   1   1.00
      0.358151393            1.0000000              1.0000000
D    1   1.00
      3.5000000              1.0000000
D    1   1.00
      0.8750000              1.0000000
F    1   1.00
      1.8500000              1.0000000
****
Al     0
S    6   1.00
  13983.1000000              0.00194267
   2098.7500000              0.0148599
    477.7050000              0.0728494
    134.3600000              0.2468300
     42.8709000              0.4872580
     14.5189000              0.3234960
SP   6   1.00
    239.6680000             -0.00292619             0.00460285
     57.4419000             -0.0374080              0.0331990
     18.2859000             -0.1144870              0.1362820
      6.5991400              0.1156350              0.3304760
      2.4904900              0.6125950              0.4491460
      0.9445400              0.3937990              0.2657040
SP   3   1.00
      1.2779000             -0.2276060             -0.0175130
      0.3975900              0.00144583             0.2445330
      0.1600950              1.0927900              0.8049340
SP   1   1.00
      0.0556577              1.0000000              1.0000000
D    1   1.00
      0.6500000              1.0000000
D    1   1.00
      0.1625000              1.0000000
F    1   1.00
      0.2500000              1.0000000
****
Si     0
S    6   1.00
  16115.9000000              0.00195948
   2425.5800000              0.01492880
    553.8670000              0.07284780
    156.3400000              0.24613000
     50.0683000              0.48591400
     17.0178000              0.32500200
SP   6   1.00
    292.7180000             -0.00278094             0.00443826
     69.8731000             -0.03571460             0.03266790
     22.3363000             -0.11498500             0.13472100
      8.1503900              0.09356340             0.32867800
      3.1345800              0.60301700             0.44964000
      1.2254300              0.41895900             0.26137200
SP   3   1.00
      1.7273800             -0.24463000            -0.01779510
      0.5729220              0.00431572             0.25353900
      0.2221920              1.09818000             0.80066900
SP   1   1.00
      0.0778369              1.00000000             1.00000000
D    1   1.00
      0.9000000              1.0000000
D    1   1.00
      0.2250000              1.0000000
F    1   1.00
      0.3200000              1.0000000
****
P     0
S    6   1.00
  19413.3000000              0.0018516
   2909.4200000              0.0142062
    661.3640000              0.0699995
    185.7590000              0.2400790
     59.1943000              0.4847620
     20.0310000              0.3352000
SP   6   1.00
    339.4780000             -0.00278217             0.00456462
     81.0101000             -0.0360499              0.03369360
     25.8780000             -0.1166310              0.13975500
      9.4522100              0.0968328              0.33936200
      3.6656600              0.6144180              0.45092100
      1.4674600              0.4037980              0.23858600
SP   3   1.00
      2.1562300             -0.2529230             -0.01776530
      0.7489970              0.0328517              0.27405800
      0.2831450              1.0812500              0.78542100
SP   1   1.00
      0.0998317              1.0000000              1.00000000
D    1   1.00
      1.1000000              1.0000000
D    1   1.00
      0.2750000              1.0000000
F    1   1.00
      0.4500000              1.0000000
****
S     0
S    6   1.00
  21917.1000000              0.0018690
   3301.4900000              0.0142300
    754.1460000              0.0696960
    212.7110000              0.2384870
     67.9896000              0.4833070
     23.0515000              0.3380740
SP   6   1.00
    423.7350000             -0.0023767              0.0040610
    100.7100000             -0.0316930              0.0306810
     32.1599000             -0.1133170              0.1304520
     11.8079000              0.0560900              0.3272050
      4.6311000              0.5922550              0.4528510
      1.8702500              0.4550060              0.2560420
SP   3   1.00
      2.6158400             -0.2503740             -0.0145110
      0.9221670              0.0669570              0.3102630
      0.3412870              1.0545100              0.7544830
SP   1   1.00
      0.1171670              1.0000000              1.0000000
D    1   1.00
      1.3000000              1.0000000
D    1   1.00
      0.3250000              1.0000000
F    1   1.00
      0.5500000              1.0000000
****
Cl     0
S    6   1.00
  25180.1000000              0.0018330
   3780.3500000              0.0140340
    860.4740000              0.0690970
    242.1450000              0.2374520
     77.3349000              0.4830340
     26.2470000              0.3398560
SP   6   1.00
    491.7650000             -0.0022974              0.0039894
    116.9840000             -0.0307140              0.0303180
     37.4153000             -0.1125280              0.1298800
     13.7834000              0.0450160              0.3279510
      5.4521500              0.5893530              0.4535270
      2.2258800              0.4652060              0.2521540
SP   3   1.00
      3.1864900             -0.2518300             -0.0142990
      1.1442700              0.0615890              0.3235720
      0.4203770              1.0601800              0.7435070
SP   1   1.00
      0.1426570              1.0000000              1.0000000
D    1   1.00
      1.5000000              1.0000000
D    1   1.00
      0.3750000              1.0000000
F    1   1.00
      0.7000000              1.0000000
****
}

set {
reference uhf
freeze_core true
e_convergence 10
d_convergence 10
dft_spherical_points 1202
dft_radial_points 99
}

e = energy('b3lyp')

print_out('Grab this energy {0}'.format(e))
--------------------------------------------------------------------------

    Molecular point group: cs

    Geometry (in Bohr), charge = 0, multiplicity = 2:

       Center              X                  Y                   Z               Mass
    ------------   -----------------  -----------------  -----------------  -----------------
         C           -0.323333209642    -0.003129658323     0.000000000000    12.000000000000
         C            0.061860804658    -1.397135063823    -2.432159096500    12.000000000000
         C            0.059575706558     2.795469410477     0.000000000000    12.000000000000
         C            0.061860804658    -1.397135063823     2.432159096500    12.000000000000
         H            2.086440369158    -1.636225495423    -2.856322106700     1.007825032230
         H           -0.768538121942    -0.378081980223    -4.027310003100     1.007825032230
         H           -0.764150916742    -3.288432858723    -2.362284336600     1.007825032230
         H            2.087780085758     3.280556474677     0.000000000000     1.007825032230
         H           -0.763949675142     3.673954422177     1.676512528900     1.007825032230
         H           -0.763949675142     3.673954422177    -1.676512528900     1.007825032230
         H            2.086440369158    -1.636225495423     2.856322106700     1.007825032230
         H           -0.764150916742    -3.288432858723     2.362284336600     1.007825032230
         H           -0.768538121942    -0.378081980223     4.027310003100     1.007825032230

  Charge       = 0
  Multiplicity = 2
  Basis Set: ANONYMOUSB92FBACC
    Blend: 6-31G_2DFP_
  Basis Set: (ANONYMOUSB92FBACC AUX)
    Blend: DEF2-UNIVERSAL-JKFIT

    Orbital Energies [Eh]
    ---------------------

    Alpha Occupied:

       1Ap   -10.180341     1App  -10.167170     2Ap   -10.167141
       3Ap   -10.166735     4Ap    -0.797769     2App   -0.686372
       5Ap    -0.685999     6Ap    -0.530776     7Ap    -0.441125
       3App   -0.435037     8Ap    -0.434306     4App   -0.382893
       9Ap    -0.382305     5App   -0.363608     6App   -0.338187
      10Ap    -0.337812    11Ap    -0.168961

    Alpha Virtual:

      12Ap     0.076072     7App    0.133949    13Ap     0.134361
       8App    0.142553    14Ap     0.142700    15Ap     0.154882
       9App    0.178670    16Ap     0.178890    17Ap     0.203543
      10App    0.214807    11App    0.275762    18Ap     0.276211
      12App    0.398934    19Ap     0.399481    20Ap     0.403386
      13App    0.423920    21Ap     0.424288    22Ap     0.456595
      14App    0.494959    23Ap     0.495813    15App    0.512170
      24Ap     0.513987    16App    0.578653    25Ap     0.578959
      26Ap     0.591532    17App    0.591735    27Ap     0.602577
      28Ap     0.624762    18App    0.631762    29Ap     0.635928
      19App    0.636582    20App    0.663367    30Ap     0.663462
      21App    0.683466    31Ap     0.684244    32Ap     0.734994
      22App    0.824566    33Ap     0.826236    23App    0.853914
      24App    0.914812    34Ap     0.915242    25App    0.944061
      35Ap     0.944517    36Ap     0.961059    26App    0.961717
      37Ap     1.003476    27App    1.127070    38Ap     1.129157
      39Ap     1.142209    28App    1.162887    40Ap     1.163660
      41Ap     1.223328    29App    1.274117    42Ap     1.274891
      43Ap     1.279337    44Ap     1.324028    30App    1.324684
      45Ap     1.355975    31App    1.364959    46Ap     1.367087
      32App    1.392452    33App    1.403400    47Ap     1.404756
      34App    1.416913    48Ap     1.417329    35App    1.427923
      36App    1.491433    49Ap     1.499071    37App    1.542527
      50Ap     1.543117    38App    1.572534    51Ap     1.576502
      52Ap     1.669827    39App    1.738766    53Ap     1.740051
      54Ap     1.768320    40App    1.830690    55Ap     1.832110
      41App    1.971733    56Ap     2.018210    42App    2.018255
      57Ap     2.019921    43App    2.050508    58Ap     2.054847
      44App    2.738256    59Ap     2.738714    60Ap     2.790920
      45App    2.811436    46App    2.889782    61Ap     2.890103
      62Ap     2.894957    47App    2.929294    63Ap     2.929693
      48App    2.958991    49App    2.963613    64Ap     2.965173
      65Ap     3.034016    50App    3.070097    66Ap     3.072404
      51App    3.084421    52App    3.168174    67Ap     3.169437
      68Ap     3.180557    69Ap     3.284556    53App    3.286050
      54App    3.326383    70Ap     3.327943    71Ap     3.375668
      55App    3.489324    72Ap     3.490937    56App    3.514019
      73Ap     3.525314    57App    3.567228    74Ap     3.569484
      58App    3.575300    75Ap     3.666201    59App    3.666577
      76Ap     3.679646    77Ap     3.693674    60App    3.694556
      78Ap     3.775846    61App    3.777689    79Ap     3.789251
      62App    3.910728    80Ap     3.913730    81Ap     4.034472
      63App    4.109922    82Ap     4.112840    64App    4.146409
      83Ap     4.149809    84Ap     4.173234    65App    4.201488
      85Ap     4.202531    86Ap     4.204716    66App    4.210964
      67App    4.315560    87Ap     4.316355    68App    4.358966
      69App    4.424158    88Ap     4.424695    70App    4.443449
      89Ap     4.516617    71App    4.517164    72App    4.576981
      90Ap     4.579550    91Ap     4.617533    92Ap     4.709412
      73App    4.773743    93Ap     4.775454    74App    4.836973
      94Ap     4.962861    75App    5.002413    95Ap     5.003487
      96Ap     5.228049    97Ap     5.246638    76App    5.246994
      77App    5.354535    98Ap     5.356482    78App    5.479337

    Beta Occupied:

       1App  -10.167921     1Ap   -10.167903     2Ap   -10.167501
       3Ap   -10.166518     4Ap    -0.781095     2App   -0.684179
       5Ap    -0.683798     6Ap    -0.511748     3App   -0.431421
       7Ap    -0.430664     8Ap    -0.421823     4App   -0.376997
       9Ap    -0.376371     5App   -0.362592     6App   -0.333312
      10Ap    -0.332932

    Beta Virtual:

      11Ap    -0.025743    12Ap     0.077081     7App    0.134820
      13Ap     0.135270     8App    0.144425    14Ap     0.144571
      15Ap     0.163340     9App    0.182333    16Ap     0.182568
      10App    0.215037    17Ap     0.218926    11App    0.282101
      18Ap     0.282568    12App    0.400125    19Ap     0.400666
      20Ap     0.419790    13App    0.426712    21Ap     0.427120
      22Ap     0.468505    14App    0.497218    23Ap     0.498078
      15App    0.513906    24Ap     0.556328    16App    0.584228
      25Ap     0.584487    26Ap     0.597716    17App    0.597906
      27Ap     0.609999    28Ap     0.628145    18App    0.631923
      29Ap     0.639196    19App    0.639880    20App    0.666889
      30Ap     0.667066    21App    0.686047    31Ap     0.686933
      32Ap     0.757516    22App    0.829726    33Ap     0.831413
      23App    0.855267    24App    0.922770    34Ap     0.923226
      25App    0.945919    35Ap     0.953425    36Ap     0.966334
      26App    0.967059    37Ap     1.008712    27App    1.131142
      38Ap     1.133140    39Ap     1.155582    28App    1.167880
      40Ap     1.168821    41Ap     1.232299    29App    1.279714
      42Ap     1.280486    43Ap     1.285092    44Ap     1.328991
      30App    1.329701    45Ap     1.365389    31App    1.370095
      46Ap     1.372433    32App    1.393513    33App    1.406914
      47Ap     1.408180    34App    1.421942    48Ap     1.422395
      35App    1.428193    36App    1.492485    49Ap     1.509513
      37App    1.546765    50Ap     1.547690    38App    1.580601
      51Ap     1.584183    52Ap     1.674674    39App    1.744524
      53Ap     1.745816    54Ap     1.779101    40App    1.834527
      55Ap     1.835984    41App    1.972595    42App    2.024613
      56Ap     2.026286    57Ap     2.039658    43App    2.057284
      58Ap     2.061503    44App    2.746541    59Ap     2.747101
      45App    2.811848    60Ap     2.816056    46App    2.902442
      61Ap     2.902829    62Ap     2.924655    47App    2.931869
      63Ap     2.932084    48App    2.960059    49App    2.968178
      64Ap     2.969690    65Ap     3.041950    50App    3.079753
      66Ap     3.082415    51App    3.086399    52App    3.184010
      67Ap     3.185099    68Ap     3.188229    69Ap     3.289433
      53App    3.290772    54App    3.330194    70Ap     3.331744
      71Ap     3.383485    55App    3.492057    72Ap     3.493660
      56App    3.512393    73Ap     3.528369    57App    3.574766
      58App    3.580899    74Ap     3.582878    75Ap     3.671029
      59App    3.671241    76Ap     3.692949    77Ap     3.725179
      60App    3.726302    78Ap     3.780422    61App    3.782219
      79Ap     3.817742    62App    3.920530    80Ap     3.923562
      81Ap     4.045359    63App    4.116795    82Ap     4.119597
      64App    4.153627    83Ap     4.157008    84Ap     4.187295
      65App    4.207387    85Ap     4.210075    86Ap     4.211102
      66App    4.215454    67App    4.322994    87Ap     4.323801
      68App    4.362329    69App    4.432380    88Ap     4.432876
      70App    4.446366    89Ap     4.524312    71App    4.525040
      72App    4.587517    90Ap     4.590216    91Ap     4.624726
      92Ap     4.719757    73App    4.780636    93Ap     4.782463
      74App    4.839894    94Ap     4.967654    75App    5.006435
      95Ap     5.007545    96Ap     5.233764    97Ap     5.248418
      76App    5.248783    77App    5.360998    98Ap     5.362979
      78App    5.481658

    Final Occupation by Irrep:
             Ap   App
    DOCC [    10,    6 ]
    SOCC [     1,    0 ]

  @DF-UKS Final Energy:  -157.81306340925525

   => Energetics <=

    Nuclear Repulsion Energy =            125.3948302564809723
    One-Electron Energy =                -458.7493092816280864
    Two-Electron Energy =                 195.8485615814407481
    DFT Exchange-Correlation Energy =     -20.3071459655489086
    Empirical Dispersion Energy =           0.0000000000000000
    VV10 Nonlocal Energy =                  0.0000000000000000
    Total Energy =                       -157.8130634092552498

  UHF NO Occupations:
  HONO-2 :    9 Ap 1.9996008
  HONO-1 :   10 Ap 1.9989804
  HONO-0 :   11 Ap 1.0000000
  LUNO+0 :   12 Ap 0.0010196
  LUNO+1 :   13 Ap 0.0003992
  LUNO+2 :   14 Ap 0.0001978
  LUNO+3 :    7App 0.0001973

Computation Completed

Properties will be evaluated at   0.000000,   0.000000,   0.000000 [a0]

Properties computed using the SCF density matrix

  Nuclear Dipole Moment: [e a0]
     X:     0.8272      Y:     0.0114      Z:     0.0000

  Electronic Dipole Moment: [e a0]
     X:    -0.7493      Y:    -0.0120      Z:     0.0000

  Dipole Moment: [e a0]
     X:     0.0779      Y:    -0.0006      Z:     0.0000     Total:     0.0779

  Dipole Moment: [D]
     X:     0.1980      Y:    -0.0016      Z:     0.0000     Total:     0.1980

*** tstop() called on n041 at Fri Nov  5 12:41:06 2021
Module time:
	user time   =     646.88 seconds =      10.78 minutes
	system time =      12.26 seconds =       0.20 minutes
	total time  =        168 seconds =       2.80 minutes
Total time:
	user time   =     646.88 seconds =      10.78 minutes
	system time =      12.26 seconds =       0.20 minutes
	total time  =        168 seconds =       2.80 minutes
Grab this energy -157.81306340925525
    Psi4 stopped on: Friday, 05 November 2021 12:41PM
    Psi4 wall time for execution: 0:02:47.77

*** Psi4 exiting successfully. Buy a developer a beer!
