                               Psi4 1.4a2.dev629

  ==> Input File <==

--------------------------------------------------------------------------
import os
memory 14 GB

molecule {
 C   -0.3233393577    0.0004923768    0.0010216311
 C    0.0604435004   -1.4000211439   -2.4267734942
 C    0.0611166605    2.8026163989   -0.0018004589
 C    0.0617397912   -1.4012422538    2.4252809083
 H    2.0890989850   -1.6442549272   -2.8469648052
 H   -0.7664611812   -0.3866694627   -4.0261547342
 H   -0.7663177262   -3.2944748172   -2.3482212902
 H    2.0826154829    3.2885969550    0.0006945841
 H   -0.7633249877    3.6796429957    1.6727418202
 H   -0.7636174235    3.6798183103   -1.6721776273
 H    2.0889578244   -1.6437335518    2.8474599629
 H   -0.7668370514   -3.2942025379    2.3486397691
 H   -0.7666823935   -0.3865926559    4.0262537342
units bohr
0 2
}

basis {

assign 6-31g_2dfp_

[ 6-31g_2dfp_ ]

spherical

!----------------------------------------------------------------------
! Basis Set Exchange
! Version v0.8.13
! https://www.basissetexchange.org
!----------------------------------------------------------------------
!   Basis set: 6-31G(2df,p)
! Description: 6-31G(2df,p)
!        Role: orbital
!     Version: 0  (Data from the original Basis Set Exchange)
!----------------------------------------------------------------------

****
H     0
S    3   1.00
     18.7311370              0.03349460
      2.8253937              0.23472695
      0.6401217              0.81375733
S    1   1.00
      0.1612778              1.00000000
P    1   1.00
      1.5000000              1.0000000
P    1   1.00
      0.3750000              1.0000000
****
B     0
S    6   1.00
   2068.8823000              0.0018663
    310.6495700              0.0142515
     70.6830330              0.0695516
     19.8610800              0.2325729
      6.2993048              0.4670787
      2.1270270              0.3634314
SP   3   1.00
      4.7279710             -0.1303938              0.0745976
      1.1903377             -0.1307889              0.3078467
      0.3594117              1.1309444              0.7434568
SP   1   1.00
      0.1267512              1.0000000              1.0000000
D    1   1.00
      0.8020000              1.0000000
D    1   1.00
      0.2005000              1.0000000
F    1   1.00
      0.5000000              1.0000000
****
C     0
S    6   1.00
   3047.5249000              0.0018347
    457.3695100              0.0140373
    103.9486900              0.0688426
     29.2101550              0.2321844
      9.2866630              0.4679413
      3.1639270              0.3623120
SP   3   1.00
      7.8682724             -0.1193324              0.0689991
      1.8812885             -0.1608542              0.3164240
      0.5442493              1.1434564              0.7443083
SP   1   1.00
      0.1687144              1.0000000              1.0000000
D    1   1.00
      1.2520000              1.0000000
D    1   1.00
      0.3130000              1.0000000
F    1   1.00
      0.8000000              1.0000000
****
N     0
S    6   1.00
   4173.5110000              0.0018348
    627.4579000              0.0139950
    142.9021000              0.0685870
     40.2343300              0.2322410
     12.8202100              0.4690700
      4.3904370              0.3604550
SP   3   1.00
     11.6263580             -0.1149610              0.0675800
      2.7162800             -0.1691180              0.3239070
      0.7722180              1.1458520              0.7408950
SP   1   1.00
      0.2120313              1.0000000              1.0000000
D    1   1.00
      1.8260000              1.0000000
D    1   1.00
      0.4565000              1.0000000
F    1   1.00
      1.0000000              1.0000000
****
O     0
S    6   1.00
   5484.6717000              0.0018311
    825.2349500              0.0139501
    188.0469600              0.0684451
     52.9645000              0.2327143
     16.8975700              0.4701930
      5.7996353              0.3585209
SP   3   1.00
     15.5396160             -0.1107775              0.0708743
      3.5999336             -0.1480263              0.3397528
      1.0137618              1.1307670              0.7271586
SP   1   1.00
      0.2700058              1.0000000              1.0000000
D    1   1.00
      2.5840000              1.0000000
D    1   1.00
      0.6460000              1.0000000
F    1   1.00
      1.4000000              1.0000000
****
F     0
S    6   1.00
   7001.7130900              0.0018196169
   1051.3660900              0.0139160796
    239.2856900              0.0684053245
     67.3974453              0.233185760
     21.5199573              0.471267439
      7.40310130             0.356618546
SP   3   1.00
     20.8479528             -0.108506975            0.0716287243
      4.80830834            -0.146451658            0.3459121030
      1.34406986             1.128688580            0.7224699570
SP   1   1.00
      0.358151393            1.0000000              1.0000000
D    1   1.00
      3.5000000              1.0000000
D    1   1.00
      0.8750000              1.0000000
F    1   1.00
      1.8500000              1.0000000
****
Al     0
S    6   1.00
  13983.1000000              0.00194267
   2098.7500000              0.0148599
    477.7050000              0.0728494
    134.3600000              0.2468300
     42.8709000              0.4872580
     14.5189000              0.3234960
SP   6   1.00
    239.6680000             -0.00292619             0.00460285
     57.4419000             -0.0374080              0.0331990
     18.2859000             -0.1144870              0.1362820
      6.5991400              0.1156350              0.3304760
      2.4904900              0.6125950              0.4491460
      0.9445400              0.3937990              0.2657040
SP   3   1.00
      1.2779000             -0.2276060             -0.0175130
      0.3975900              0.00144583             0.2445330
      0.1600950              1.0927900              0.8049340
SP   1   1.00
      0.0556577              1.0000000              1.0000000
D    1   1.00
      0.6500000              1.0000000
D    1   1.00
      0.1625000              1.0000000
F    1   1.00
      0.2500000              1.0000000
****
Si     0
S    6   1.00
  16115.9000000              0.00195948
   2425.5800000              0.01492880
    553.8670000              0.07284780
    156.3400000              0.24613000
     50.0683000              0.48591400
     17.0178000              0.32500200
SP   6   1.00
    292.7180000             -0.00278094             0.00443826
     69.8731000             -0.03571460             0.03266790
     22.3363000             -0.11498500             0.13472100
      8.1503900              0.09356340             0.32867800
      3.1345800              0.60301700             0.44964000
      1.2254300              0.41895900             0.26137200
SP   3   1.00
      1.7273800             -0.24463000            -0.01779510
      0.5729220              0.00431572             0.25353900
      0.2221920              1.09818000             0.80066900
SP   1   1.00
      0.0778369              1.00000000             1.00000000
D    1   1.00
      0.9000000              1.0000000
D    1   1.00
      0.2250000              1.0000000
F    1   1.00
      0.3200000              1.0000000
****
P     0
S    6   1.00
  19413.3000000              0.0018516
   2909.4200000              0.0142062
    661.3640000              0.0699995
    185.7590000              0.2400790
     59.1943000              0.4847620
     20.0310000              0.3352000
SP   6   1.00
    339.4780000             -0.00278217             0.00456462
     81.0101000             -0.0360499              0.03369360
     25.8780000             -0.1166310              0.13975500
      9.4522100              0.0968328              0.33936200
      3.6656600              0.6144180              0.45092100
      1.4674600              0.4037980              0.23858600
SP   3   1.00
      2.1562300             -0.2529230             -0.01776530
      0.7489970              0.0328517              0.27405800
      0.2831450              1.0812500              0.78542100
SP   1   1.00
      0.0998317              1.0000000              1.00000000
D    1   1.00
      1.1000000              1.0000000
D    1   1.00
      0.2750000              1.0000000
F    1   1.00
      0.4500000              1.0000000
****
S     0
S    6   1.00
  21917.1000000              0.0018690
   3301.4900000              0.0142300
    754.1460000              0.0696960
    212.7110000              0.2384870
     67.9896000              0.4833070
     23.0515000              0.3380740
SP   6   1.00
    423.7350000             -0.0023767              0.0040610
    100.7100000             -0.0316930              0.0306810
     32.1599000             -0.1133170              0.1304520
     11.8079000              0.0560900              0.3272050
      4.6311000              0.5922550              0.4528510
      1.8702500              0.4550060              0.2560420
SP   3   1.00
      2.6158400             -0.2503740             -0.0145110
      0.9221670              0.0669570              0.3102630
      0.3412870              1.0545100              0.7544830
SP   1   1.00
      0.1171670              1.0000000              1.0000000
D    1   1.00
      1.3000000              1.0000000
D    1   1.00
      0.3250000              1.0000000
F    1   1.00
      0.5500000              1.0000000
****
Cl     0
S    6   1.00
  25180.1000000              0.0018330
   3780.3500000              0.0140340
    860.4740000              0.0690970
    242.1450000              0.2374520
     77.3349000              0.4830340
     26.2470000              0.3398560
SP   6   1.00
    491.7650000             -0.0022974              0.0039894
    116.9840000             -0.0307140              0.0303180
     37.4153000             -0.1125280              0.1298800
     13.7834000              0.0450160              0.3279510
      5.4521500              0.5893530              0.4535270
      2.2258800              0.4652060              0.2521540
SP   3   1.00
      3.1864900             -0.2518300             -0.0142990
      1.1442700              0.0615890              0.3235720
      0.4203770              1.0601800              0.7435070
SP   1   1.00
      0.1426570              1.0000000              1.0000000
D    1   1.00
      1.5000000              1.0000000
D    1   1.00
      0.3750000              1.0000000
F    1   1.00
      0.7000000              1.0000000
****
}

set {
reference uhf
freeze_core true
e_convergence 10
d_convergence 10
dft_spherical_points 1202
dft_radial_points 99
}

e = energy('b3lyp')

print_out('Grab this energy {0}'.format(e))
--------------------------------------------------------------------------

    Molecular point group: c1

    Geometry (in Bohr), charge = 0, multiplicity = 2:

       Center              X                  Y                   Z               Mass
    ------------   -----------------  -----------------  -----------------  -----------------
         C           -0.323339469265     0.000137373069     0.001459121741    12.000000000000
         C            0.060443388835    -1.400376147631    -2.426336003559    12.000000000000
         C            0.061116548935     2.802261395169    -0.001362968259    12.000000000000
         C            0.061739679635    -1.401597257531     2.425718398941    12.000000000000
         H            2.089098873435    -1.644609930931    -2.846527314559     1.007825032230
         H           -0.766461292765    -0.387024466431    -4.025717243559     1.007825032230
         H           -0.766317837765    -3.294829820931    -2.347783799559     1.007825032230
         H            2.082615371335     3.288241951269     0.001132074741     1.007825032230
         H           -0.763325099265     3.679287991969     1.673179310841     1.007825032230
         H           -0.763617535065     3.679463306569    -1.671740136659     1.007825032230
         H            2.088957712835    -1.644088555531     2.847897453541     1.007825032230
         H           -0.766837162965    -3.294557541631     2.349077259741     1.007825032230
         H           -0.766682505065    -0.386947659631     4.026691224841     1.007825032230

  Charge       = 0
  Multiplicity = 2
  Basis Set: ANONYMOUS5593FFA5
    Blend: 6-31G_2DFP_
  Basis Set: (ANONYMOUS5593FFA5 AUX)
    Blend: DEF2-UNIVERSAL-JKFIT

    Orbital Energies [Eh]
    ---------------------

    Alpha Occupied:

       1A    -10.180342     2A    -10.167380     3A    -10.167320
       4A    -10.166344     5A     -0.797767     6A     -0.686520
       7A     -0.685855     8A     -0.530775     9A     -0.441126
      10A     -0.434759    11A     -0.434583    12A     -0.382826
      13A     -0.382372    14A     -0.363610    15A     -0.338293
      16A     -0.337704    17A     -0.168961

    Alpha Virtual:

      18A      0.076070    19A      0.134110    20A      0.134186
      21A      0.142514    22A      0.142754    23A      0.154875
      24A      0.178451    25A      0.179109    26A      0.203547
      27A      0.214806    28A      0.275852    29A      0.276119
      30A      0.399095    31A      0.399361    32A      0.403343
      33A      0.424001    34A      0.424194    35A      0.456592
      36A      0.495311    37A      0.495468    38A      0.512162
      39A      0.513978    40A      0.578692    41A      0.578938
      42A      0.591330    43A      0.591916    44A      0.602592
      45A      0.624764    46A      0.631694    47A      0.635871
      48A      0.636709    49A      0.663209    50A      0.663619
      51A      0.683543    52A      0.684179    53A      0.734994
      54A      0.825009    55A      0.825796    56A      0.853917
      57A      0.914921    58A      0.915133    59A      0.944130
      60A      0.944611    61A      0.961046    62A      0.961546
      63A      1.003455    64A      1.127790    65A      1.128430
      66A      1.142212    67A      1.163173    68A      1.163369
      69A      1.223324    70A      1.274231    71A      1.274744
      72A      1.279353    73A      1.323998    74A      1.324710
      75A      1.355980    76A      1.365699    77A      1.366409
      78A      1.392437    79A      1.403597    80A      1.404507
      81A      1.416690    82A      1.417526    83A      1.427922
      84A      1.491491    85A      1.499086    86A      1.542656
      87A      1.543009    88A      1.574028    89A      1.574876
      90A      1.669790    91A      1.739279    92A      1.739517
      93A      1.768346    94A      1.829811    95A      1.833056
      96A      1.971697    97A      2.018057    98A      2.018628
      99A      2.019690   100A      2.052065   101A      2.053270
     102A      2.738037   103A      2.738935   104A      2.790924
     105A      2.811430   106A      2.889220   107A      2.890638
     108A      2.894980   109A      2.929296   110A      2.929695
     111A      2.959004   112A      2.963790   113A      2.964983
     114A      3.034022   115A      3.071002   116A      3.071560
     117A      3.084381   118A      3.168605   119A      3.168936
     120A      3.180614   121A      3.285089   122A      3.285545
     123A      3.327100   124A      3.327222   125A      3.375613
     126A      3.489332   127A      3.490985   128A      3.514018
     129A      3.525342   130A      3.568229   131A      3.568503
     132A      3.575196   133A      3.665612   134A      3.667046
     135A      3.679684   136A      3.693643   137A      3.694649
     138A      3.776244   139A      3.777389   140A      3.789119
     141A      3.911654   142A      3.912772   143A      4.034443
     144A      4.110566   145A      4.112057   146A      4.146137
     147A      4.150004   148A      4.173323   149A      4.201089
     150A      4.202341   151A      4.205288   152A      4.211174
     153A      4.314902   154A      4.317011   155A      4.358941
     156A      4.423873   157A      4.424900   158A      4.443587
     159A      4.516540   160A      4.517107   161A      4.577748
     162A      4.578838   163A      4.617528   164A      4.709491
     165A      4.774408   166A      4.774782   167A      4.836882
     168A      4.962865   169A      5.002318   170A      5.003622
     171A      5.227828   172A      5.243158   173A      5.250457
     174A      5.352499   175A      5.358698   176A      5.479438

    Beta Occupied:

       1A    -10.168140     2A    -10.168082     3A    -10.167106
       4A    -10.166515     5A     -0.781092     6A     -0.684322
       7A     -0.683659     8A     -0.511747     9A     -0.431143
      10A     -0.430943    11A     -0.421822    12A     -0.376922
      13A     -0.376447    14A     -0.362593    15A     -0.333415
      16A     -0.332828

    Beta Virtual:

      17A     -0.025743    18A      0.077079    19A      0.134961
      20A      0.135115    21A      0.144433    22A      0.144575
      23A      0.163334    24A      0.182133    25A      0.182770
      26A      0.215035    27A      0.218929    28A      0.282213
      29A      0.282454    30A      0.400262    31A      0.400533
      32A      0.419788    33A      0.426810    34A      0.427009
      35A      0.468500    36A      0.497573    37A      0.497727
      38A      0.513897    39A      0.556324    40A      0.584234
      41A      0.584495    42A      0.597531    43A      0.598079
      44A      0.610010    45A      0.628140    46A      0.631886
      47A      0.639177    48A      0.639940    49A      0.666758
      50A      0.667197    51A      0.686213    52A      0.686779
      53A      0.757518    54A      0.830152    55A      0.830990
      56A      0.855271    57A      0.922892    58A      0.923104
      59A      0.945967    60A      0.953539    61A      0.966383
      62A      0.966822    63A      1.008695    64A      1.131803
      65A      1.132476    66A      1.155580    67A      1.168233
      68A      1.168464    69A      1.232297    70A      1.279807
      71A      1.280362    72A      1.285108    73A      1.328939
      74A      1.329747    75A      1.365389    76A      1.370934
      77A      1.371666    78A      1.393497    79A      1.407043
      80A      1.407990    81A      1.421716    82A      1.422597
      83A      1.428194    84A      1.492540    85A      1.509529
      86A      1.547032    87A      1.547446    88A      1.581912
      89A      1.582736    90A      1.674636    91A      1.745056
      92A      1.745269    93A      1.779120    94A      1.833696
      95A      1.836882    96A      1.972561    97A      2.025024
      98A      2.025846    99A      2.039671   100A      2.058758
     101A      2.060014   102A      2.746360   103A      2.747284
     104A      2.811841   105A      2.816059   106A      2.901953
     107A      2.903309   108A      2.924652   109A      2.931770
     110A      2.932189   111A      2.960069   112A      2.968304
     113A      2.969556   114A      3.041955   115A      3.080826
     116A      3.081523   117A      3.086232   118A      3.184310
     119A      3.184679   120A      3.188348   121A      3.289906
     122A      3.290326   123A      3.330903   124A      3.331027
     125A      3.383431   126A      3.492093   127A      3.493684
     128A      3.512383   129A      3.528387   130A      3.574943
     131A      3.581726   132A      3.581796   133A      3.670286
     134A      3.671893   135A      3.692996   136A      3.725248
     137A      3.726264   138A      3.780799   139A      3.781889
     140A      3.817664   141A      3.921468   142A      3.922593
     143A      4.045325   144A      4.117566   145A      4.118665
     146A      4.153573   147A      4.157020   148A      4.187374
     149A      4.208062   150A      4.208257   151A      4.212240
     152A      4.215654   153A      4.322393   154A      4.324396
     155A      4.362306   156A      4.432105   157A      4.433035
     158A      4.446535   159A      4.524385   160A      4.524844
     161A      4.588399   162A      4.589387   163A      4.624720
     164A      4.719835   165A      4.781357   166A      4.781739
     167A      4.839798   168A      4.967661   169A      5.006372
     170A      5.007646   171A      5.233532   172A      5.244957
     173A      5.252242   174A      5.358993   175A      5.365160
     176A      5.481759

    Final Occupation by Irrep:
              A
    DOCC [    16 ]
    SOCC [     1 ]

  @DF-UKS Final Energy:  -157.81305571350177

   => Energetics <=

    Nuclear Repulsion Energy =            125.3946661043258501
    One-Electron Energy =                -458.7489584637314692
    Two-Electron Energy =                 195.8483844547725425
    DFT Exchange-Correlation Energy =     -20.3071478088686881
    Empirical Dispersion Energy =           0.0000000000000000
    VV10 Nonlocal Energy =                  0.0000000000000000
    Total Energy =                       -157.8130557135017682

  UHF NO Occupations:
  HONO-2 :   15  A 1.9996009
  HONO-1 :   16  A 1.9989805
  HONO-0 :   17  A 1.0000000
  LUNO+0 :   18  A 0.0010195
  LUNO+1 :   19  A 0.0003991
  LUNO+2 :   20  A 0.0001980
  LUNO+3 :   21  A 0.0001971

Computation Completed

Properties will be evaluated at   0.000000,   0.000000,   0.000000 [a0]

Properties computed using the SCF density matrix

  Nuclear Dipole Moment: [e a0]
     X:     0.8272      Y:    -0.0025      Z:     0.0031

  Electronic Dipole Moment: [e a0]
     X:    -0.7493      Y:     0.0050      Z:    -0.0030

  Dipole Moment: [e a0]
     X:     0.0779      Y:     0.0024      Z:     0.0001     Total:     0.0780

  Dipole Moment: [D]
     X:     0.1980      Y:     0.0062      Z:     0.0001     Total:     0.1981

*** tstop() called on n066 at Fri Nov  5 12:07:07 2021
Module time:
	user time   =     542.01 seconds =       9.03 minutes
	system time =      12.10 seconds =       0.20 minutes
	total time  =        139 seconds =       2.32 minutes
Total time:
	user time   =     542.01 seconds =       9.03 minutes
	system time =      12.10 seconds =       0.20 minutes
	total time  =        139 seconds =       2.32 minutes
Grab this energy -157.81305571350177
    Psi4 stopped on: Friday, 05 November 2021 12:07PM
    Psi4 wall time for execution: 0:02:19.34

*** Psi4 exiting successfully. Buy a developer a beer!
