                               Psi4 1.4a2.dev629

  ==> Input File <==

--------------------------------------------------------------------------
import os
memory 14 GB

molecule {
 C   -0.3233396936   -0.0002267064    0.0004326921
 C    0.0607886048   -1.4013201992   -2.4249227315
 C    0.0611889008    2.8040291878    0.0013895174
 C    0.0613247798   -1.4000256012    2.4254569279
 H    2.0876861461   -1.6456397936   -2.8469367383
 H   -0.7671924153   -0.3883218523   -4.0264651468
 H   -0.7642563173   -3.2901476264   -2.3500727011
 H    2.0868779307    3.2874219221    0.0034969445
 H   -0.7625697586    3.6786929115    1.6742615915
 H   -0.7689818102    3.6804915196   -1.6790416565
 H    2.0861068259   -1.6426218387    2.8486971229
 H   -0.7668585221   -3.2939186083    2.3486476038
 H   -0.7633825479   -0.3884376286    4.0250565740
units bohr
0 2
}

basis {

assign 6-31g_2dfp_

[ 6-31g_2dfp_ ]

spherical

!----------------------------------------------------------------------
! Basis Set Exchange
! Version v0.8.13
! https://www.basissetexchange.org
!----------------------------------------------------------------------
!   Basis set: 6-31G(2df,p)
! Description: 6-31G(2df,p)
!        Role: orbital
!     Version: 0  (Data from the original Basis Set Exchange)
!----------------------------------------------------------------------

****
H     0
S    3   1.00
     18.7311370              0.03349460
      2.8253937              0.23472695
      0.6401217              0.81375733
S    1   1.00
      0.1612778              1.00000000
P    1   1.00
      1.5000000              1.0000000
P    1   1.00
      0.3750000              1.0000000
****
B     0
S    6   1.00
   2068.8823000              0.0018663
    310.6495700              0.0142515
     70.6830330              0.0695516
     19.8610800              0.2325729
      6.2993048              0.4670787
      2.1270270              0.3634314
SP   3   1.00
      4.7279710             -0.1303938              0.0745976
      1.1903377             -0.1307889              0.3078467
      0.3594117              1.1309444              0.7434568
SP   1   1.00
      0.1267512              1.0000000              1.0000000
D    1   1.00
      0.8020000              1.0000000
D    1   1.00
      0.2005000              1.0000000
F    1   1.00
      0.5000000              1.0000000
****
C     0
S    6   1.00
   3047.5249000              0.0018347
    457.3695100              0.0140373
    103.9486900              0.0688426
     29.2101550              0.2321844
      9.2866630              0.4679413
      3.1639270              0.3623120
SP   3   1.00
      7.8682724             -0.1193324              0.0689991
      1.8812885             -0.1608542              0.3164240
      0.5442493              1.1434564              0.7443083
SP   1   1.00
      0.1687144              1.0000000              1.0000000
D    1   1.00
      1.2520000              1.0000000
D    1   1.00
      0.3130000              1.0000000
F    1   1.00
      0.8000000              1.0000000
****
N     0
S    6   1.00
   4173.5110000              0.0018348
    627.4579000              0.0139950
    142.9021000              0.0685870
     40.2343300              0.2322410
     12.8202100              0.4690700
      4.3904370              0.3604550
SP   3   1.00
     11.6263580             -0.1149610              0.0675800
      2.7162800             -0.1691180              0.3239070
      0.7722180              1.1458520              0.7408950
SP   1   1.00
      0.2120313              1.0000000              1.0000000
D    1   1.00
      1.8260000              1.0000000
D    1   1.00
      0.4565000              1.0000000
F    1   1.00
      1.0000000              1.0000000
****
O     0
S    6   1.00
   5484.6717000              0.0018311
    825.2349500              0.0139501
    188.0469600              0.0684451
     52.9645000              0.2327143
     16.8975700              0.4701930
      5.7996353              0.3585209
SP   3   1.00
     15.5396160             -0.1107775              0.0708743
      3.5999336             -0.1480263              0.3397528
      1.0137618              1.1307670              0.7271586
SP   1   1.00
      0.2700058              1.0000000              1.0000000
D    1   1.00
      2.5840000              1.0000000
D    1   1.00
      0.6460000              1.0000000
F    1   1.00
      1.4000000              1.0000000
****
F     0
S    6   1.00
   7001.7130900              0.0018196169
   1051.3660900              0.0139160796
    239.2856900              0.0684053245
     67.3974453              0.233185760
     21.5199573              0.471267439
      7.40310130             0.356618546
SP   3   1.00
     20.8479528             -0.108506975            0.0716287243
      4.80830834            -0.146451658            0.3459121030
      1.34406986             1.128688580            0.7224699570
SP   1   1.00
      0.358151393            1.0000000              1.0000000
D    1   1.00
      3.5000000              1.0000000
D    1   1.00
      0.8750000              1.0000000
F    1   1.00
      1.8500000              1.0000000
****
Al     0
S    6   1.00
  13983.1000000              0.00194267
   2098.7500000              0.0148599
    477.7050000              0.0728494
    134.3600000              0.2468300
     42.8709000              0.4872580
     14.5189000              0.3234960
SP   6   1.00
    239.6680000             -0.00292619             0.00460285
     57.4419000             -0.0374080              0.0331990
     18.2859000             -0.1144870              0.1362820
      6.5991400              0.1156350              0.3304760
      2.4904900              0.6125950              0.4491460
      0.9445400              0.3937990              0.2657040
SP   3   1.00
      1.2779000             -0.2276060             -0.0175130
      0.3975900              0.00144583             0.2445330
      0.1600950              1.0927900              0.8049340
SP   1   1.00
      0.0556577              1.0000000              1.0000000
D    1   1.00
      0.6500000              1.0000000
D    1   1.00
      0.1625000              1.0000000
F    1   1.00
      0.2500000              1.0000000
****
Si     0
S    6   1.00
  16115.9000000              0.00195948
   2425.5800000              0.01492880
    553.8670000              0.07284780
    156.3400000              0.24613000
     50.0683000              0.48591400
     17.0178000              0.32500200
SP   6   1.00
    292.7180000             -0.00278094             0.00443826
     69.8731000             -0.03571460             0.03266790
     22.3363000             -0.11498500             0.13472100
      8.1503900              0.09356340             0.32867800
      3.1345800              0.60301700             0.44964000
      1.2254300              0.41895900             0.26137200
SP   3   1.00
      1.7273800             -0.24463000            -0.01779510
      0.5729220              0.00431572             0.25353900
      0.2221920              1.09818000             0.80066900
SP   1   1.00
      0.0778369              1.00000000             1.00000000
D    1   1.00
      0.9000000              1.0000000
D    1   1.00
      0.2250000              1.0000000
F    1   1.00
      0.3200000              1.0000000
****
P     0
S    6   1.00
  19413.3000000              0.0018516
   2909.4200000              0.0142062
    661.3640000              0.0699995
    185.7590000              0.2400790
     59.1943000              0.4847620
     20.0310000              0.3352000
SP   6   1.00
    339.4780000             -0.00278217             0.00456462
     81.0101000             -0.0360499              0.03369360
     25.8780000             -0.1166310              0.13975500
      9.4522100              0.0968328              0.33936200
      3.6656600              0.6144180              0.45092100
      1.4674600              0.4037980              0.23858600
SP   3   1.00
      2.1562300             -0.2529230             -0.01776530
      0.7489970              0.0328517              0.27405800
      0.2831450              1.0812500              0.78542100
SP   1   1.00
      0.0998317              1.0000000              1.00000000
D    1   1.00
      1.1000000              1.0000000
D    1   1.00
      0.2750000              1.0000000
F    1   1.00
      0.4500000              1.0000000
****
S     0
S    6   1.00
  21917.1000000              0.0018690
   3301.4900000              0.0142300
    754.1460000              0.0696960
    212.7110000              0.2384870
     67.9896000              0.4833070
     23.0515000              0.3380740
SP   6   1.00
    423.7350000             -0.0023767              0.0040610
    100.7100000             -0.0316930              0.0306810
     32.1599000             -0.1133170              0.1304520
     11.8079000              0.0560900              0.3272050
      4.6311000              0.5922550              0.4528510
      1.8702500              0.4550060              0.2560420
SP   3   1.00
      2.6158400             -0.2503740             -0.0145110
      0.9221670              0.0669570              0.3102630
      0.3412870              1.0545100              0.7544830
SP   1   1.00
      0.1171670              1.0000000              1.0000000
D    1   1.00
      1.3000000              1.0000000
D    1   1.00
      0.3250000              1.0000000
F    1   1.00
      0.5500000              1.0000000
****
Cl     0
S    6   1.00
  25180.1000000              0.0018330
   3780.3500000              0.0140340
    860.4740000              0.0690970
    242.1450000              0.2374520
     77.3349000              0.4830340
     26.2470000              0.3398560
SP   6   1.00
    491.7650000             -0.0022974              0.0039894
    116.9840000             -0.0307140              0.0303180
     37.4153000             -0.1125280              0.1298800
     13.7834000              0.0450160              0.3279510
      5.4521500              0.5893530              0.4535270
      2.2258800              0.4652060              0.2521540
SP   3   1.00
      3.1864900             -0.2518300             -0.0142990
      1.1442700              0.0615890              0.3235720
      0.4203770              1.0601800              0.7435070
SP   1   1.00
      0.1426570              1.0000000              1.0000000
D    1   1.00
      1.5000000              1.0000000
D    1   1.00
      0.3750000              1.0000000
F    1   1.00
      0.7000000              1.0000000
****
}

set {
reference uhf
freeze_core true
e_convergence 10
d_convergence 10
dft_spherical_points 1202
dft_radial_points 99
}

e = energy('b3lyp')

print_out('Grab this energy {0}'.format(e))
--------------------------------------------------------------------------

    Molecular point group: c1

    Geometry (in Bohr), charge = 0, multiplicity = 2:

       Center              X                  Y                   Z               Mass
    ------------   -----------------  -----------------  -----------------  -----------------
         C           -0.323340189877    -0.000699451492    -0.000021168647    12.000000000000
         C            0.060788108523    -1.401792944292    -2.425376592247    12.000000000000
         C            0.061188404523     2.803556442708     0.000935656653    12.000000000000
         C            0.061324283523    -1.400498346292     2.425003067153    12.000000000000
         H            2.087685649823    -1.646112538692    -2.847390599047     1.007825032230
         H           -0.767192911577    -0.388794597392    -4.026919007547     1.007825032230
         H           -0.764256813577    -3.290620371492    -2.350526561847     1.007825032230
         H            2.086877434423     3.286949177008     0.003043083753     1.007825032230
         H           -0.762570254877     3.678220166408     1.673807730753     1.007825032230
         H           -0.768982306477     3.680018774508    -1.679495517247     1.007825032230
         H            2.086106329623    -1.643094583792     2.848243262153     1.007825032230
         H           -0.766859018377    -3.294391353392     2.348193743053     1.007825032230
         H           -0.763383044177    -0.388910373692     4.024602713253     1.007825032230

  Charge       = 0
  Multiplicity = 2
  Basis Set: ANONYMOUSA2CD9C5D
    Blend: 6-31G_2DFP_
  Basis Set: (ANONYMOUSA2CD9C5D AUX)
    Blend: DEF2-UNIVERSAL-JKFIT

    Orbital Energies [Eh]
    ---------------------

    Alpha Occupied:

       1A    -10.180342     2A    -10.167052     3A    -10.167027
       4A    -10.166965     5A     -0.797766     6A     -0.686253
       7A     -0.686123     8A     -0.530779     9A     -0.441126
      10A     -0.434873    11A     -0.434466    12A     -0.382693
      13A     -0.382505    14A     -0.363613    15A     -0.338261
      16A     -0.337734    17A     -0.168961

    Alpha Virtual:

      18A      0.076070    19A      0.134038    20A      0.134268
      21A      0.142414    22A      0.142841    23A      0.154883
      24A      0.178655    25A      0.178902    26A      0.203545
      27A      0.214804    28A      0.275738    29A      0.276235
      30A      0.398978    31A      0.399475    32A      0.403347
      33A      0.423929    34A      0.424265    35A      0.456593
      36A      0.495334    37A      0.495445    38A      0.512161
      39A      0.513980    40A      0.578743    41A      0.578886
      42A      0.591477    43A      0.591790    44A      0.602573
      45A      0.624717    46A      0.631766    47A      0.635927
      48A      0.636622    49A      0.663193    50A      0.663631
      51A      0.683658    52A      0.684063    53A      0.734994
      54A      0.825150    55A      0.825665    56A      0.853915
      57A      0.914812    58A      0.915239    59A      0.944125
      60A      0.944607    61A      0.961203    62A      0.961385
      63A      1.003454    64A      1.127812    65A      1.128407
      66A      1.142227    67A      1.162973    68A      1.163567
      69A      1.223322    70A      1.274091    71A      1.274870
      72A      1.279374    73A      1.324133    74A      1.324571
      75A      1.355988    76A      1.365717    77A      1.366395
      78A      1.392442    79A      1.403867    80A      1.404223
      81A      1.416387    82A      1.417833    83A      1.427915
      84A      1.491495    85A      1.499072    86A      1.542765
      87A      1.542906    88A      1.574172    89A      1.574723
      90A      1.669828    91A      1.738689    92A      1.740144
      93A      1.768321    94A      1.830467    95A      1.832314
      96A      1.971756    97A      2.017600    98A      2.018638
      99A      2.020142   100A      2.051794   101A      2.053513
     102A      2.738267   103A      2.738702   104A      2.790924
     105A      2.811426   106A      2.889776   107A      2.890125
     108A      2.894946   109A      2.929429   110A      2.929566
     111A      2.958960   112A      2.964301   113A      2.964492
     114A      3.034009   115A      3.070686   116A      3.071821
     117A      3.084436   118A      3.168316   119A      3.169225
     120A      3.180609   121A      3.285150   122A      3.285471
     123A      3.326734   124A      3.327587   125A      3.375624
     126A      3.489735   127A      3.490581   128A      3.514018
     129A      3.525329   130A      3.567951   131A      3.568835
     132A      3.575120   133A      3.665548   134A      3.667229
     135A      3.679655   136A      3.693856   137A      3.694424
     138A      3.776573   139A      3.777008   140A      3.789131
     141A      3.911273   142A      3.913177   143A      4.034441
     144A      4.110784   145A      4.111888   146A      4.147717
     147A      4.148444   148A      4.173346   149A      4.201899
     150A      4.202842   151A      4.204000   152A      4.210975
     153A      4.314988   154A      4.316924   155A      4.358980
     156A      4.423386   157A      4.425434   158A      4.443557
     159A      4.515600   160A      4.518080   161A      4.578250
     162A      4.578283   163A      4.617553   164A      4.709430
     165A      4.773558   166A      4.775622   167A      4.836927
     168A      4.962831   169A      5.002153   170A      5.003809
     171A      5.227587   172A      5.246572   173A      5.247453
     174A      5.354252   175A      5.356786   176A      5.479411

    Beta Occupied:

       1A    -10.167808     2A    -10.167789     3A    -10.167727
       4A    -10.166519     5A     -0.781092     6A     -0.684059
       7A     -0.683922     8A     -0.511750     9A     -0.431248
      10A     -0.430836    11A     -0.421820    12A     -0.376797
      13A     -0.376572    14A     -0.362597    15A     -0.333382
      16A     -0.332859

    Beta Virtual:

      17A     -0.025743    18A      0.077079    19A      0.134904
      20A      0.135182    21A      0.144261    22A      0.144735
      23A      0.163340    24A      0.182334    25A      0.182565
      26A      0.215033    27A      0.218928    28A      0.282094
      29A      0.282574    30A      0.400145    31A      0.400648
      32A      0.419791    33A      0.426740    34A      0.427076
      35A      0.468501    36A      0.497588    37A      0.497713
      38A      0.513896    39A      0.556325    40A      0.584291
      41A      0.584439    42A      0.597635    43A      0.597990
      44A      0.609998    45A      0.628094    46A      0.631925
      47A      0.639232    48A      0.639884    49A      0.666769
      50A      0.667182    51A      0.686317    52A      0.686674
      53A      0.757517    54A      0.830329    55A      0.830823
      56A      0.855269    57A      0.922803    58A      0.923191
      59A      0.945962    60A      0.953533    61A      0.966496
      62A      0.966706    63A      1.008694    64A      1.131851
      65A      1.132430    66A      1.155598    67A      1.168031
      68A      1.168657    69A      1.232295    70A      1.279675
      71A      1.280479    72A      1.285129    73A      1.329127
      74A      1.329555    75A      1.365404    76A      1.371028
      77A      1.371570    78A      1.393503    79A      1.407373
      80A      1.407647    81A      1.421488    82A      1.422825
      83A      1.428190    84A      1.492544    85A      1.509515
      86A      1.547154    87A      1.547334    88A      1.582039
      89A      1.582597    90A      1.674675    91A      1.744437
      92A      1.745922    93A      1.779099    94A      1.834323
      95A      1.836168    96A      1.972617    97A      2.024654
      98A      2.026206    99A      2.039679   100A      2.058514
     101A      2.060242   102A      2.746604   103A      2.747037
     104A      2.811838   105A      2.816059   106A      2.902438
     107A      2.902843   108A      2.924646   109A      2.931927
     110A      2.932031   111A      2.960036   112A      2.968818
     113A      2.969050   114A      3.041944   115A      3.080529
     116A      3.081669   117A      3.086384   118A      3.184076
     119A      3.184902   120A      3.188354   121A      3.289938
     122A      3.290283   123A      3.330510   124A      3.331418
     125A      3.383443   126A      3.492457   127A      3.493319
     128A      3.512384   129A      3.528374   130A      3.574977
     131A      3.581212   132A      3.582257   133A      3.670337
     134A      3.671939   135A      3.692960   136A      3.725615
     137A      3.725915   138A      3.781045   139A      3.781593
     140A      3.817671   141A      3.921085   142A      3.922997
     143A      4.045329   144A      4.117369   145A      4.118938
     146A      4.154768   147A      4.155829   148A      4.187380
     149A      4.207985   150A      4.209876   151A      4.210715
     152A      4.215461   153A      4.322436   154A      4.324359
     155A      4.362343   156A      4.431639   157A      4.433572
     158A      4.446479   159A      4.523387   160A      4.525871
     161A      4.588828   162A      4.588907   163A      4.624747
     164A      4.719774   165A      4.780543   166A      4.782544
     167A      4.839845   168A      4.967626   169A      5.006206
     170A      5.007833   171A      5.233199   172A      5.248369
     173A      5.249333   174A      5.360739   175A      5.363254
     176A      5.481734

    Final Occupation by Irrep:
              A
    DOCC [    16 ]
    SOCC [     1 ]

  @DF-UKS Final Energy:  -157.81305885789374

   => Energetics <=

    Nuclear Repulsion Energy =            125.3946268159835427
    One-Electron Energy =                -458.7488853230228756
    Two-Electron Energy =                 195.8483459859355662
    DFT Exchange-Correlation Energy =     -20.3071463367899554
    Empirical Dispersion Energy =           0.0000000000000000
    VV10 Nonlocal Energy =                  0.0000000000000000
    Total Energy =                       -157.8130588578937363

  UHF NO Occupations:
  HONO-2 :   15  A 1.9996009
  HONO-1 :   16  A 1.9989805
  HONO-0 :   17  A 1.0000000
  LUNO+0 :   18  A 0.0010195
  LUNO+1 :   19  A 0.0003991
  LUNO+2 :   20  A 0.0001979
  LUNO+3 :   21  A 0.0001972

Computation Completed

Properties will be evaluated at   0.000000,   0.000000,   0.000000 [a0]

Properties computed using the SCF density matrix

  Nuclear Dipole Moment: [e a0]
     X:     0.8272      Y:    -0.0033      Z:    -0.0032

  Electronic Dipole Moment: [e a0]
     X:    -0.7493      Y:     0.0034      Z:     0.0049

  Dipole Moment: [e a0]
     X:     0.0779      Y:     0.0001      Z:     0.0017     Total:     0.0779

  Dipole Moment: [D]
     X:     0.1980      Y:     0.0002      Z:     0.0044     Total:     0.1981

*** tstop() called on n065 at Fri Nov  5 12:58:25 2021
Module time:
	user time   =     614.45 seconds =      10.24 minutes
	system time =      14.09 seconds =       0.23 minutes
	total time  =        158 seconds =       2.63 minutes
Total time:
	user time   =     614.45 seconds =      10.24 minutes
	system time =      14.09 seconds =       0.23 minutes
	total time  =        158 seconds =       2.63 minutes
Grab this energy -157.81305885789374
    Psi4 stopped on: Friday, 05 November 2021 12:58PM
    Psi4 wall time for execution: 0:02:37.97

*** Psi4 exiting successfully. Buy a developer a beer!
