                               Psi4 1.4a2.dev629

  ==> Input File <==

--------------------------------------------------------------------------
import os
memory 14 GB

molecule {
 C   -0.3251193229   -0.0000017292   -0.0002246569
 C    0.0604342005   -1.3998145214   -2.4250228561
 C    0.0604631533    2.8020174836   -0.0004831491
 C    0.0607311678   -1.4021974338    2.4281843816
 H    2.0871863242   -1.6414573046   -2.8426850480
 H   -0.7649063221   -0.3907702494   -4.0284056799
 H   -0.7650065139   -3.2933327360   -2.3526023673
 H    2.0871164002    3.2820696315    0.0001834190
 H   -0.7651677057    3.6834707090    1.6760318927
 H   -0.7652927551    3.6834946576   -1.6758452133
 H    2.0873191420   -1.6407056292    2.8417497311
 H   -0.7652954260   -3.2929204574    2.3515330173
 H   -0.7650702187   -0.3898767343    4.0275865289
units bohr
0 2
}

basis {

assign 6-31g_2dfp_

[ 6-31g_2dfp_ ]

spherical

!----------------------------------------------------------------------
! Basis Set Exchange
! Version v0.8.13
! https://www.basissetexchange.org
!----------------------------------------------------------------------
!   Basis set: 6-31G(2df,p)
! Description: 6-31G(2df,p)
!        Role: orbital
!     Version: 0  (Data from the original Basis Set Exchange)
!----------------------------------------------------------------------

****
H     0
S    3   1.00
     18.7311370              0.03349460
      2.8253937              0.23472695
      0.6401217              0.81375733
S    1   1.00
      0.1612778              1.00000000
P    1   1.00
      1.5000000              1.0000000
P    1   1.00
      0.3750000              1.0000000
****
B     0
S    6   1.00
   2068.8823000              0.0018663
    310.6495700              0.0142515
     70.6830330              0.0695516
     19.8610800              0.2325729
      6.2993048              0.4670787
      2.1270270              0.3634314
SP   3   1.00
      4.7279710             -0.1303938              0.0745976
      1.1903377             -0.1307889              0.3078467
      0.3594117              1.1309444              0.7434568
SP   1   1.00
      0.1267512              1.0000000              1.0000000
D    1   1.00
      0.8020000              1.0000000
D    1   1.00
      0.2005000              1.0000000
F    1   1.00
      0.5000000              1.0000000
****
C     0
S    6   1.00
   3047.5249000              0.0018347
    457.3695100              0.0140373
    103.9486900              0.0688426
     29.2101550              0.2321844
      9.2866630              0.4679413
      3.1639270              0.3623120
SP   3   1.00
      7.8682724             -0.1193324              0.0689991
      1.8812885             -0.1608542              0.3164240
      0.5442493              1.1434564              0.7443083
SP   1   1.00
      0.1687144              1.0000000              1.0000000
D    1   1.00
      1.2520000              1.0000000
D    1   1.00
      0.3130000              1.0000000
F    1   1.00
      0.8000000              1.0000000
****
N     0
S    6   1.00
   4173.5110000              0.0018348
    627.4579000              0.0139950
    142.9021000              0.0685870
     40.2343300              0.2322410
     12.8202100              0.4690700
      4.3904370              0.3604550
SP   3   1.00
     11.6263580             -0.1149610              0.0675800
      2.7162800             -0.1691180              0.3239070
      0.7722180              1.1458520              0.7408950
SP   1   1.00
      0.2120313              1.0000000              1.0000000
D    1   1.00
      1.8260000              1.0000000
D    1   1.00
      0.4565000              1.0000000
F    1   1.00
      1.0000000              1.0000000
****
O     0
S    6   1.00
   5484.6717000              0.0018311
    825.2349500              0.0139501
    188.0469600              0.0684451
     52.9645000              0.2327143
     16.8975700              0.4701930
      5.7996353              0.3585209
SP   3   1.00
     15.5396160             -0.1107775              0.0708743
      3.5999336             -0.1480263              0.3397528
      1.0137618              1.1307670              0.7271586
SP   1   1.00
      0.2700058              1.0000000              1.0000000
D    1   1.00
      2.5840000              1.0000000
D    1   1.00
      0.6460000              1.0000000
F    1   1.00
      1.4000000              1.0000000
****
F     0
S    6   1.00
   7001.7130900              0.0018196169
   1051.3660900              0.0139160796
    239.2856900              0.0684053245
     67.3974453              0.233185760
     21.5199573              0.471267439
      7.40310130             0.356618546
SP   3   1.00
     20.8479528             -0.108506975            0.0716287243
      4.80830834            -0.146451658            0.3459121030
      1.34406986             1.128688580            0.7224699570
SP   1   1.00
      0.358151393            1.0000000              1.0000000
D    1   1.00
      3.5000000              1.0000000
D    1   1.00
      0.8750000              1.0000000
F    1   1.00
      1.8500000              1.0000000
****
Al     0
S    6   1.00
  13983.1000000              0.00194267
   2098.7500000              0.0148599
    477.7050000              0.0728494
    134.3600000              0.2468300
     42.8709000              0.4872580
     14.5189000              0.3234960
SP   6   1.00
    239.6680000             -0.00292619             0.00460285
     57.4419000             -0.0374080              0.0331990
     18.2859000             -0.1144870              0.1362820
      6.5991400              0.1156350              0.3304760
      2.4904900              0.6125950              0.4491460
      0.9445400              0.3937990              0.2657040
SP   3   1.00
      1.2779000             -0.2276060             -0.0175130
      0.3975900              0.00144583             0.2445330
      0.1600950              1.0927900              0.8049340
SP   1   1.00
      0.0556577              1.0000000              1.0000000
D    1   1.00
      0.6500000              1.0000000
D    1   1.00
      0.1625000              1.0000000
F    1   1.00
      0.2500000              1.0000000
****
Si     0
S    6   1.00
  16115.9000000              0.00195948
   2425.5800000              0.01492880
    553.8670000              0.07284780
    156.3400000              0.24613000
     50.0683000              0.48591400
     17.0178000              0.32500200
SP   6   1.00
    292.7180000             -0.00278094             0.00443826
     69.8731000             -0.03571460             0.03266790
     22.3363000             -0.11498500             0.13472100
      8.1503900              0.09356340             0.32867800
      3.1345800              0.60301700             0.44964000
      1.2254300              0.41895900             0.26137200
SP   3   1.00
      1.7273800             -0.24463000            -0.01779510
      0.5729220              0.00431572             0.25353900
      0.2221920              1.09818000             0.80066900
SP   1   1.00
      0.0778369              1.00000000             1.00000000
D    1   1.00
      0.9000000              1.0000000
D    1   1.00
      0.2250000              1.0000000
F    1   1.00
      0.3200000              1.0000000
****
P     0
S    6   1.00
  19413.3000000              0.0018516
   2909.4200000              0.0142062
    661.3640000              0.0699995
    185.7590000              0.2400790
     59.1943000              0.4847620
     20.0310000              0.3352000
SP   6   1.00
    339.4780000             -0.00278217             0.00456462
     81.0101000             -0.0360499              0.03369360
     25.8780000             -0.1166310              0.13975500
      9.4522100              0.0968328              0.33936200
      3.6656600              0.6144180              0.45092100
      1.4674600              0.4037980              0.23858600
SP   3   1.00
      2.1562300             -0.2529230             -0.01776530
      0.7489970              0.0328517              0.27405800
      0.2831450              1.0812500              0.78542100
SP   1   1.00
      0.0998317              1.0000000              1.00000000
D    1   1.00
      1.1000000              1.0000000
D    1   1.00
      0.2750000              1.0000000
F    1   1.00
      0.4500000              1.0000000
****
S     0
S    6   1.00
  21917.1000000              0.0018690
   3301.4900000              0.0142300
    754.1460000              0.0696960
    212.7110000              0.2384870
     67.9896000              0.4833070
     23.0515000              0.3380740
SP   6   1.00
    423.7350000             -0.0023767              0.0040610
    100.7100000             -0.0316930              0.0306810
     32.1599000             -0.1133170              0.1304520
     11.8079000              0.0560900              0.3272050
      4.6311000              0.5922550              0.4528510
      1.8702500              0.4550060              0.2560420
SP   3   1.00
      2.6158400             -0.2503740             -0.0145110
      0.9221670              0.0669570              0.3102630
      0.3412870              1.0545100              0.7544830
SP   1   1.00
      0.1171670              1.0000000              1.0000000
D    1   1.00
      1.3000000              1.0000000
D    1   1.00
      0.3250000              1.0000000
F    1   1.00
      0.5500000              1.0000000
****
Cl     0
S    6   1.00
  25180.1000000              0.0018330
   3780.3500000              0.0140340
    860.4740000              0.0690970
    242.1450000              0.2374520
     77.3349000              0.4830340
     26.2470000              0.3398560
SP   6   1.00
    491.7650000             -0.0022974              0.0039894
    116.9840000             -0.0307140              0.0303180
     37.4153000             -0.1125280              0.1298800
     13.7834000              0.0450160              0.3279510
      5.4521500              0.5893530              0.4535270
      2.2258800              0.4652060              0.2521540
SP   3   1.00
      3.1864900             -0.2518300             -0.0142990
      1.1442700              0.0615890              0.3235720
      0.4203770              1.0601800              0.7435070
SP   1   1.00
      0.1426570              1.0000000              1.0000000
D    1   1.00
      1.5000000              1.0000000
D    1   1.00
      0.3750000              1.0000000
F    1   1.00
      0.7000000              1.0000000
****
}

set {
reference uhf
freeze_core true
e_convergence 10
d_convergence 10
dft_spherical_points 1202
dft_radial_points 99
}

e = energy('b3lyp')

print_out('Grab this energy {0}'.format(e))
--------------------------------------------------------------------------

    Molecular point group: c1

    Geometry (in Bohr), charge = 0, multiplicity = 2:

       Center              X                  Y                   Z               Mass
    ------------   -----------------  -----------------  -----------------  -----------------
         C           -0.324454670801    -0.000002031592    -0.000697260949    12.000000000000
         C            0.061098852599    -1.399814823792    -2.425495460149    12.000000000000
         C            0.061127805399     2.802017181208    -0.000955753149    12.000000000000
         C            0.061395819899    -1.402197736192     2.427711777551    12.000000000000
         H            2.087850976299    -1.641457606992    -2.843157652049     1.007825032230
         H           -0.764241670001    -0.390770551792    -4.028878283949     1.007825032230
         H           -0.764341861801    -3.293333038392    -2.353074971349     1.007825032230
         H            2.087781052299     3.282069329108    -0.000289185049     1.007825032230
         H           -0.764503053601     3.683470406608     1.675559288651     1.007825032230
         H           -0.764628103001     3.683494355208    -1.676317817349     1.007825032230
         H            2.087983794099    -1.640705931592     2.841277127051     1.007825032230
         H           -0.764630773901    -3.292920759792     2.351060413251     1.007825032230
         H           -0.764405566601    -0.389877036692     4.027113924851     1.007825032230

  Charge       = 0
  Multiplicity = 2
  Basis Set: ANONYMOUS95793A31
    Blend: 6-31G_2DFP_
  Basis Set: (ANONYMOUS95793A31 AUX)
    Blend: DEF2-UNIVERSAL-JKFIT

    Orbital Energies [Eh]
    ---------------------

    Alpha Occupied:

       1A    -10.180355     2A    -10.167105     3A    -10.167065
       4A    -10.167015     5A     -0.797702     6A     -0.686173
       7A     -0.686126     8A     -0.530765     9A     -0.441293
      10A     -0.434542    11A     -0.434378    12A     -0.382843
      13A     -0.382661    14A     -0.363474    15A     -0.338184
      16A     -0.337767    17A     -0.168871

    Alpha Virtual:

      18A      0.076037    19A      0.134187    20A      0.134222
      21A      0.142496    22A      0.142623    23A      0.154674
      24A      0.178733    25A      0.178898    26A      0.203413
      27A      0.214581    28A      0.275722    29A      0.276172
      30A      0.398992    31A      0.399011    32A      0.403420
      33A      0.424206    34A      0.424293    35A      0.456358
      36A      0.495389    37A      0.495435    38A      0.512350
      39A      0.513925    40A      0.578609    41A      0.578695
      42A      0.591769    43A      0.591904    44A      0.602804
      45A      0.624700    46A      0.631521    47A      0.635990
      48A      0.636321    49A      0.663075    50A      0.663196
      51A      0.683916    52A      0.683957    53A      0.734909
      54A      0.825452    55A      0.825561    56A      0.853575
      57A      0.914869    58A      0.914899    59A      0.943905
      60A      0.945408    61A      0.961536    62A      0.961605
      63A      1.002723    64A      1.127581    65A      1.127730
      66A      1.142814    67A      1.162433    68A      1.163005
      69A      1.223406    70A      1.274201    71A      1.274808
      72A      1.279159    73A      1.324011    74A      1.324144
      75A      1.356406    76A      1.365590    77A      1.365885
      78A      1.392638    79A      1.404153    80A      1.404478
      81A      1.417123    82A      1.417402    83A      1.427309
      84A      1.490893    85A      1.499394    86A      1.542689
      87A      1.542838    88A      1.574877    89A      1.575263
      90A      1.669758    91A      1.739419    92A      1.739696
      93A      1.768464    94A      1.830613    95A      1.831624
      96A      1.971633    97A      2.017644    98A      2.018449
      99A      2.018821   100A      2.051487   101A      2.052846
     102A      2.738782   103A      2.739024   104A      2.790698
     105A      2.810911   106A      2.889715   107A      2.889864
     108A      2.894699   109A      2.928977   110A      2.929101
     111A      2.958933   112A      2.964245   113A      2.964403
     114A      3.033529   115A      3.071625   116A      3.071893
     117A      3.084710   118A      3.168650   119A      3.169029
     120A      3.180448   121A      3.285708   122A      3.285729
     123A      3.325866   124A      3.326236   125A      3.375900
     126A      3.490309   127A      3.490983   128A      3.513738
     129A      3.525156   130A      3.567776   131A      3.567935
     132A      3.574332   133A      3.665739   134A      3.667109
     135A      3.678574   136A      3.694524   137A      3.694771
     138A      3.775461   139A      3.775829   140A      3.790436
     141A      3.911382   142A      3.912876   143A      4.035571
     144A      4.111082   145A      4.111418   146A      4.148063
     147A      4.148645   148A      4.173302   149A      4.201801
     150A      4.202536   151A      4.203253   152A      4.210362
     153A      4.314922   154A      4.316379   155A      4.357799
     156A      4.423979   157A      4.425846   158A      4.442548
     159A      4.515359   160A      4.516667   161A      4.577289
     162A      4.577326   163A      4.616999   164A      4.709168
     165A      4.773890   166A      4.774511   167A      4.837937
     168A      4.962311   169A      5.002370   170A      5.003801
     171A      5.227688   172A      5.246667   173A      5.247067
     174A      5.354862   175A      5.354991   176A      5.479082

    Beta Occupied:

       1A    -10.167861     2A    -10.167821     3A    -10.167778
       4A    -10.166527     5A     -0.781024     6A     -0.683983
       7A     -0.683925     8A     -0.511739     9A     -0.430923
      10A     -0.430755    11A     -0.421985    12A     -0.376958
      13A     -0.376737    14A     -0.362464    15A     -0.333304
      16A     -0.332885

    Beta Virtual:

      17A     -0.025576    18A      0.077049    19A      0.135075
      20A      0.135083    21A      0.144372    22A      0.144466
      23A      0.163084    24A      0.182424    25A      0.182564
      26A      0.214809    27A      0.218835    28A      0.282090
      29A      0.282522    30A      0.400160    31A      0.400173
      32A      0.419844    33A      0.427022    34A      0.427111
      35A      0.468188    36A      0.497630    37A      0.497688
      38A      0.514080    39A      0.556354    40A      0.584135
      41A      0.584230    42A      0.597974    43A      0.598106
      44A      0.610209    45A      0.628072    46A      0.631673
      47A      0.639288    48A      0.639609    49A      0.666609
      50A      0.666742    51A      0.686582    52A      0.686599
      53A      0.757469    54A      0.830599    55A      0.830719
      56A      0.854925    57A      0.922792    58A      0.922827
      59A      0.945742    60A      0.954255    61A      0.966872
      62A      0.966934    63A      1.007934    64A      1.131614
      65A      1.131754    66A      1.156405    67A      1.167496
      68A      1.168105    69A      1.232274    70A      1.279776
      71A      1.280390    72A      1.284847    73A      1.328976
      74A      1.329081    75A      1.365882    76A      1.370867
      77A      1.371107    78A      1.393681    79A      1.407653
      80A      1.407878    81A      1.422240    82A      1.422484
      83A      1.427581    84A      1.491952    85A      1.509861
      86A      1.547095    87A      1.547258    88A      1.582732
      89A      1.583131    90A      1.674603    91A      1.745175
      92A      1.745459    93A      1.779230    94A      1.834481
      95A      1.835471    96A      1.972485    97A      2.024032
      98A      2.025123    99A      2.039857   100A      2.058219
     101A      2.059579   102A      2.747130   103A      2.747326
     104A      2.811318   105A      2.815829   106A      2.902495
     107A      2.902600   108A      2.924411   109A      2.931460
     110A      2.931552   111A      2.959993   112A      2.968737
     113A      2.968924   114A      3.041473   115A      3.081552
     116A      3.081809   117A      3.086528   118A      3.184369
     119A      3.184778   120A      3.188162   121A      3.290523
     122A      3.290558   123A      3.329702   124A      3.330057
     125A      3.383746   126A      3.492950   127A      3.493668
     128A      3.512096   129A      3.528239   130A      3.574200
     131A      3.581156   132A      3.581353   133A      3.670552
     134A      3.671987   135A      3.691923   136A      3.725985
     137A      3.726248   138A      3.779880   139A      3.780332
     140A      3.818957   141A      3.921296   142A      3.922689
     143A      4.046405   144A      4.117707   145A      4.118244
     146A      4.155446   147A      4.155837   148A      4.187396
     149A      4.207811   150A      4.208612   151A      4.211035
     152A      4.214805   153A      4.322319   154A      4.323831
     155A      4.361139   156A      4.432204   157A      4.434006
     158A      4.445489   159A      4.523167   160A      4.524465
     161A      4.587855   162A      4.587920   163A      4.624269
     164A      4.719406   165A      4.780876   166A      4.781458
     167A      4.840851   168A      4.967109   169A      5.006408
     170A      5.007809   171A      5.233418   172A      5.248455
     173A      5.248840   174A      5.361320   175A      5.361491
     176A      5.481398

    Final Occupation by Irrep:
              A
    DOCC [    16 ]
    SOCC [     1 ]

  @DF-UKS Final Energy:  -157.81306080716206

   => Energetics <=

    Nuclear Repulsion Energy =            125.3830095470560053
    One-Electron Energy =                -458.7262260877465678
    Two-Electron Energy =                 195.8369531021894261
    DFT Exchange-Correlation Energy =     -20.3067973686609520
    Empirical Dispersion Energy =           0.0000000000000000
    VV10 Nonlocal Energy =                  0.0000000000000000
    Total Energy =                       -157.8130608071620600

  UHF NO Occupations:
  HONO-2 :   15  A 1.9996022
  HONO-1 :   16  A 1.9989785
  HONO-0 :   17  A 1.0000000
  LUNO+0 :   18  A 0.0010215
  LUNO+1 :   19  A 0.0003978
  LUNO+2 :   20  A 0.0001982
  LUNO+3 :   21  A 0.0001975

Computation Completed

Properties will be evaluated at   0.000000,   0.000000,   0.000000 [a0]

Properties computed using the SCF density matrix

  Nuclear Dipole Moment: [e a0]
     X:     0.8319      Y:    -0.0000      Z:    -0.0033

  Electronic Dipole Moment: [e a0]
     X:    -0.7535      Y:     0.0000      Z:     0.0034

  Dipole Moment: [e a0]
     X:     0.0783      Y:     0.0000      Z:     0.0001     Total:     0.0783

  Dipole Moment: [D]
     X:     0.1991      Y:     0.0000      Z:     0.0002     Total:     0.1991

*** tstop() called on n083 at Fri Nov  5 13:15:15 2021
Module time:
	user time   =     466.74 seconds =       7.78 minutes
	system time =       4.41 seconds =       0.07 minutes
	total time  =        118 seconds =       1.97 minutes
Total time:
	user time   =     466.74 seconds =       7.78 minutes
	system time =       4.41 seconds =       0.07 minutes
	total time  =        118 seconds =       1.97 minutes
Grab this energy -157.81306080716206
    Psi4 stopped on: Friday, 05 November 2021 01:15PM
    Psi4 wall time for execution: 0:01:58.50

*** Psi4 exiting successfully. Buy a developer a beer!
