                               Psi4 1.4a2.dev629

  ==> Input File <==

--------------------------------------------------------------------------
import os
memory 14 GB

molecule {
 C   -0.3233395703   -0.0000018479   -0.0000609455
 C    0.0609562540   -1.4018789323   -2.4267664516
 C    0.0610216903    2.8017594159    0.0013484940
 C    0.0613245899   -1.3998763546    2.4259950464
 H    2.0841056761   -1.6458334737   -2.8469261197
 H   -0.7654708317   -0.3909869667   -4.0237484984
 H   -0.7623412981   -3.2871224423   -2.3511886346
 H    2.0867992136    3.2881030401    0.0035235099
 H   -0.7623519197    3.6798410218    1.6744371123
 H   -0.7689443904    3.6806595529   -1.6785624224
 H    2.0897701949   -1.6423601751    2.8479571422
 H   -0.7688008614   -3.2968736018    2.3467764898
 H   -0.7653366239   -0.3854535498    4.0272152777
units bohr
0 2
}

basis {

assign 6-31g_2dfp_

[ 6-31g_2dfp_ ]

spherical

!----------------------------------------------------------------------
! Basis Set Exchange
! Version v0.8.13
! https://www.basissetexchange.org
!----------------------------------------------------------------------
!   Basis set: 6-31G(2df,p)
! Description: 6-31G(2df,p)
!        Role: orbital
!     Version: 0  (Data from the original Basis Set Exchange)
!----------------------------------------------------------------------

****
H     0
S    3   1.00
     18.7311370              0.03349460
      2.8253937              0.23472695
      0.6401217              0.81375733
S    1   1.00
      0.1612778              1.00000000
P    1   1.00
      1.5000000              1.0000000
P    1   1.00
      0.3750000              1.0000000
****
B     0
S    6   1.00
   2068.8823000              0.0018663
    310.6495700              0.0142515
     70.6830330              0.0695516
     19.8610800              0.2325729
      6.2993048              0.4670787
      2.1270270              0.3634314
SP   3   1.00
      4.7279710             -0.1303938              0.0745976
      1.1903377             -0.1307889              0.3078467
      0.3594117              1.1309444              0.7434568
SP   1   1.00
      0.1267512              1.0000000              1.0000000
D    1   1.00
      0.8020000              1.0000000
D    1   1.00
      0.2005000              1.0000000
F    1   1.00
      0.5000000              1.0000000
****
C     0
S    6   1.00
   3047.5249000              0.0018347
    457.3695100              0.0140373
    103.9486900              0.0688426
     29.2101550              0.2321844
      9.2866630              0.4679413
      3.1639270              0.3623120
SP   3   1.00
      7.8682724             -0.1193324              0.0689991
      1.8812885             -0.1608542              0.3164240
      0.5442493              1.1434564              0.7443083
SP   1   1.00
      0.1687144              1.0000000              1.0000000
D    1   1.00
      1.2520000              1.0000000
D    1   1.00
      0.3130000              1.0000000
F    1   1.00
      0.8000000              1.0000000
****
N     0
S    6   1.00
   4173.5110000              0.0018348
    627.4579000              0.0139950
    142.9021000              0.0685870
     40.2343300              0.2322410
     12.8202100              0.4690700
      4.3904370              0.3604550
SP   3   1.00
     11.6263580             -0.1149610              0.0675800
      2.7162800             -0.1691180              0.3239070
      0.7722180              1.1458520              0.7408950
SP   1   1.00
      0.2120313              1.0000000              1.0000000
D    1   1.00
      1.8260000              1.0000000
D    1   1.00
      0.4565000              1.0000000
F    1   1.00
      1.0000000              1.0000000
****
O     0
S    6   1.00
   5484.6717000              0.0018311
    825.2349500              0.0139501
    188.0469600              0.0684451
     52.9645000              0.2327143
     16.8975700              0.4701930
      5.7996353              0.3585209
SP   3   1.00
     15.5396160             -0.1107775              0.0708743
      3.5999336             -0.1480263              0.3397528
      1.0137618              1.1307670              0.7271586
SP   1   1.00
      0.2700058              1.0000000              1.0000000
D    1   1.00
      2.5840000              1.0000000
D    1   1.00
      0.6460000              1.0000000
F    1   1.00
      1.4000000              1.0000000
****
F     0
S    6   1.00
   7001.7130900              0.0018196169
   1051.3660900              0.0139160796
    239.2856900              0.0684053245
     67.3974453              0.233185760
     21.5199573              0.471267439
      7.40310130             0.356618546
SP   3   1.00
     20.8479528             -0.108506975            0.0716287243
      4.80830834            -0.146451658            0.3459121030
      1.34406986             1.128688580            0.7224699570
SP   1   1.00
      0.358151393            1.0000000              1.0000000
D    1   1.00
      3.5000000              1.0000000
D    1   1.00
      0.8750000              1.0000000
F    1   1.00
      1.8500000              1.0000000
****
Al     0
S    6   1.00
  13983.1000000              0.00194267
   2098.7500000              0.0148599
    477.7050000              0.0728494
    134.3600000              0.2468300
     42.8709000              0.4872580
     14.5189000              0.3234960
SP   6   1.00
    239.6680000             -0.00292619             0.00460285
     57.4419000             -0.0374080              0.0331990
     18.2859000             -0.1144870              0.1362820
      6.5991400              0.1156350              0.3304760
      2.4904900              0.6125950              0.4491460
      0.9445400              0.3937990              0.2657040
SP   3   1.00
      1.2779000             -0.2276060             -0.0175130
      0.3975900              0.00144583             0.2445330
      0.1600950              1.0927900              0.8049340
SP   1   1.00
      0.0556577              1.0000000              1.0000000
D    1   1.00
      0.6500000              1.0000000
D    1   1.00
      0.1625000              1.0000000
F    1   1.00
      0.2500000              1.0000000
****
Si     0
S    6   1.00
  16115.9000000              0.00195948
   2425.5800000              0.01492880
    553.8670000              0.07284780
    156.3400000              0.24613000
     50.0683000              0.48591400
     17.0178000              0.32500200
SP   6   1.00
    292.7180000             -0.00278094             0.00443826
     69.8731000             -0.03571460             0.03266790
     22.3363000             -0.11498500             0.13472100
      8.1503900              0.09356340             0.32867800
      3.1345800              0.60301700             0.44964000
      1.2254300              0.41895900             0.26137200
SP   3   1.00
      1.7273800             -0.24463000            -0.01779510
      0.5729220              0.00431572             0.25353900
      0.2221920              1.09818000             0.80066900
SP   1   1.00
      0.0778369              1.00000000             1.00000000
D    1   1.00
      0.9000000              1.0000000
D    1   1.00
      0.2250000              1.0000000
F    1   1.00
      0.3200000              1.0000000
****
P     0
S    6   1.00
  19413.3000000              0.0018516
   2909.4200000              0.0142062
    661.3640000              0.0699995
    185.7590000              0.2400790
     59.1943000              0.4847620
     20.0310000              0.3352000
SP   6   1.00
    339.4780000             -0.00278217             0.00456462
     81.0101000             -0.0360499              0.03369360
     25.8780000             -0.1166310              0.13975500
      9.4522100              0.0968328              0.33936200
      3.6656600              0.6144180              0.45092100
      1.4674600              0.4037980              0.23858600
SP   3   1.00
      2.1562300             -0.2529230             -0.01776530
      0.7489970              0.0328517              0.27405800
      0.2831450              1.0812500              0.78542100
SP   1   1.00
      0.0998317              1.0000000              1.00000000
D    1   1.00
      1.1000000              1.0000000
D    1   1.00
      0.2750000              1.0000000
F    1   1.00
      0.4500000              1.0000000
****
S     0
S    6   1.00
  21917.1000000              0.0018690
   3301.4900000              0.0142300
    754.1460000              0.0696960
    212.7110000              0.2384870
     67.9896000              0.4833070
     23.0515000              0.3380740
SP   6   1.00
    423.7350000             -0.0023767              0.0040610
    100.7100000             -0.0316930              0.0306810
     32.1599000             -0.1133170              0.1304520
     11.8079000              0.0560900              0.3272050
      4.6311000              0.5922550              0.4528510
      1.8702500              0.4550060              0.2560420
SP   3   1.00
      2.6158400             -0.2503740             -0.0145110
      0.9221670              0.0669570              0.3102630
      0.3412870              1.0545100              0.7544830
SP   1   1.00
      0.1171670              1.0000000              1.0000000
D    1   1.00
      1.3000000              1.0000000
D    1   1.00
      0.3250000              1.0000000
F    1   1.00
      0.5500000              1.0000000
****
Cl     0
S    6   1.00
  25180.1000000              0.0018330
   3780.3500000              0.0140340
    860.4740000              0.0690970
    242.1450000              0.2374520
     77.3349000              0.4830340
     26.2470000              0.3398560
SP   6   1.00
    491.7650000             -0.0022974              0.0039894
    116.9840000             -0.0307140              0.0303180
     37.4153000             -0.1125280              0.1298800
     13.7834000              0.0450160              0.3279510
      5.4521500              0.5893530              0.4535270
      2.2258800              0.4652060              0.2521540
SP   3   1.00
      3.1864900             -0.2518300             -0.0142990
      1.1442700              0.0615890              0.3235720
      0.4203770              1.0601800              0.7435070
SP   1   1.00
      0.1426570              1.0000000              1.0000000
D    1   1.00
      1.5000000              1.0000000
D    1   1.00
      0.3750000              1.0000000
F    1   1.00
      0.7000000              1.0000000
****
}

set {
reference uhf
freeze_core true
e_convergence 10
d_convergence 10
dft_spherical_points 1202
dft_radial_points 99
}

e = energy('b3lyp')

print_out('Grab this energy {0}'.format(e))
--------------------------------------------------------------------------

    Molecular point group: c1

    Geometry (in Bohr), charge = 0, multiplicity = 2:

       Center              X                  Y                   Z               Mass
    ------------   -----------------  -----------------  -----------------  -----------------
         C           -0.323340138249    -0.000001857896    -0.000160358419    12.000000000000
         C            0.060955686051    -1.401878942296    -2.426865864519    12.000000000000
         C            0.061021122351     2.801759405904     0.001249081081    12.000000000000
         C            0.061324021951    -1.399876364596     2.425895633481    12.000000000000
         H            2.084105108151    -1.645833483696    -2.847025532619     1.007825032230
         H           -0.765471399649    -0.390986976696    -4.023847911319     1.007825032230
         H           -0.762341866049    -3.287122452296    -2.351288047519     1.007825032230
         H            2.086798645651     3.288103030104     0.003424096981     1.007825032230
         H           -0.762352487649     3.679841011804     1.674337699381     1.007825032230
         H           -0.768944958349     3.680659542904    -1.678661835319     1.007825032230
         H            2.089769626951    -1.642360185096     2.847857729281     1.007825032230
         H           -0.768801429349    -3.296873611796     2.346677076881     1.007825032230
         H           -0.765337191849    -0.385453559796     4.027115864781     1.007825032230

  Charge       = 0
  Multiplicity = 2
  Basis Set: ANONYMOUSFC2E50BF
    Blend: 6-31G_2DFP_
  Basis Set: (ANONYMOUSFC2E50BF AUX)
    Blend: DEF2-UNIVERSAL-JKFIT

    Orbital Energies [Eh]
    ---------------------

    Alpha Occupied:

       1A    -10.180342     2A    -10.167602     3A    -10.167015
       4A    -10.166427     5A     -0.797767     6A     -0.686571
       7A     -0.685807     8A     -0.530778     9A     -0.441125
      10A     -0.434944    11A     -0.434396    12A     -0.382799
      13A     -0.382399    14A     -0.363619    15A     -0.338126
      16A     -0.337865    17A     -0.168961

    Alpha Virtual:

      18A      0.076068    19A      0.134038    20A      0.134261
      21A      0.142322    22A      0.142937    23A      0.154875
      24A      0.178552    25A      0.179012    26A      0.203547
      27A      0.214806    28A      0.275831    29A      0.276141
      30A      0.398900    31A      0.399551    32A      0.403348
      33A      0.424030    34A      0.424163    35A      0.456592
      36A      0.495270    37A      0.495512    38A      0.512162
      39A      0.513978    40A      0.578749    41A      0.578879
      42A      0.591465    43A      0.591780    44A      0.602586
      45A      0.624717    46A      0.631719    47A      0.635645
      48A      0.636967    49A      0.663384    50A      0.663438
      51A      0.683355    52A      0.684383    53A      0.734994
      54A      0.824755    55A      0.826055    56A      0.853912
      57A      0.914822    58A      0.915228    59A      0.944126
      60A      0.944596    61A      0.961141    62A      0.961471
      63A      1.003454    64A      1.127504    65A      1.128724
      66A      1.142213    67A      1.163241    68A      1.163297
      69A      1.223314    70A      1.274429    71A      1.274559
      72A      1.279351    73A      1.323785    74A      1.324915
      75A      1.355977    76A      1.366010    77A      1.366087
      78A      1.392444    79A      1.403706    80A      1.404387
      81A      1.416097    82A      1.418130    83A      1.427906
      84A      1.491496    85A      1.499077    86A      1.542808
      87A      1.542879    88A      1.573961    89A      1.574933
      90A      1.669786    91A      1.738610    92A      1.740181
      93A      1.768385    94A      1.829039    95A      1.833785
      96A      1.971743    97A      2.017193    98A      2.018887
      99A      2.020283   100A      2.052071   101A      2.053256
     102A      2.737858   103A      2.739115   104A      2.790923
     105A      2.811429   106A      2.889804   107A      2.890057
     108A      2.894977   109A      2.929374   110A      2.929630
     111A      2.958945   112A      2.963947   113A      2.964878
     114A      3.034025   115A      3.070440   116A      3.071976
     117A      3.084545   118A      3.168239   119A      3.169330
     120A      3.180582   121A      3.285227   122A      3.285408
     123A      3.326740   124A      3.327589   125A      3.375608
     126A      3.489612   127A      3.490721   128A      3.514027
     129A      3.525339   130A      3.567895   131A      3.568845
     132A      3.575144   133A      3.666127   134A      3.666628
     135A      3.679649   136A      3.693431   137A      3.694838
     138A      3.776332   139A      3.777283   140A      3.789132
     141A      3.911198   142A      3.913246   143A      4.034427
     144A      4.110991   145A      4.111391   146A      4.146472
     147A      4.149858   148A      4.173363   149A      4.200377
     150A      4.202619   151A      4.205384   152A      4.211513
     153A      4.314603   154A      4.317309   155A      4.358978
     156A      4.423671   157A      4.425190   158A      4.443529
     159A      4.516001   160A      4.517631   161A      4.577844
     162A      4.578744   163A      4.617520   164A      4.709470
     165A      4.773722   166A      4.775486   167A      4.836878
     168A      4.962874   169A      5.002780   170A      5.003186
     171A      5.227627   172A      5.243264   173A      5.250368
     174A      5.353924   175A      5.357424   176A      5.479497

    Beta Occupied:

       1A    -10.168363     2A    -10.167775     3A    -10.167188
       4A    -10.166516     5A     -0.781092     6A     -0.684375
       7A     -0.683608     8A     -0.511750     9A     -0.431326
      10A     -0.430756    11A     -0.421822    12A     -0.376897
      13A     -0.376470    14A     -0.362603    15A     -0.333253
      16A     -0.332985

    Beta Virtual:

      17A     -0.025743    18A      0.077077    19A      0.134958
      20A      0.135118    21A      0.144214    22A      0.144789
      23A      0.163334    24A      0.182232    25A      0.182675
      26A      0.215035    27A      0.218930    28A      0.282178
      29A      0.282490    30A      0.400063    31A      0.400730
      32A      0.419790    33A      0.426844    34A      0.426972
      35A      0.468500    36A      0.497525    37A      0.497778
      38A      0.513897    39A      0.556323    40A      0.584290
      41A      0.584438    42A      0.597691    43A      0.597915
      44A      0.610003    45A      0.628103    46A      0.631899
      47A      0.638957    48A      0.640199    49A      0.666972
      50A      0.666975    51A      0.686048    52A      0.686961
      53A      0.757518    54A      0.829909    55A      0.831237
      56A      0.855267    57A      0.922810    58A      0.923181
      59A      0.945963    60A      0.953520    61A      0.966497
      62A      0.966733    63A      1.008694    64A      1.131521
      65A      1.132763    66A      1.155587    67A      1.168298
      68A      1.168390    69A      1.232288    70A      1.280011
      71A      1.280170    72A      1.285105    73A      1.328729
      74A      1.329949    75A      1.365389    76A      1.371278
      77A      1.371305    78A      1.393509    79A      1.407171
      80A      1.407852    81A      1.421152    82A      1.423173
      83A      1.428175    84A      1.492546    85A      1.509520
      86A      1.547199    87A      1.547303    88A      1.581840
      89A      1.582796    90A      1.674631    91A      1.744383
      92A      1.745949    93A      1.779152    94A      1.832919
      95A      1.837615    96A      1.972606    97A      2.024777
      98A      2.025975    99A      2.039790   100A      2.058711
     101A      2.060043   102A      2.746169   103A      2.747476
     104A      2.811841   105A      2.816059   106A      2.902626
     107A      2.902632   108A      2.924661   109A      2.931951
     110A      2.932017   111A      2.960033   112A      2.968445
     113A      2.969442   114A      3.041960   115A      3.080157
     116A      3.081793   117A      3.086650   118A      3.183987
     119A      3.185087   120A      3.188256   121A      3.290043
     122A      3.290193   123A      3.330529   124A      3.331406
     125A      3.383426   126A      3.492362   127A      3.493433
     128A      3.512391   129A      3.528384   130A      3.574913
     131A      3.581234   132A      3.582278   133A      3.670699
     134A      3.671568   135A      3.692932   136A      3.725248
     137A      3.726273   138A      3.780925   139A      3.781753
     140A      3.817670   141A      3.920961   142A      3.923116
     143A      4.045312   144A      4.117762   145A      4.118223
     146A      4.154134   147A      4.156654   148A      4.187390
     149A      4.206803   150A      4.209150   151A      4.212246
     152A      4.216041   153A      4.322207   154A      4.324580
     155A      4.362341   156A      4.431955   157A      4.433321
     158A      4.446430   159A      4.523726   160A      4.525490
     161A      4.588458   162A      4.589329   163A      4.624713
     164A      4.719813   165A      4.780734   166A      4.782380
     167A      4.839796   168A      4.967669   169A      5.006833
     170A      5.007210   171A      5.233280   172A      5.245090
     173A      5.252190   174A      5.360400   175A      5.363893
     176A      5.481818

    Final Occupation by Irrep:
              A
    DOCC [    16 ]
    SOCC [     1 ]

  @DF-UKS Final Energy:  -157.81304618465367

   => Energetics <=

    Nuclear Repulsion Energy =            125.3946908461059877
    One-Electron Energy =                -458.7489784688478949
    Two-Electron Energy =                 195.8483920345544220
    DFT Exchange-Correlation Energy =     -20.3071505964661725
    Empirical Dispersion Energy =           0.0000000000000000
    VV10 Nonlocal Energy =                  0.0000000000000000
    Total Energy =                       -157.8130461846536718

  UHF NO Occupations:
  HONO-2 :   15  A 1.9996009
  HONO-1 :   16  A 1.9989805
  HONO-0 :   17  A 1.0000000
  LUNO+0 :   18  A 0.0010195
  LUNO+1 :   19  A 0.0003991
  LUNO+2 :   20  A 0.0001976
  LUNO+3 :   21  A 0.0001975

Computation Completed

Properties will be evaluated at   0.000000,   0.000000,   0.000000 [a0]

Properties computed using the SCF density matrix

  Nuclear Dipole Moment: [e a0]
     X:     0.8272      Y:    -0.0000      Z:    -0.0007

  Electronic Dipole Moment: [e a0]
     X:    -0.7493      Y:     0.0000      Z:    -0.0000

  Dipole Moment: [e a0]
     X:     0.0779      Y:     0.0000      Z:    -0.0007     Total:     0.0779

  Dipole Moment: [D]
     X:     0.1980      Y:     0.0000      Z:    -0.0018     Total:     0.1981

*** tstop() called on n070 at Fri Nov  5 14:33:18 2021
Module time:
	user time   =     571.95 seconds =       9.53 minutes
	system time =      13.14 seconds =       0.22 minutes
	total time  =        148 seconds =       2.47 minutes
Total time:
	user time   =     571.95 seconds =       9.53 minutes
	system time =      13.14 seconds =       0.22 minutes
	total time  =        148 seconds =       2.47 minutes
Grab this energy -157.81304618465367
    Psi4 stopped on: Friday, 05 November 2021 02:33PM
    Psi4 wall time for execution: 0:02:27.42

*** Psi4 exiting successfully. Buy a developer a beer!
