                               Psi4 1.4a2.dev629

  ==> Input File <==

--------------------------------------------------------------------------
import os
memory 14 GB

molecule {
 C   -0.3223173984   -0.0000020147   -0.0000000191
 C    0.0621984614   -1.4001081845   -2.4266473671
 C    0.0620787677    2.8016057087    0.0007995805
 C    0.0621985346   -1.4014930883    2.4258477732
 H    2.0836243971   -1.6425164775   -2.8478681672
 H   -0.7637743922   -0.3876604564   -4.0312238687
 H   -0.7652863667   -3.2910653866   -2.3446964508
 H    2.0834853848    3.2876826681    0.0015826227
 H   -0.7640158311    3.6849464595    1.6798574876
 H   -0.7653634132    3.6760700781   -1.6778366478
 H    2.0836245848   -1.6452580329    2.8462863921
 H   -0.7639382883   -3.2972534518    2.3513726485
 H   -0.7651223172   -0.3849721353    4.0225260161
units bohr
0 2
}

basis {

assign 6-31g_2dfp_

[ 6-31g_2dfp_ ]

spherical

!----------------------------------------------------------------------
! Basis Set Exchange
! Version v0.8.13
! https://www.basissetexchange.org
!----------------------------------------------------------------------
!   Basis set: 6-31G(2df,p)
! Description: 6-31G(2df,p)
!        Role: orbital
!     Version: 0  (Data from the original Basis Set Exchange)
!----------------------------------------------------------------------

****
H     0
S    3   1.00
     18.7311370              0.03349460
      2.8253937              0.23472695
      0.6401217              0.81375733
S    1   1.00
      0.1612778              1.00000000
P    1   1.00
      1.5000000              1.0000000
P    1   1.00
      0.3750000              1.0000000
****
B     0
S    6   1.00
   2068.8823000              0.0018663
    310.6495700              0.0142515
     70.6830330              0.0695516
     19.8610800              0.2325729
      6.2993048              0.4670787
      2.1270270              0.3634314
SP   3   1.00
      4.7279710             -0.1303938              0.0745976
      1.1903377             -0.1307889              0.3078467
      0.3594117              1.1309444              0.7434568
SP   1   1.00
      0.1267512              1.0000000              1.0000000
D    1   1.00
      0.8020000              1.0000000
D    1   1.00
      0.2005000              1.0000000
F    1   1.00
      0.5000000              1.0000000
****
C     0
S    6   1.00
   3047.5249000              0.0018347
    457.3695100              0.0140373
    103.9486900              0.0688426
     29.2101550              0.2321844
      9.2866630              0.4679413
      3.1639270              0.3623120
SP   3   1.00
      7.8682724             -0.1193324              0.0689991
      1.8812885             -0.1608542              0.3164240
      0.5442493              1.1434564              0.7443083
SP   1   1.00
      0.1687144              1.0000000              1.0000000
D    1   1.00
      1.2520000              1.0000000
D    1   1.00
      0.3130000              1.0000000
F    1   1.00
      0.8000000              1.0000000
****
N     0
S    6   1.00
   4173.5110000              0.0018348
    627.4579000              0.0139950
    142.9021000              0.0685870
     40.2343300              0.2322410
     12.8202100              0.4690700
      4.3904370              0.3604550
SP   3   1.00
     11.6263580             -0.1149610              0.0675800
      2.7162800             -0.1691180              0.3239070
      0.7722180              1.1458520              0.7408950
SP   1   1.00
      0.2120313              1.0000000              1.0000000
D    1   1.00
      1.8260000              1.0000000
D    1   1.00
      0.4565000              1.0000000
F    1   1.00
      1.0000000              1.0000000
****
O     0
S    6   1.00
   5484.6717000              0.0018311
    825.2349500              0.0139501
    188.0469600              0.0684451
     52.9645000              0.2327143
     16.8975700              0.4701930
      5.7996353              0.3585209
SP   3   1.00
     15.5396160             -0.1107775              0.0708743
      3.5999336             -0.1480263              0.3397528
      1.0137618              1.1307670              0.7271586
SP   1   1.00
      0.2700058              1.0000000              1.0000000
D    1   1.00
      2.5840000              1.0000000
D    1   1.00
      0.6460000              1.0000000
F    1   1.00
      1.4000000              1.0000000
****
F     0
S    6   1.00
   7001.7130900              0.0018196169
   1051.3660900              0.0139160796
    239.2856900              0.0684053245
     67.3974453              0.233185760
     21.5199573              0.471267439
      7.40310130             0.356618546
SP   3   1.00
     20.8479528             -0.108506975            0.0716287243
      4.80830834            -0.146451658            0.3459121030
      1.34406986             1.128688580            0.7224699570
SP   1   1.00
      0.358151393            1.0000000              1.0000000
D    1   1.00
      3.5000000              1.0000000
D    1   1.00
      0.8750000              1.0000000
F    1   1.00
      1.8500000              1.0000000
****
Al     0
S    6   1.00
  13983.1000000              0.00194267
   2098.7500000              0.0148599
    477.7050000              0.0728494
    134.3600000              0.2468300
     42.8709000              0.4872580
     14.5189000              0.3234960
SP   6   1.00
    239.6680000             -0.00292619             0.00460285
     57.4419000             -0.0374080              0.0331990
     18.2859000             -0.1144870              0.1362820
      6.5991400              0.1156350              0.3304760
      2.4904900              0.6125950              0.4491460
      0.9445400              0.3937990              0.2657040
SP   3   1.00
      1.2779000             -0.2276060             -0.0175130
      0.3975900              0.00144583             0.2445330
      0.1600950              1.0927900              0.8049340
SP   1   1.00
      0.0556577              1.0000000              1.0000000
D    1   1.00
      0.6500000              1.0000000
D    1   1.00
      0.1625000              1.0000000
F    1   1.00
      0.2500000              1.0000000
****
Si     0
S    6   1.00
  16115.9000000              0.00195948
   2425.5800000              0.01492880
    553.8670000              0.07284780
    156.3400000              0.24613000
     50.0683000              0.48591400
     17.0178000              0.32500200
SP   6   1.00
    292.7180000             -0.00278094             0.00443826
     69.8731000             -0.03571460             0.03266790
     22.3363000             -0.11498500             0.13472100
      8.1503900              0.09356340             0.32867800
      3.1345800              0.60301700             0.44964000
      1.2254300              0.41895900             0.26137200
SP   3   1.00
      1.7273800             -0.24463000            -0.01779510
      0.5729220              0.00431572             0.25353900
      0.2221920              1.09818000             0.80066900
SP   1   1.00
      0.0778369              1.00000000             1.00000000
D    1   1.00
      0.9000000              1.0000000
D    1   1.00
      0.2250000              1.0000000
F    1   1.00
      0.3200000              1.0000000
****
P     0
S    6   1.00
  19413.3000000              0.0018516
   2909.4200000              0.0142062
    661.3640000              0.0699995
    185.7590000              0.2400790
     59.1943000              0.4847620
     20.0310000              0.3352000
SP   6   1.00
    339.4780000             -0.00278217             0.00456462
     81.0101000             -0.0360499              0.03369360
     25.8780000             -0.1166310              0.13975500
      9.4522100              0.0968328              0.33936200
      3.6656600              0.6144180              0.45092100
      1.4674600              0.4037980              0.23858600
SP   3   1.00
      2.1562300             -0.2529230             -0.01776530
      0.7489970              0.0328517              0.27405800
      0.2831450              1.0812500              0.78542100
SP   1   1.00
      0.0998317              1.0000000              1.00000000
D    1   1.00
      1.1000000              1.0000000
D    1   1.00
      0.2750000              1.0000000
F    1   1.00
      0.4500000              1.0000000
****
S     0
S    6   1.00
  21917.1000000              0.0018690
   3301.4900000              0.0142300
    754.1460000              0.0696960
    212.7110000              0.2384870
     67.9896000              0.4833070
     23.0515000              0.3380740
SP   6   1.00
    423.7350000             -0.0023767              0.0040610
    100.7100000             -0.0316930              0.0306810
     32.1599000             -0.1133170              0.1304520
     11.8079000              0.0560900              0.3272050
      4.6311000              0.5922550              0.4528510
      1.8702500              0.4550060              0.2560420
SP   3   1.00
      2.6158400             -0.2503740             -0.0145110
      0.9221670              0.0669570              0.3102630
      0.3412870              1.0545100              0.7544830
SP   1   1.00
      0.1171670              1.0000000              1.0000000
D    1   1.00
      1.3000000              1.0000000
D    1   1.00
      0.3250000              1.0000000
F    1   1.00
      0.5500000              1.0000000
****
Cl     0
S    6   1.00
  25180.1000000              0.0018330
   3780.3500000              0.0140340
    860.4740000              0.0690970
    242.1450000              0.2374520
     77.3349000              0.4830340
     26.2470000              0.3398560
SP   6   1.00
    491.7650000             -0.0022974              0.0039894
    116.9840000             -0.0307140              0.0303180
     37.4153000             -0.1125280              0.1298800
     13.7834000              0.0450160              0.3279510
      5.4521500              0.5893530              0.4535270
      2.2258800              0.4652060              0.2521540
SP   3   1.00
      3.1864900             -0.2518300             -0.0142990
      1.1442700              0.0615890              0.3235720
      0.4203770              1.0601800              0.7435070
SP   1   1.00
      0.1426570              1.0000000              1.0000000
D    1   1.00
      1.5000000              1.0000000
D    1   1.00
      0.3750000              1.0000000
F    1   1.00
      0.7000000              1.0000000
****
}

set {
reference uhf
freeze_core true
e_convergence 10
d_convergence 10
dft_spherical_points 1202
dft_radial_points 99
}

e = energy('b3lyp')

print_out('Grab this energy {0}'.format(e))
--------------------------------------------------------------------------

    Molecular point group: c1

    Geometry (in Bohr), charge = 0, multiplicity = 2:

       Center              X                  Y                   Z               Mass
    ------------   -----------------  -----------------  -----------------  -----------------
         C           -0.323126030877    -0.000002051679    -0.000000012840    12.000000000000
         C            0.061389828923    -1.400108221479    -2.426647360840    12.000000000000
         C            0.061270135223     2.801605671721     0.000799586760    12.000000000000
         C            0.061389902123    -1.401493125279     2.425847779460    12.000000000000
         H            2.082815764623    -1.642516514479    -2.847868160940     1.007825032230
         H           -0.764583024677    -0.387660493379    -4.031223862440     1.007825032230
         H           -0.766094999177    -3.291065423579    -2.344696444540     1.007825032230
         H            2.082676752323     3.287682631121     0.001582628960     1.007825032230
         H           -0.764824463577     3.684946422521     1.679857493860     1.007825032230
         H           -0.766172045677     3.676070041121    -1.677836641540     1.007825032230
         H            2.082815952323    -1.645258069879     2.846286398360     1.007825032230
         H           -0.764746920777    -3.297253488779     2.351372654760     1.007825032230
         H           -0.765930949677    -0.384972172279     4.022526022360     1.007825032230

  Charge       = 0
  Multiplicity = 2
  Basis Set: ANONYMOUSE9C2520C
    Blend: 6-31G_2DFP_
  Basis Set: (ANONYMOUSE9C2520C AUX)
    Blend: DEF2-UNIVERSAL-JKFIT

    Orbital Energies [Eh]
    ---------------------

    Alpha Occupied:

       1A    -10.180285     2A    -10.167027     3A    -10.167027
       4A    -10.166981     5A     -0.797804     6A     -0.686194
       7A     -0.686194     8A     -0.530787     9A     -0.441220
      10A     -0.434630    11A     -0.434629    12A     -0.382734
      13A     -0.382733    14A     -0.363432    15A     -0.337945
      16A     -0.337945    17A     -0.168925

    Alpha Virtual:

      18A      0.075987    19A      0.134145    20A      0.134146
      21A      0.142563    22A      0.142564    23A      0.155045
      24A      0.178957    25A      0.178957    26A      0.203571
      27A      0.214546    28A      0.276009    29A      0.276011
      30A      0.399346    31A      0.399351    32A      0.403426
      33A      0.423909    34A      0.423910    35A      0.456670
      36A      0.495211    37A      0.495212    38A      0.512278
      39A      0.514134    40A      0.578976    41A      0.578985
      42A      0.591904    43A      0.591905    44A      0.603322
      45A      0.624187    46A      0.631465    47A      0.635873
      48A      0.635877    49A      0.663907    50A      0.663908
      51A      0.683604    52A      0.683605    53A      0.734931
      54A      0.825437    55A      0.825440    56A      0.854195
      57A      0.915245    58A      0.915251    59A      0.943748
      60A      0.944545    61A      0.961385    62A      0.961402
      63A      1.003654    64A      1.127851    65A      1.127864
      66A      1.142937    67A      1.162996    68A      1.163008
      69A      1.222912    70A      1.274738    71A      1.274741
      72A      1.279510    73A      1.324563    74A      1.324565
      75A      1.355437    76A      1.366109    77A      1.366114
      78A      1.392513    79A      1.405042    80A      1.405044
      81A      1.416166    82A      1.416172    83A      1.428128
      84A      1.491513    85A      1.500036    86A      1.543204
      87A      1.543206    88A      1.574072    89A      1.574074
      90A      1.668567    91A      1.740268    92A      1.740280
      93A      1.770171    94A      1.829998    95A      1.829998
      96A      1.970710    97A      2.018403    98A      2.018939
      99A      2.018943   100A      2.054013   101A      2.054013
     102A      2.738167   103A      2.738168   104A      2.791314
     105A      2.810972   106A      2.890330   107A      2.890336
     108A      2.895271   109A      2.929286   110A      2.929294
     111A      2.959135   112A      2.964796   113A      2.964810
     114A      3.034714   115A      3.071311   116A      3.071325
     117A      3.082950   118A      3.168905   119A      3.168913
     120A      3.180640   121A      3.285400   122A      3.285400
     123A      3.326546   124A      3.326551   125A      3.375435
     126A      3.490377   127A      3.490397   128A      3.515121
     129A      3.524254   130A      3.568777   131A      3.568797
     132A      3.575979   133A      3.666763   134A      3.666770
     135A      3.679039   136A      3.693915   137A      3.693931
     138A      3.776391   139A      3.776417   140A      3.789902
     141A      3.911682   142A      3.911688   143A      4.033990
     144A      4.111401   145A      4.111405   146A      4.148691
     147A      4.148699   148A      4.174902   149A      4.202232
     150A      4.202236   151A      4.202791   152A      4.211993
     153A      4.316419   154A      4.316439   155A      4.357748
     156A      4.425186   157A      4.425188   158A      4.443208
     159A      4.517502   160A      4.517504   161A      4.577583
     162A      4.577595   163A      4.617640   164A      4.709985
     165A      4.774479   166A      4.774486   167A      4.835550
     168A      4.962585   169A      5.004251   170A      5.004263
     171A      5.230794   172A      5.243817   173A      5.243817
     174A      5.357491   175A      5.357504   176A      5.477401

    Beta Occupied:

       1A    -10.167779     2A    -10.167778     3A    -10.167752
       4A    -10.166456     5A     -0.781123     6A     -0.683985
       7A     -0.683984     8A     -0.511709     9A     -0.430976
      10A     -0.430976    11A     -0.421978    12A     -0.376845
      13A     -0.376843    14A     -0.362406    15A     -0.333072
      16A     -0.333071

    Beta Virtual:

      17A     -0.025616    18A      0.076980    19A      0.134968
      20A      0.134969    21A      0.144456    22A      0.144456
      23A      0.163485    24A      0.182656    25A      0.182657
      26A      0.214720    27A      0.219017    28A      0.282352
      29A      0.282354    30A      0.400513    31A      0.400518
      32A      0.419778    33A      0.426721    34A      0.426721
      35A      0.468677    36A      0.497462    37A      0.497463
      38A      0.514007    39A      0.556517    40A      0.584498
      41A      0.584506    42A      0.598093    43A      0.598094
      44A      0.610606    45A      0.627648    46A      0.631678
      47A      0.639197    48A      0.639202    49A      0.667440
      50A      0.667441    51A      0.686251    52A      0.686253
      53A      0.757458    54A      0.830585    55A      0.830587
      56A      0.855540    57A      0.923197    58A      0.923204
      59A      0.945660    60A      0.953359    61A      0.966726
      62A      0.966742    63A      1.008933    64A      1.131842
      65A      1.131854    66A      1.156237    67A      1.168095
      68A      1.168108    69A      1.231900    70A      1.280356
      71A      1.280360    72A      1.285320    73A      1.329505
      74A      1.329507    75A      1.364872    76A      1.371284
      77A      1.371288    78A      1.393555    79A      1.408562
      80A      1.408565    81A      1.421251    82A      1.421257
      83A      1.428389    84A      1.492589    85A      1.510471
      86A      1.547580    87A      1.547581    88A      1.581963
      89A      1.581963    90A      1.673364    91A      1.746035
      92A      1.746046    93A      1.780963    94A      1.833852
      95A      1.833853    96A      1.971584    97A      2.025482
      98A      2.025486    99A      2.039781   100A      2.060605
     101A      2.060606   102A      2.746494   103A      2.746495
     104A      2.811374   105A      2.816496   106A      2.903044
     107A      2.903050   108A      2.925176   109A      2.931763
     110A      2.931772   111A      2.960204   112A      2.969377
     113A      2.969391   114A      3.042437   115A      3.081235
     116A      3.081246   117A      3.084766   118A      3.184645
     119A      3.184650   120A      3.188328   121A      3.290167
     122A      3.290167   123A      3.330389   124A      3.330394
     125A      3.383278   126A      3.493148   127A      3.493168
     128A      3.513521   129A      3.527279   130A      3.575848
     131A      3.581937   132A      3.581959   133A      3.671605
     134A      3.671616   135A      3.692357   136A      3.725547
     137A      3.725563   138A      3.780985   139A      3.781011
     140A      3.818422   141A      3.921441   142A      3.921448
     143A      4.044816   144A      4.118214   145A      4.118216
     146A      4.155905   147A      4.155914   148A      4.188933
     149A      4.208058   150A      4.208062   151A      4.210818
     152A      4.216351   153A      4.323919   154A      4.323940
     155A      4.361156   156A      4.433403   157A      4.433406
     158A      4.446138   159A      4.525257   160A      4.525259
     161A      4.588227   162A      4.588239   163A      4.624924
     164A      4.720209   165A      4.781482   166A      4.781490
     167A      4.838482   168A      4.967367   169A      5.008265
     170A      5.008277   171A      5.236545   172A      5.245615
     173A      5.245616   174A      5.363997   175A      5.364011
     176A      5.479735

    Final Occupation by Irrep:
              A
    DOCC [    16 ]
    SOCC [     1 ]

  @DF-UKS Final Energy:  -157.81305429663001

   => Energetics <=

    Nuclear Repulsion Energy =            125.4000150419722530
    One-Electron Energy =                -458.7596717534824506
    Two-Electron Energy =                 195.8538597899795377
    DFT Exchange-Correlation Energy =     -20.3072573750993648
    Empirical Dispersion Energy =           0.0000000000000000
    VV10 Nonlocal Energy =                  0.0000000000000000
    Total Energy =                       -157.8130542966300141

  UHF NO Occupations:
  HONO-2 :   15  A 1.9996032
  HONO-1 :   16  A 1.9989813
  HONO-0 :   17  A 1.0000000
  LUNO+0 :   18  A 0.0010187
  LUNO+1 :   19  A 0.0003968
  LUNO+2 :   20  A 0.0001975
  LUNO+3 :   21  A 0.0001975

Computation Completed

Properties will be evaluated at   0.000000,   0.000000,   0.000000 [a0]

Properties computed using the SCF density matrix

  Nuclear Dipole Moment: [e a0]
     X:     0.8215      Y:    -0.0000      Z:     0.0000

  Electronic Dipole Moment: [e a0]
     X:    -0.7404      Y:     0.0000      Z:    -0.0000

  Dipole Moment: [e a0]
     X:     0.0811      Y:     0.0000      Z:    -0.0000     Total:     0.0811

  Dipole Moment: [D]
     X:     0.2061      Y:     0.0000      Z:    -0.0000     Total:     0.2061

*** tstop() called on n079 at Fri Nov  5 14:49:45 2021
Module time:
	user time   =     464.69 seconds =       7.74 minutes
	system time =       4.43 seconds =       0.07 minutes
	total time  =        118 seconds =       1.97 minutes
Total time:
	user time   =     464.69 seconds =       7.74 minutes
	system time =       4.43 seconds =       0.07 minutes
	total time  =        118 seconds =       1.97 minutes
Grab this energy -157.81305429663
    Psi4 stopped on: Friday, 05 November 2021 02:49PM
    Psi4 wall time for execution: 0:01:58.01

*** Psi4 exiting successfully. Buy a developer a beer!
