                               Psi4 1.4a2.dev629

  ==> Input File <==

--------------------------------------------------------------------------
import os
memory 14 GB

molecule {
 C   -0.3233410923    0.0024267739    0.0002579615
 C    0.0633146925   -1.3999182016   -2.4276475406
 C    0.0602238960    2.8005065599   -0.0007682818
 C    0.0597618481   -1.4005858307    2.4272813889
 H    2.0880439710   -1.6465093436   -2.8455778167
 H   -0.7615466994   -0.3880324453   -4.0301568636
 H   -0.7691194026   -3.2887486913   -2.3495934971
 H    2.0842269555    3.2889217862    0.0002328673
 H   -0.7669249506    3.6773289835    1.6769053383
 H   -0.7671987714    3.6774146354   -1.6765760500
 H    2.0883941022   -1.6462987643    2.8456868754
 H   -0.7681440328   -3.2889586222    2.3495518510
 H   -0.7602983928   -0.3875711534    4.0304037674
units bohr
0 2
}

basis {

assign 6-31g_2dfp_

[ 6-31g_2dfp_ ]

spherical

!----------------------------------------------------------------------
! Basis Set Exchange
! Version v0.8.13
! https://www.basissetexchange.org
!----------------------------------------------------------------------
!   Basis set: 6-31G(2df,p)
! Description: 6-31G(2df,p)
!        Role: orbital
!     Version: 0  (Data from the original Basis Set Exchange)
!----------------------------------------------------------------------

****
H     0
S    3   1.00
     18.7311370              0.03349460
      2.8253937              0.23472695
      0.6401217              0.81375733
S    1   1.00
      0.1612778              1.00000000
P    1   1.00
      1.5000000              1.0000000
P    1   1.00
      0.3750000              1.0000000
****
B     0
S    6   1.00
   2068.8823000              0.0018663
    310.6495700              0.0142515
     70.6830330              0.0695516
     19.8610800              0.2325729
      6.2993048              0.4670787
      2.1270270              0.3634314
SP   3   1.00
      4.7279710             -0.1303938              0.0745976
      1.1903377             -0.1307889              0.3078467
      0.3594117              1.1309444              0.7434568
SP   1   1.00
      0.1267512              1.0000000              1.0000000
D    1   1.00
      0.8020000              1.0000000
D    1   1.00
      0.2005000              1.0000000
F    1   1.00
      0.5000000              1.0000000
****
C     0
S    6   1.00
   3047.5249000              0.0018347
    457.3695100              0.0140373
    103.9486900              0.0688426
     29.2101550              0.2321844
      9.2866630              0.4679413
      3.1639270              0.3623120
SP   3   1.00
      7.8682724             -0.1193324              0.0689991
      1.8812885             -0.1608542              0.3164240
      0.5442493              1.1434564              0.7443083
SP   1   1.00
      0.1687144              1.0000000              1.0000000
D    1   1.00
      1.2520000              1.0000000
D    1   1.00
      0.3130000              1.0000000
F    1   1.00
      0.8000000              1.0000000
****
N     0
S    6   1.00
   4173.5110000              0.0018348
    627.4579000              0.0139950
    142.9021000              0.0685870
     40.2343300              0.2322410
     12.8202100              0.4690700
      4.3904370              0.3604550
SP   3   1.00
     11.6263580             -0.1149610              0.0675800
      2.7162800             -0.1691180              0.3239070
      0.7722180              1.1458520              0.7408950
SP   1   1.00
      0.2120313              1.0000000              1.0000000
D    1   1.00
      1.8260000              1.0000000
D    1   1.00
      0.4565000              1.0000000
F    1   1.00
      1.0000000              1.0000000
****
O     0
S    6   1.00
   5484.6717000              0.0018311
    825.2349500              0.0139501
    188.0469600              0.0684451
     52.9645000              0.2327143
     16.8975700              0.4701930
      5.7996353              0.3585209
SP   3   1.00
     15.5396160             -0.1107775              0.0708743
      3.5999336             -0.1480263              0.3397528
      1.0137618              1.1307670              0.7271586
SP   1   1.00
      0.2700058              1.0000000              1.0000000
D    1   1.00
      2.5840000              1.0000000
D    1   1.00
      0.6460000              1.0000000
F    1   1.00
      1.4000000              1.0000000
****
F     0
S    6   1.00
   7001.7130900              0.0018196169
   1051.3660900              0.0139160796
    239.2856900              0.0684053245
     67.3974453              0.233185760
     21.5199573              0.471267439
      7.40310130             0.356618546
SP   3   1.00
     20.8479528             -0.108506975            0.0716287243
      4.80830834            -0.146451658            0.3459121030
      1.34406986             1.128688580            0.7224699570
SP   1   1.00
      0.358151393            1.0000000              1.0000000
D    1   1.00
      3.5000000              1.0000000
D    1   1.00
      0.8750000              1.0000000
F    1   1.00
      1.8500000              1.0000000
****
Al     0
S    6   1.00
  13983.1000000              0.00194267
   2098.7500000              0.0148599
    477.7050000              0.0728494
    134.3600000              0.2468300
     42.8709000              0.4872580
     14.5189000              0.3234960
SP   6   1.00
    239.6680000             -0.00292619             0.00460285
     57.4419000             -0.0374080              0.0331990
     18.2859000             -0.1144870              0.1362820
      6.5991400              0.1156350              0.3304760
      2.4904900              0.6125950              0.4491460
      0.9445400              0.3937990              0.2657040
SP   3   1.00
      1.2779000             -0.2276060             -0.0175130
      0.3975900              0.00144583             0.2445330
      0.1600950              1.0927900              0.8049340
SP   1   1.00
      0.0556577              1.0000000              1.0000000
D    1   1.00
      0.6500000              1.0000000
D    1   1.00
      0.1625000              1.0000000
F    1   1.00
      0.2500000              1.0000000
****
Si     0
S    6   1.00
  16115.9000000              0.00195948
   2425.5800000              0.01492880
    553.8670000              0.07284780
    156.3400000              0.24613000
     50.0683000              0.48591400
     17.0178000              0.32500200
SP   6   1.00
    292.7180000             -0.00278094             0.00443826
     69.8731000             -0.03571460             0.03266790
     22.3363000             -0.11498500             0.13472100
      8.1503900              0.09356340             0.32867800
      3.1345800              0.60301700             0.44964000
      1.2254300              0.41895900             0.26137200
SP   3   1.00
      1.7273800             -0.24463000            -0.01779510
      0.5729220              0.00431572             0.25353900
      0.2221920              1.09818000             0.80066900
SP   1   1.00
      0.0778369              1.00000000             1.00000000
D    1   1.00
      0.9000000              1.0000000
D    1   1.00
      0.2250000              1.0000000
F    1   1.00
      0.3200000              1.0000000
****
P     0
S    6   1.00
  19413.3000000              0.0018516
   2909.4200000              0.0142062
    661.3640000              0.0699995
    185.7590000              0.2400790
     59.1943000              0.4847620
     20.0310000              0.3352000
SP   6   1.00
    339.4780000             -0.00278217             0.00456462
     81.0101000             -0.0360499              0.03369360
     25.8780000             -0.1166310              0.13975500
      9.4522100              0.0968328              0.33936200
      3.6656600              0.6144180              0.45092100
      1.4674600              0.4037980              0.23858600
SP   3   1.00
      2.1562300             -0.2529230             -0.01776530
      0.7489970              0.0328517              0.27405800
      0.2831450              1.0812500              0.78542100
SP   1   1.00
      0.0998317              1.0000000              1.00000000
D    1   1.00
      1.1000000              1.0000000
D    1   1.00
      0.2750000              1.0000000
F    1   1.00
      0.4500000              1.0000000
****
S     0
S    6   1.00
  21917.1000000              0.0018690
   3301.4900000              0.0142300
    754.1460000              0.0696960
    212.7110000              0.2384870
     67.9896000              0.4833070
     23.0515000              0.3380740
SP   6   1.00
    423.7350000             -0.0023767              0.0040610
    100.7100000             -0.0316930              0.0306810
     32.1599000             -0.1133170              0.1304520
     11.8079000              0.0560900              0.3272050
      4.6311000              0.5922550              0.4528510
      1.8702500              0.4550060              0.2560420
SP   3   1.00
      2.6158400             -0.2503740             -0.0145110
      0.9221670              0.0669570              0.3102630
      0.3412870              1.0545100              0.7544830
SP   1   1.00
      0.1171670              1.0000000              1.0000000
D    1   1.00
      1.3000000              1.0000000
D    1   1.00
      0.3250000              1.0000000
F    1   1.00
      0.5500000              1.0000000
****
Cl     0
S    6   1.00
  25180.1000000              0.0018330
   3780.3500000              0.0140340
    860.4740000              0.0690970
    242.1450000              0.2374520
     77.3349000              0.4830340
     26.2470000              0.3398560
SP   6   1.00
    491.7650000             -0.0022974              0.0039894
    116.9840000             -0.0307140              0.0303180
     37.4153000             -0.1125280              0.1298800
     13.7834000              0.0450160              0.3279510
      5.4521500              0.5893530              0.4535270
      2.2258800              0.4652060              0.2521540
SP   3   1.00
      3.1864900             -0.2518300             -0.0142990
      1.1442700              0.0615890              0.3235720
      0.4203770              1.0601800              0.7435070
SP   1   1.00
      0.1426570              1.0000000              1.0000000
D    1   1.00
      1.5000000              1.0000000
D    1   1.00
      0.3750000              1.0000000
F    1   1.00
      0.7000000              1.0000000
****
}

set {
reference uhf
freeze_core true
e_convergence 10
d_convergence 10
dft_spherical_points 1202
dft_radial_points 99
}

e = energy('b3lyp')

print_out('Grab this energy {0}'.format(e))
--------------------------------------------------------------------------

    Molecular point group: c1

    Geometry (in Bohr), charge = 0, multiplicity = 2:

       Center              X                  Y                   Z               Mass
    ------------   -----------------  -----------------  -----------------  -----------------
         C           -0.323340963090     0.001959302294     0.000426776320    12.000000000000
         C            0.063314821710    -1.400385673206    -2.427478725780    12.000000000000
         C            0.060224025210     2.800039088294    -0.000599466980    12.000000000000
         C            0.059761977310    -1.401053302306     2.427450203720    12.000000000000
         H            2.088044100210    -1.646976815206    -2.845409001880     1.007825032230
         H           -0.761546570190    -0.388499916906    -4.029988048780     1.007825032230
         H           -0.769119273390    -3.289216162906    -2.349424682280     1.007825032230
         H            2.084227084710     3.288454314594     0.000401682120     1.007825032230
         H           -0.766924821390     3.676861511894     1.677074153120     1.007825032230
         H           -0.767198642190     3.676947163794    -1.676407235180     1.007825032230
         H            2.088394231410    -1.646766235906     2.845855690220     1.007825032230
         H           -0.768143903590    -3.289426093806     2.349720665820     1.007825032230
         H           -0.760298263590    -0.388038625006     4.030572582220     1.007825032230

  Charge       = 0
  Multiplicity = 2
  Basis Set: ANONYMOUS0F704F70
    Blend: 6-31G_2DFP_
  Basis Set: (ANONYMOUS0F704F70 AUX)
    Blend: DEF2-UNIVERSAL-JKFIT

    Orbital Energies [Eh]
    ---------------------

    Alpha Occupied:

       1A    -10.180341     2A    -10.167155     3A    -10.167092
       4A    -10.166797     5A     -0.797767     6A     -0.686333
       7A     -0.686040     8A     -0.530776     9A     -0.441127
      10A     -0.434794    11A     -0.434548    12A     -0.382756
      13A     -0.382442    14A     -0.363611    15A     -0.338169
      16A     -0.337826    17A     -0.168960

    Alpha Virtual:

      18A      0.076072    19A      0.134085    20A      0.134227
      21A      0.142564    22A      0.142690    23A      0.154879
      24A      0.178663    25A      0.178891    26A      0.203547
      27A      0.214802    28A      0.275644    29A      0.276326
      30A      0.399071    31A      0.399371    32A      0.403360
      33A      0.424039    34A      0.424157    35A      0.456594
      36A      0.495331    37A      0.495447    38A      0.512160
      39A      0.513979    40A      0.578611    41A      0.579017
      42A      0.591375    43A      0.591894    44A      0.602575
      45A      0.624761    46A      0.631770    47A      0.636113
      48A      0.636390    49A      0.663150    50A      0.663678
      51A      0.683701    52A      0.684003    53A      0.734995
      54A      0.825372    55A      0.825442    56A      0.853916
      57A      0.914892    58A      0.915162    59A      0.944123
      60A      0.944614    61A      0.961201    62A      0.961385
      63A      1.003454    64A      1.127982    65A      1.128215
      66A      1.142208    67A      1.163128    68A      1.163440
      69A      1.223325    70A      1.274252    71A      1.274725
      72A      1.279364    73A      1.324076    74A      1.324636
      75A      1.355989    76A      1.365620    77A      1.366481
      78A      1.392442    79A      1.403710    80A      1.404398
      81A      1.416723    82A      1.417505    83A      1.427919
      84A      1.491492    85A      1.499084    86A      1.542686
      87A      1.542968    88A      1.574178    89A      1.574716
      90A      1.669832    91A      1.738929    92A      1.739905
      93A      1.768322    94A      1.830934    95A      1.831851
      96A      1.971731    97A      2.017973    98A      2.018748
      99A      2.019657   100A      2.051610   101A      2.053687
     102A      2.738413   103A      2.738550   104A      2.790930
     105A      2.811421   106A      2.889448   107A      2.890400
     108A      2.895004   109A      2.929325   110A      2.929674
     111A      2.958994   112A      2.964086   113A      2.964665
     114A      3.034008   115A      3.070961   116A      3.071601
     117A      3.084354   118A      3.168633   119A      3.168905
     120A      3.180614   121A      3.285259   122A      3.285372
     123A      3.326698   124A      3.327621   125A      3.375620
     126A      3.489766   127A      3.490557   128A      3.514005
     129A      3.525313   130A      3.567544   131A      3.569246
     132A      3.575145   133A      3.665993   134A      3.666751
     135A      3.679674   136A      3.693777   137A      3.694469
     138A      3.775425   139A      3.778145   140A      3.789165
     141A      3.911732   142A      3.912723   143A      4.034451
     144A      4.110343   145A      4.112398   146A      4.147570
     147A      4.148677   148A      4.173245   149A      4.202281
     150A      4.202757   151A      4.203739   152A      4.210874
     153A      4.315284   154A      4.316626   155A      4.358989
     156A      4.423940   157A      4.424961   158A      4.443428
     159A      4.515546   160A      4.518135   161A      4.577577
     162A      4.578951   163A      4.617530   164A      4.709445
     165A      4.773819   166A      4.775408   167A      4.836922
     168A      4.962848   169A      5.002169   170A      5.003734
     171A      5.228036   172A      5.246694   173A      5.246933
     174A      5.354524   175A      5.356501   176A      5.479351

    Beta Occupied:

       1A    -10.167912     2A    -10.167851     3A    -10.167561
       4A    -10.166518     5A     -0.781092     6A     -0.684125
       7A     -0.683854     8A     -0.511747     9A     -0.431175
      10A     -0.430910    11A     -0.421822    12A     -0.376847
      13A     -0.376522    14A     -0.362595    15A     -0.333293
      16A     -0.332948

    Beta Virtual:

      17A     -0.025742    18A      0.077081    19A      0.134975
      20A      0.135117    21A      0.144435    22A      0.144560
      23A      0.163337    24A      0.182334    25A      0.182565
      26A      0.215031    27A      0.218929    28A      0.282003
      29A      0.282663    30A      0.400239    31A      0.400554
      32A      0.419793    33A      0.426839    34A      0.426979
      35A      0.468502    36A      0.497600    37A      0.497700
      38A      0.513895    39A      0.556323    40A      0.584152
      41A      0.584578    42A      0.597570    43A      0.598058
      44A      0.609997    45A      0.628136    46A      0.631928
      47A      0.639382    48A      0.639692    49A      0.666732
      50A      0.667223    51A      0.686336    52A      0.686640
      53A      0.757518    54A      0.830563    55A      0.830588
      56A      0.855270    57A      0.922859    58A      0.923138
      59A      0.945960    60A      0.953542    61A      0.966484
      62A      0.966714    63A      1.008694    64A      1.131951
      65A      1.132304    66A      1.155582    67A      1.168283
      68A      1.168433    69A      1.232298    70A      1.279842
      71A      1.280326    72A      1.285120    73A      1.329062
      74A      1.329630    75A      1.365404    76A      1.370889
      77A      1.371698    78A      1.393501    79A      1.407145
      80A      1.407892    81A      1.421790    82A      1.422537
      83A      1.428190    84A      1.492541    85A      1.509527
      86A      1.547127    87A      1.547342    88A      1.582116
      89A      1.582523    90A      1.674679    91A      1.744690
      92A      1.745668    93A      1.779101    94A      1.834783
      95A      1.835712    96A      1.972590    97A      2.024790
      98A      2.026081    99A      2.039683   100A      2.058365
     101A      2.060365   102A      2.746728   103A      2.746907
     104A      2.811834   105A      2.816064   106A      2.902198
     107A      2.903080   108A      2.924638   109A      2.931829
     110A      2.932151   111A      2.960056   112A      2.968648
     113A      2.969193   114A      3.041943   115A      3.080910
     116A      3.081460   117A      3.086182   118A      3.184331
     119A      3.184644   120A      3.188360   121A      3.290059
     122A      3.290167   123A      3.330504   124A      3.331424
     125A      3.383439   126A      3.492484   127A      3.493299
     128A      3.512373   129A      3.528360   130A      3.574986
     131A      3.580931   132A      3.582551   133A      3.670868
     134A      3.671389   135A      3.692951   136A      3.725519
     137A      3.725992   138A      3.780018   139A      3.782625
     140A      3.817688   141A      3.921589   142A      3.922501
     143A      4.045338   144A      4.117163   145A      4.119208
     146A      4.154838   147A      4.155826   148A      4.187305
     149A      4.208451   150A      4.209380   151A      4.210787
     152A      4.215350   153A      4.322683   154A      4.324106
     155A      4.362354   156A      4.432177   157A      4.433147
     158A      4.446318   159A      4.523345   160A      4.525915
     161A      4.588180   162A      4.589547   163A      4.624727
     164A      4.719790   165A      4.780815   166A      4.782319
     167A      4.839839   168A      4.967643   169A      5.006203
     170A      5.007779   171A      5.233751   172A      5.248467
     173A      5.248729   174A      5.360984   175A      5.363002
     176A      5.481672

    Final Occupation by Irrep:
              A
    DOCC [    16 ]
    SOCC [     1 ]

  @DF-UKS Final Energy:  -157.81306695796897

   => Energetics <=

    Nuclear Repulsion Energy =            125.3946323283189628
    One-Electron Energy =                -458.7489241062736482
    Two-Electron Energy =                 195.8483688869699506
    DFT Exchange-Correlation Energy =     -20.3071440669842218
    Empirical Dispersion Energy =           0.0000000000000000
    VV10 Nonlocal Energy =                  0.0000000000000000
    Total Energy =                       -157.8130669579689709

  UHF NO Occupations:
  HONO-2 :   15  A 1.9996009
  HONO-1 :   16  A 1.9989805
  HONO-0 :   17  A 1.0000000
  LUNO+0 :   18  A 0.0010195
  LUNO+1 :   19  A 0.0003991
  LUNO+2 :   20  A 0.0001981
  LUNO+3 :   21  A 0.0001970

Computation Completed

Properties will be evaluated at   0.000000,   0.000000,   0.000000 [a0]

Properties computed using the SCF density matrix

  Nuclear Dipole Moment: [e a0]
     X:     0.8272      Y:    -0.0033      Z:     0.0012

  Electronic Dipole Moment: [e a0]
     X:    -0.7493      Y:     0.0033      Z:    -0.0011

  Dipole Moment: [e a0]
     X:     0.0779      Y:    -0.0000      Z:     0.0001     Total:     0.0779

  Dipole Moment: [D]
     X:     0.1980      Y:    -0.0001      Z:     0.0003     Total:     0.1980

*** tstop() called on n073 at Fri Nov  5 12:24:58 2021
Module time:
	user time   =     566.15 seconds =       9.44 minutes
	system time =      12.83 seconds =       0.21 minutes
	total time  =        145 seconds =       2.42 minutes
Total time:
	user time   =     566.15 seconds =       9.44 minutes
	system time =      12.83 seconds =       0.21 minutes
	total time  =        145 seconds =       2.42 minutes
Grab this energy -157.81306695796897
    Psi4 stopped on: Friday, 05 November 2021 12:24PM
    Psi4 wall time for execution: 0:02:25.60

*** Psi4 exiting successfully. Buy a developer a beer!
