                               Psi4 1.4a2.dev629

  ==> Input File <==

--------------------------------------------------------------------------
import os
memory 14 GB

molecule {
 C   -0.3236286729   -0.0000019800   -0.0000000000
 C    0.0614616392   -1.4044202894   -2.4325171836
 C    0.0613414401    2.8088438035    0.0000000000
 C    0.0614616392   -1.4044202894    2.4325171836
 H    2.0872815069   -1.6471459509   -2.8527203638
 H   -0.7656900781   -0.3905576356   -4.0305055424
 H   -0.7658533199   -3.2951824740   -2.3535229063
 H    2.0871422819    3.2941997139    0.0000000000
 H   -0.7659312110    3.6857734243    1.6769888206
 H   -0.7659312110    3.6857734243   -1.6769888206
 H    2.0872815069   -1.6471459509    2.8527203638
 H   -0.7658533199   -3.2951824740    2.3535229063
 H   -0.7656900781   -0.3905576356    4.0305055424
units bohr
0 2
}

basis {

assign 6-31g_2dfp_

[ 6-31g_2dfp_ ]

spherical

!----------------------------------------------------------------------
! Basis Set Exchange
! Version v0.8.13
! https://www.basissetexchange.org
!----------------------------------------------------------------------
!   Basis set: 6-31G(2df,p)
! Description: 6-31G(2df,p)
!        Role: orbital
!     Version: 0  (Data from the original Basis Set Exchange)
!----------------------------------------------------------------------

****
H     0
S    3   1.00
     18.7311370              0.03349460
      2.8253937              0.23472695
      0.6401217              0.81375733
S    1   1.00
      0.1612778              1.00000000
P    1   1.00
      1.5000000              1.0000000
P    1   1.00
      0.3750000              1.0000000
****
B     0
S    6   1.00
   2068.8823000              0.0018663
    310.6495700              0.0142515
     70.6830330              0.0695516
     19.8610800              0.2325729
      6.2993048              0.4670787
      2.1270270              0.3634314
SP   3   1.00
      4.7279710             -0.1303938              0.0745976
      1.1903377             -0.1307889              0.3078467
      0.3594117              1.1309444              0.7434568
SP   1   1.00
      0.1267512              1.0000000              1.0000000
D    1   1.00
      0.8020000              1.0000000
D    1   1.00
      0.2005000              1.0000000
F    1   1.00
      0.5000000              1.0000000
****
C     0
S    6   1.00
   3047.5249000              0.0018347
    457.3695100              0.0140373
    103.9486900              0.0688426
     29.2101550              0.2321844
      9.2866630              0.4679413
      3.1639270              0.3623120
SP   3   1.00
      7.8682724             -0.1193324              0.0689991
      1.8812885             -0.1608542              0.3164240
      0.5442493              1.1434564              0.7443083
SP   1   1.00
      0.1687144              1.0000000              1.0000000
D    1   1.00
      1.2520000              1.0000000
D    1   1.00
      0.3130000              1.0000000
F    1   1.00
      0.8000000              1.0000000
****
N     0
S    6   1.00
   4173.5110000              0.0018348
    627.4579000              0.0139950
    142.9021000              0.0685870
     40.2343300              0.2322410
     12.8202100              0.4690700
      4.3904370              0.3604550
SP   3   1.00
     11.6263580             -0.1149610              0.0675800
      2.7162800             -0.1691180              0.3239070
      0.7722180              1.1458520              0.7408950
SP   1   1.00
      0.2120313              1.0000000              1.0000000
D    1   1.00
      1.8260000              1.0000000
D    1   1.00
      0.4565000              1.0000000
F    1   1.00
      1.0000000              1.0000000
****
O     0
S    6   1.00
   5484.6717000              0.0018311
    825.2349500              0.0139501
    188.0469600              0.0684451
     52.9645000              0.2327143
     16.8975700              0.4701930
      5.7996353              0.3585209
SP   3   1.00
     15.5396160             -0.1107775              0.0708743
      3.5999336             -0.1480263              0.3397528
      1.0137618              1.1307670              0.7271586
SP   1   1.00
      0.2700058              1.0000000              1.0000000
D    1   1.00
      2.5840000              1.0000000
D    1   1.00
      0.6460000              1.0000000
F    1   1.00
      1.4000000              1.0000000
****
F     0
S    6   1.00
   7001.7130900              0.0018196169
   1051.3660900              0.0139160796
    239.2856900              0.0684053245
     67.3974453              0.233185760
     21.5199573              0.471267439
      7.40310130             0.356618546
SP   3   1.00
     20.8479528             -0.108506975            0.0716287243
      4.80830834            -0.146451658            0.3459121030
      1.34406986             1.128688580            0.7224699570
SP   1   1.00
      0.358151393            1.0000000              1.0000000
D    1   1.00
      3.5000000              1.0000000
D    1   1.00
      0.8750000              1.0000000
F    1   1.00
      1.8500000              1.0000000
****
Al     0
S    6   1.00
  13983.1000000              0.00194267
   2098.7500000              0.0148599
    477.7050000              0.0728494
    134.3600000              0.2468300
     42.8709000              0.4872580
     14.5189000              0.3234960
SP   6   1.00
    239.6680000             -0.00292619             0.00460285
     57.4419000             -0.0374080              0.0331990
     18.2859000             -0.1144870              0.1362820
      6.5991400              0.1156350              0.3304760
      2.4904900              0.6125950              0.4491460
      0.9445400              0.3937990              0.2657040
SP   3   1.00
      1.2779000             -0.2276060             -0.0175130
      0.3975900              0.00144583             0.2445330
      0.1600950              1.0927900              0.8049340
SP   1   1.00
      0.0556577              1.0000000              1.0000000
D    1   1.00
      0.6500000              1.0000000
D    1   1.00
      0.1625000              1.0000000
F    1   1.00
      0.2500000              1.0000000
****
Si     0
S    6   1.00
  16115.9000000              0.00195948
   2425.5800000              0.01492880
    553.8670000              0.07284780
    156.3400000              0.24613000
     50.0683000              0.48591400
     17.0178000              0.32500200
SP   6   1.00
    292.7180000             -0.00278094             0.00443826
     69.8731000             -0.03571460             0.03266790
     22.3363000             -0.11498500             0.13472100
      8.1503900              0.09356340             0.32867800
      3.1345800              0.60301700             0.44964000
      1.2254300              0.41895900             0.26137200
SP   3   1.00
      1.7273800             -0.24463000            -0.01779510
      0.5729220              0.00431572             0.25353900
      0.2221920              1.09818000             0.80066900
SP   1   1.00
      0.0778369              1.00000000             1.00000000
D    1   1.00
      0.9000000              1.0000000
D    1   1.00
      0.2250000              1.0000000
F    1   1.00
      0.3200000              1.0000000
****
P     0
S    6   1.00
  19413.3000000              0.0018516
   2909.4200000              0.0142062
    661.3640000              0.0699995
    185.7590000              0.2400790
     59.1943000              0.4847620
     20.0310000              0.3352000
SP   6   1.00
    339.4780000             -0.00278217             0.00456462
     81.0101000             -0.0360499              0.03369360
     25.8780000             -0.1166310              0.13975500
      9.4522100              0.0968328              0.33936200
      3.6656600              0.6144180              0.45092100
      1.4674600              0.4037980              0.23858600
SP   3   1.00
      2.1562300             -0.2529230             -0.01776530
      0.7489970              0.0328517              0.27405800
      0.2831450              1.0812500              0.78542100
SP   1   1.00
      0.0998317              1.0000000              1.00000000
D    1   1.00
      1.1000000              1.0000000
D    1   1.00
      0.2750000              1.0000000
F    1   1.00
      0.4500000              1.0000000
****
S     0
S    6   1.00
  21917.1000000              0.0018690
   3301.4900000              0.0142300
    754.1460000              0.0696960
    212.7110000              0.2384870
     67.9896000              0.4833070
     23.0515000              0.3380740
SP   6   1.00
    423.7350000             -0.0023767              0.0040610
    100.7100000             -0.0316930              0.0306810
     32.1599000             -0.1133170              0.1304520
     11.8079000              0.0560900              0.3272050
      4.6311000              0.5922550              0.4528510
      1.8702500              0.4550060              0.2560420
SP   3   1.00
      2.6158400             -0.2503740             -0.0145110
      0.9221670              0.0669570              0.3102630
      0.3412870              1.0545100              0.7544830
SP   1   1.00
      0.1171670              1.0000000              1.0000000
D    1   1.00
      1.3000000              1.0000000
D    1   1.00
      0.3250000              1.0000000
F    1   1.00
      0.5500000              1.0000000
****
Cl     0
S    6   1.00
  25180.1000000              0.0018330
   3780.3500000              0.0140340
    860.4740000              0.0690970
    242.1450000              0.2374520
     77.3349000              0.4830340
     26.2470000              0.3398560
SP   6   1.00
    491.7650000             -0.0022974              0.0039894
    116.9840000             -0.0307140              0.0303180
     37.4153000             -0.1125280              0.1298800
     13.7834000              0.0450160              0.3279510
      5.4521500              0.5893530              0.4535270
      2.2258800              0.4652060              0.2521540
SP   3   1.00
      3.1864900             -0.2518300             -0.0142990
      1.1442700              0.0615890              0.3235720
      0.4203770              1.0601800              0.7435070
SP   1   1.00
      0.1426570              1.0000000              1.0000000
D    1   1.00
      1.5000000              1.0000000
D    1   1.00
      0.3750000              1.0000000
F    1   1.00
      0.7000000              1.0000000
****
}

set {
reference uhf
freeze_core true
e_convergence 10
d_convergence 10
dft_spherical_points 1202
dft_radial_points 99
}

e = energy('b3lyp')

print_out('Grab this energy {0}'.format(e))
--------------------------------------------------------------------------

    Molecular point group: cs

    Geometry (in Bohr), charge = 0, multiplicity = 2:

       Center              X                  Y                   Z               Mass
    ------------   -----------------  -----------------  -----------------  -----------------
         C           -0.323758881233    -0.000001790373     0.000000000000    12.000000000000
         C            0.061331430867    -1.404420099773    -2.432517183600    12.000000000000
         C            0.061211231767     2.808843993127     0.000000000000    12.000000000000
         C            0.061331430867    -1.404420099773     2.432517183600    12.000000000000
         H            2.087151298567    -1.647145761273    -2.852720363800     1.007825032230
         H           -0.765820286433    -0.390557445973    -4.030505542400     1.007825032230
         H           -0.765983528233    -3.295182284373    -2.353522906300     1.007825032230
         H            2.087012073567     3.294199903527     0.000000000000     1.007825032230
         H           -0.766061419333     3.685773613927     1.676988820600     1.007825032230
         H           -0.766061419333     3.685773613927    -1.676988820600     1.007825032230
         H            2.087151298567    -1.647145761273     2.852720363800     1.007825032230
         H           -0.765983528233    -3.295182284373     2.353522906300     1.007825032230
         H           -0.765820286433    -0.390557445973     4.030505542400     1.007825032230

  Charge       = 0
  Multiplicity = 2
  Basis Set: ANONYMOUS50020B06
    Blend: 6-31G_2DFP_
  Basis Set: (ANONYMOUS50020B06 AUX)
    Blend: DEF2-UNIVERSAL-JKFIT

    Orbital Energies [Eh]
    ---------------------

    Alpha Occupied:

       1Ap   -10.181163     2Ap   -10.167339     1App  -10.167338
       3Ap   -10.167293     4Ap    -0.796465     5Ap    -0.685879
       2App   -0.685878     6Ap    -0.530612     7Ap    -0.440522
       3App   -0.434126     8Ap    -0.434126     9Ap    -0.382663
       4App   -0.382662     5App   -0.363930    10Ap    -0.337650
       6App   -0.337650    11Ap    -0.169265

    Alpha Virtual:

      12Ap     0.076110    13Ap     0.134173     7App    0.134174
      14Ap     0.142559     8App    0.142560    15Ap     0.154713
      16Ap     0.178768     9App    0.178768    17Ap     0.202142
      10App    0.214582    11App    0.275207    18Ap     0.275209
      19Ap     0.399253    12App    0.399257    20Ap     0.403639
      13App    0.424437    21Ap     0.424437    22Ap     0.455854
      23Ap     0.495173    14App    0.495174    15App    0.511881
      24Ap     0.513625    25Ap     0.578149    16App    0.578157
      17App    0.591191    26Ap     0.591192    27Ap     0.602169
      28Ap     0.624475    18App    0.631653    19App    0.635401
      29Ap     0.635405    30Ap     0.662818    20App    0.662818
      31Ap     0.683426    21App    0.683427    32Ap     0.735326
      22App    0.825541    33Ap     0.825543    23App    0.852772
      24App    0.914339    34Ap     0.914345    25App    0.942756
      35Ap     0.944876    26App    0.960394    36Ap     0.960410
      37Ap     1.002506    38Ap     1.127135    27App    1.127147
      39Ap     1.141461    40Ap     1.163090    28App    1.163102
      41Ap     1.222003    42Ap     1.273452    29App    1.273455
      43Ap     1.278676    30App    1.323818    44Ap     1.323821
      45Ap     1.355489    31App    1.364095    46Ap     1.364099
      32App    1.391421    47Ap     1.405037    33App    1.405039
      34App    1.416764    48Ap     1.416770    35App    1.426746
      36App    1.489778    49Ap     1.499093    37App    1.541931
      50Ap     1.541933    51Ap     1.573171    38App    1.573173
      52Ap     1.670690    53Ap     1.738264    39App    1.738276
      54Ap     1.766830    40App    1.830641    55Ap     1.830641
      41App    1.969765    56Ap     2.016232    57Ap     2.017187
      42App    2.017190    43App    2.047768    58Ap     2.047768
      44App    2.737707    59Ap     2.737708    60Ap     2.789531
      45App    2.808617    61Ap     2.888673    46App    2.888679
      62Ap     2.893008    63Ap     2.929476    47App    2.929483
      48App    2.958807    64Ap     2.964697    49App    2.964711
      65Ap     3.033866    50App    3.070394    66Ap     3.070407
      51App    3.082382    67Ap     3.167825    52App    3.167832
      68Ap     3.178153    53App    3.285115    69Ap     3.285115
      70Ap     3.326491    54App    3.326497    71Ap     3.377045
      55App    3.488250    72Ap     3.488270    56App    3.513081
      73Ap     3.522612    57App    3.568229    74Ap     3.568250
      58App    3.573161    75Ap     3.667185    59App    3.667193
      76Ap     3.678326    60App    3.692832    77Ap     3.692847
      78Ap     3.772273    61App    3.772298    79Ap     3.788712
      80Ap     3.909028    62App    3.909034    81Ap     4.032058
      82Ap     4.108777    63App    4.108782    83Ap     4.147414
      64App    4.147422    84Ap     4.171363    65App    4.200080
      85Ap     4.200084    86Ap     4.200346    66App    4.208884
      87Ap     4.314503    67App    4.314522    68App    4.357123
      88Ap     4.423597    69App    4.423598    70App    4.442983
      71App    4.513547    89Ap     4.513549    72App    4.573993
      90Ap     4.574005    91Ap     4.609858    92Ap     4.703418
      93Ap     4.767356    73App    4.767364    74App    4.831588
      94Ap     4.961175    75App    5.002229    95Ap     5.002241
      96Ap     5.227552    76App    5.245684    97Ap     5.245684
      98Ap     5.352750    77App    5.352763    78App    5.472462

    Beta Occupied:

       1Ap   -10.168088     1App  -10.168087     2Ap   -10.168072
       3Ap   -10.167298     4Ap    -0.779828     5Ap    -0.683707
       2App   -0.683707     6Ap    -0.511436     3App   -0.430535
       7Ap    -0.430535     8Ap    -0.421359     9Ap    -0.376801
       4App   -0.376799     5App   -0.362929     6App   -0.332754
      10Ap    -0.332754

    Beta Virtual:

      11Ap    -0.025605    12Ap     0.077104    13Ap     0.135061
       7App    0.135062    14Ap     0.144399     8App    0.144400
      15Ap     0.163087    16Ap     0.182398     9App    0.182398
      10App    0.214802    17Ap     0.217753    11App    0.281644
      18Ap     0.281647    19Ap     0.400383    12App    0.400387
      20Ap     0.420174    13App    0.427255    21Ap     0.427256
      22Ap     0.467332    23Ap     0.497413    14App    0.497413
      15App    0.513592    24Ap     0.556071    25Ap     0.583696
      16App    0.583704    17App    0.597438    26Ap     0.597439
      27Ap     0.609565    28Ap     0.627754    18App    0.631795
      19App    0.638598    29Ap     0.638602    30Ap     0.666419
      20App    0.666419    31Ap     0.685972    21App    0.685974
      32Ap     0.758104    22App    0.830677    33Ap     0.830679
      23App    0.854077    24App    0.922300    34Ap     0.922307
      25App    0.944582    35Ap     0.953883    26App    0.965666
      36Ap     0.965682    37Ap     1.007833    38Ap     1.131170
      27App    1.131182    39Ap     1.154790    40Ap     1.168170
      28App    1.168182    41Ap     1.230894    42Ap     1.278977
      29App    1.278981    43Ap     1.284519    30App    1.328790
      44Ap     1.328792    45Ap     1.364867    31App    1.369404
      46Ap     1.369408    32App    1.392459    47Ap     1.408510
      33App    1.408513    34App    1.421752    48Ap     1.421759
      35App    1.426993    36App    1.490814    49Ap     1.509452
      50Ap     1.546373    37App    1.546374    38App    1.580994
      51Ap     1.580995    52Ap     1.675536    53Ap     1.744025
      39App    1.744036    54Ap     1.777546    40App    1.834453
      55Ap     1.834454    41App    1.970613    56Ap     2.023518
      42App    2.023521    57Ap     2.037532    58Ap     2.054495
      43App    2.054495    44App    2.746168    59Ap     2.746169
      45App    2.809025    60Ap     2.814720    61Ap     2.901615
      46App    2.901621    62Ap     2.922616    63Ap     2.931770
      47App    2.931778    48App    2.959860    64Ap     2.969153
      49App    2.969167    65Ap     3.041671    50App    3.080176
      66Ap     3.080187    51App    3.084171    67Ap     3.183779
      52App    3.183783    68Ap     3.185909    53App    3.289689
      69Ap     3.289689    70Ap     3.330378    54App    3.330383
      71Ap     3.384850    55App    3.490991    72Ap     3.491012
      56App    3.511456    73Ap     3.525746    57App    3.572996
      58App    3.581612    74Ap     3.581634    75Ap     3.672249
      59App    3.672261    76Ap     3.691640    60App    3.724504
      77Ap     3.724519    78Ap     3.776694    61App    3.776720
      79Ap     3.817444    80Ap     3.918875    62App    3.918882
      81Ap     4.043093    82Ap     4.115772    63App    4.115774
      83Ap     4.154490    64App    4.154498    84Ap     4.185257
      65App    4.206021    85Ap     4.206024    86Ap     4.208212
      66App    4.213265    87Ap     4.322002    67App    4.322022
      68App    4.360483    88Ap     4.431644    69App    4.431646
      70App    4.445845    71App    4.521147    89Ap     4.521149
      72App    4.584556    90Ap     4.584568    91Ap     4.617044
      92Ap     4.713680    93Ap     4.774308    73App    4.774316
      74App    4.834508    94Ap     4.965925    75App    5.006207
      95Ap     5.006219    96Ap     5.233213    76App    5.247446
      97Ap     5.247447    98Ap     5.359148    77App    5.359161
      78App    5.474754

    Final Occupation by Irrep:
             Ap   App
    DOCC [    10,    6 ]
    SOCC [     1,    0 ]

  @DF-UKS Final Energy:  -157.81304442591434

   => Energetics <=

    Nuclear Repulsion Energy =            125.1858327751095175
    One-Electron Energy =                -458.3378234331727299
    Two-Electron Energy =                 195.6424175638114207
    DFT Exchange-Correlation Energy =     -20.3034713316625677
    Empirical Dispersion Energy =           0.0000000000000000
    VV10 Nonlocal Energy =                  0.0000000000000000
    Total Energy =                       -157.8130444259143417

  UHF NO Occupations:
  HONO-2 :    9 Ap 1.9996043
  HONO-1 :   10 Ap 1.9989711
  HONO-0 :   11 Ap 1.0000000
  LUNO+0 :   12 Ap 0.0010289
  LUNO+1 :   13 Ap 0.0003957
  LUNO+2 :    7App 0.0002005
  LUNO+3 :   14 Ap 0.0002005

Computation Completed

Properties will be evaluated at   0.000000,   0.000000,   0.000000 [a0]

Properties computed using the SCF density matrix

  Nuclear Dipole Moment: [e a0]
     X:     0.8263      Y:    -0.0000      Z:     0.0000

  Electronic Dipole Moment: [e a0]
     X:    -0.7474      Y:     0.0000      Z:     0.0000

  Dipole Moment: [e a0]
     X:     0.0789      Y:    -0.0000      Z:     0.0000     Total:     0.0789

  Dipole Moment: [D]
     X:     0.2006      Y:    -0.0000      Z:     0.0000     Total:     0.2006

*** tstop() called on n083 at Fri Nov  5 13:28:52 2021
Module time:
	user time   =     493.13 seconds =       8.22 minutes
	system time =       4.46 seconds =       0.07 minutes
	total time  =        125 seconds =       2.08 minutes
Total time:
	user time   =     493.13 seconds =       8.22 minutes
	system time =       4.46 seconds =       0.07 minutes
	total time  =        125 seconds =       2.08 minutes
Grab this energy -157.81304442591434
    Psi4 stopped on: Friday, 05 November 2021 01:28PM
    Psi4 wall time for execution: 0:02:05.13

*** Psi4 exiting successfully. Buy a developer a beer!
