                               Psi4 1.4a2.dev629

  ==> Input File <==

--------------------------------------------------------------------------
import os
memory 14 GB

molecule {
 C   -0.3215608403   -0.0000021142   -0.0004936374
 C    0.0617805469   -1.4011027408   -2.4268108057
 C    0.0615786590    2.8015014431   -0.0000404247
 C    0.0616167456   -1.4003951421    2.4255043723
 H    2.0829799798   -1.6473354540   -2.8530222059
 H   -0.7639775627   -0.3889516334   -4.0205332928
 H   -0.7640499420   -3.2878809912   -2.3474080650
 H    2.0864633158    3.2941349994    0.0000268091
 H   -0.7659634176    3.6775201087    1.6773890781
 H   -0.7661462191    3.6765313222   -1.6767308091
 H    2.0902259667   -1.6468915778    2.8523062267
 H   -0.7679054952   -3.2938592410    2.3444137036
 H   -0.7676496135   -0.3832932924    4.0253990508
units bohr
0 2
}

basis {

assign 6-31g_2dfp_

[ 6-31g_2dfp_ ]

spherical

!----------------------------------------------------------------------
! Basis Set Exchange
! Version v0.8.13
! https://www.basissetexchange.org
!----------------------------------------------------------------------
!   Basis set: 6-31G(2df,p)
! Description: 6-31G(2df,p)
!        Role: orbital
!     Version: 0  (Data from the original Basis Set Exchange)
!----------------------------------------------------------------------

****
H     0
S    3   1.00
     18.7311370              0.03349460
      2.8253937              0.23472695
      0.6401217              0.81375733
S    1   1.00
      0.1612778              1.00000000
P    1   1.00
      1.5000000              1.0000000
P    1   1.00
      0.3750000              1.0000000
****
B     0
S    6   1.00
   2068.8823000              0.0018663
    310.6495700              0.0142515
     70.6830330              0.0695516
     19.8610800              0.2325729
      6.2993048              0.4670787
      2.1270270              0.3634314
SP   3   1.00
      4.7279710             -0.1303938              0.0745976
      1.1903377             -0.1307889              0.3078467
      0.3594117              1.1309444              0.7434568
SP   1   1.00
      0.1267512              1.0000000              1.0000000
D    1   1.00
      0.8020000              1.0000000
D    1   1.00
      0.2005000              1.0000000
F    1   1.00
      0.5000000              1.0000000
****
C     0
S    6   1.00
   3047.5249000              0.0018347
    457.3695100              0.0140373
    103.9486900              0.0688426
     29.2101550              0.2321844
      9.2866630              0.4679413
      3.1639270              0.3623120
SP   3   1.00
      7.8682724             -0.1193324              0.0689991
      1.8812885             -0.1608542              0.3164240
      0.5442493              1.1434564              0.7443083
SP   1   1.00
      0.1687144              1.0000000              1.0000000
D    1   1.00
      1.2520000              1.0000000
D    1   1.00
      0.3130000              1.0000000
F    1   1.00
      0.8000000              1.0000000
****
N     0
S    6   1.00
   4173.5110000              0.0018348
    627.4579000              0.0139950
    142.9021000              0.0685870
     40.2343300              0.2322410
     12.8202100              0.4690700
      4.3904370              0.3604550
SP   3   1.00
     11.6263580             -0.1149610              0.0675800
      2.7162800             -0.1691180              0.3239070
      0.7722180              1.1458520              0.7408950
SP   1   1.00
      0.2120313              1.0000000              1.0000000
D    1   1.00
      1.8260000              1.0000000
D    1   1.00
      0.4565000              1.0000000
F    1   1.00
      1.0000000              1.0000000
****
O     0
S    6   1.00
   5484.6717000              0.0018311
    825.2349500              0.0139501
    188.0469600              0.0684451
     52.9645000              0.2327143
     16.8975700              0.4701930
      5.7996353              0.3585209
SP   3   1.00
     15.5396160             -0.1107775              0.0708743
      3.5999336             -0.1480263              0.3397528
      1.0137618              1.1307670              0.7271586
SP   1   1.00
      0.2700058              1.0000000              1.0000000
D    1   1.00
      2.5840000              1.0000000
D    1   1.00
      0.6460000              1.0000000
F    1   1.00
      1.4000000              1.0000000
****
F     0
S    6   1.00
   7001.7130900              0.0018196169
   1051.3660900              0.0139160796
    239.2856900              0.0684053245
     67.3974453              0.233185760
     21.5199573              0.471267439
      7.40310130             0.356618546
SP   3   1.00
     20.8479528             -0.108506975            0.0716287243
      4.80830834            -0.146451658            0.3459121030
      1.34406986             1.128688580            0.7224699570
SP   1   1.00
      0.358151393            1.0000000              1.0000000
D    1   1.00
      3.5000000              1.0000000
D    1   1.00
      0.8750000              1.0000000
F    1   1.00
      1.8500000              1.0000000
****
Al     0
S    6   1.00
  13983.1000000              0.00194267
   2098.7500000              0.0148599
    477.7050000              0.0728494
    134.3600000              0.2468300
     42.8709000              0.4872580
     14.5189000              0.3234960
SP   6   1.00
    239.6680000             -0.00292619             0.00460285
     57.4419000             -0.0374080              0.0331990
     18.2859000             -0.1144870              0.1362820
      6.5991400              0.1156350              0.3304760
      2.4904900              0.6125950              0.4491460
      0.9445400              0.3937990              0.2657040
SP   3   1.00
      1.2779000             -0.2276060             -0.0175130
      0.3975900              0.00144583             0.2445330
      0.1600950              1.0927900              0.8049340
SP   1   1.00
      0.0556577              1.0000000              1.0000000
D    1   1.00
      0.6500000              1.0000000
D    1   1.00
      0.1625000              1.0000000
F    1   1.00
      0.2500000              1.0000000
****
Si     0
S    6   1.00
  16115.9000000              0.00195948
   2425.5800000              0.01492880
    553.8670000              0.07284780
    156.3400000              0.24613000
     50.0683000              0.48591400
     17.0178000              0.32500200
SP   6   1.00
    292.7180000             -0.00278094             0.00443826
     69.8731000             -0.03571460             0.03266790
     22.3363000             -0.11498500             0.13472100
      8.1503900              0.09356340             0.32867800
      3.1345800              0.60301700             0.44964000
      1.2254300              0.41895900             0.26137200
SP   3   1.00
      1.7273800             -0.24463000            -0.01779510
      0.5729220              0.00431572             0.25353900
      0.2221920              1.09818000             0.80066900
SP   1   1.00
      0.0778369              1.00000000             1.00000000
D    1   1.00
      0.9000000              1.0000000
D    1   1.00
      0.2250000              1.0000000
F    1   1.00
      0.3200000              1.0000000
****
P     0
S    6   1.00
  19413.3000000              0.0018516
   2909.4200000              0.0142062
    661.3640000              0.0699995
    185.7590000              0.2400790
     59.1943000              0.4847620
     20.0310000              0.3352000
SP   6   1.00
    339.4780000             -0.00278217             0.00456462
     81.0101000             -0.0360499              0.03369360
     25.8780000             -0.1166310              0.13975500
      9.4522100              0.0968328              0.33936200
      3.6656600              0.6144180              0.45092100
      1.4674600              0.4037980              0.23858600
SP   3   1.00
      2.1562300             -0.2529230             -0.01776530
      0.7489970              0.0328517              0.27405800
      0.2831450              1.0812500              0.78542100
SP   1   1.00
      0.0998317              1.0000000              1.00000000
D    1   1.00
      1.1000000              1.0000000
D    1   1.00
      0.2750000              1.0000000
F    1   1.00
      0.4500000              1.0000000
****
S     0
S    6   1.00
  21917.1000000              0.0018690
   3301.4900000              0.0142300
    754.1460000              0.0696960
    212.7110000              0.2384870
     67.9896000              0.4833070
     23.0515000              0.3380740
SP   6   1.00
    423.7350000             -0.0023767              0.0040610
    100.7100000             -0.0316930              0.0306810
     32.1599000             -0.1133170              0.1304520
     11.8079000              0.0560900              0.3272050
      4.6311000              0.5922550              0.4528510
      1.8702500              0.4550060              0.2560420
SP   3   1.00
      2.6158400             -0.2503740             -0.0145110
      0.9221670              0.0669570              0.3102630
      0.3412870              1.0545100              0.7544830
SP   1   1.00
      0.1171670              1.0000000              1.0000000
D    1   1.00
      1.3000000              1.0000000
D    1   1.00
      0.3250000              1.0000000
F    1   1.00
      0.5500000              1.0000000
****
Cl     0
S    6   1.00
  25180.1000000              0.0018330
   3780.3500000              0.0140340
    860.4740000              0.0690970
    242.1450000              0.2374520
     77.3349000              0.4830340
     26.2470000              0.3398560
SP   6   1.00
    491.7650000             -0.0022974              0.0039894
    116.9840000             -0.0307140              0.0303180
     37.4153000             -0.1125280              0.1298800
     13.7834000              0.0450160              0.3279510
      5.4521500              0.5893530              0.4535270
      2.2258800              0.4652060              0.2521540
SP   3   1.00
      3.1864900             -0.2518300             -0.0142990
      1.1442700              0.0615890              0.3235720
      0.4203770              1.0601800              0.7435070
SP   1   1.00
      0.1426570              1.0000000              1.0000000
D    1   1.00
      1.5000000              1.0000000
D    1   1.00
      0.3750000              1.0000000
F    1   1.00
      0.7000000              1.0000000
****
}

set {
reference uhf
freeze_core true
e_convergence 10
d_convergence 10
dft_spherical_points 1202
dft_radial_points 99
}

e = energy('b3lyp')

print_out('Grab this energy {0}'.format(e))
--------------------------------------------------------------------------

    Molecular point group: c1

    Geometry (in Bohr), charge = 0, multiplicity = 2:

       Center              X                  Y                   Z               Mass
    ------------   -----------------  -----------------  -----------------  -----------------
         C           -0.322226316686    -0.000001963350    -0.000139144710    12.000000000000
         C            0.061115070514    -1.401102589950    -2.426456313010    12.000000000000
         C            0.060913182614     2.801501593950     0.000314067990    12.000000000000
         C            0.060951269214    -1.400394991250     2.425858864990    12.000000000000
         H            2.082314503414    -1.647335303150    -2.852667713210     1.007825032230
         H           -0.764643039086    -0.388951482550    -4.020178800110     1.007825032230
         H           -0.764715418386    -3.287880840350    -2.347053572310     1.007825032230
         H            2.085797839414     3.294135150250     0.000381301790     1.007825032230
         H           -0.766628893986     3.677520259550     1.677743570790     1.007825032230
         H           -0.766811695486     3.676531473050    -1.676376316410     1.007825032230
         H            2.089560490314    -1.646891426950     2.852660719390     1.007825032230
         H           -0.768570971586    -3.293859090150     2.344768196290     1.007825032230
         H           -0.768315089886    -0.383293141550     4.025753543490     1.007825032230

  Charge       = 0
  Multiplicity = 2
  Basis Set: ANONYMOUS7320A9E5
    Blend: 6-31G_2DFP_
  Basis Set: (ANONYMOUS7320A9E5 AUX)
    Blend: DEF2-UNIVERSAL-JKFIT

    Orbital Energies [Eh]
    ---------------------

    Alpha Occupied:

       1A    -10.180330     2A    -10.167549     3A    -10.166969
       4A    -10.166387     5A     -0.797832     6A     -0.686547
       7A     -0.685903     8A     -0.530787     9A     -0.440955
      10A     -0.434970    11A     -0.434796    12A     -0.382669
      13A     -0.382225    14A     -0.363750    15A     -0.338051
      16A     -0.337989    17A     -0.169051

    Alpha Virtual:

      18A      0.076106    19A      0.134098    20A      0.134100
      21A      0.142597    22A      0.142806    23A      0.155080
      24A      0.178422    25A      0.179068    26A      0.203679
      27A      0.215027    28A      0.275979    29A      0.276070
      30A      0.399375    31A      0.399535    32A      0.403269
      33A      0.423850    34A      0.424040    35A      0.456828
      36A      0.495296    37A      0.495435    38A      0.511974
      39A      0.514036    40A      0.578837    41A      0.579085
      42A      0.591143    43A      0.591740    44A      0.602359
      45A      0.624829    46A      0.631943    47A      0.635999
      48A      0.636765    49A      0.663508    50A      0.663875
      51A      0.683461    52A      0.684090    53A      0.735077
      54A      0.824903    55A      0.825700    56A      0.854262
      57A      0.915164    58A      0.915186    59A      0.943813
      60A      0.944354    61A      0.960763    62A      0.961264
      63A      1.004179    64A      1.128238    65A      1.128896
      66A      1.141616    67A      1.163727    68A      1.163905
      69A      1.223255    70A      1.274285    71A      1.274642
      72A      1.279581    73A      1.324274    74A      1.324971
      75A      1.355565    76A      1.366120    77A      1.366647
      78A      1.392261    79A      1.403379    80A      1.404141
      81A      1.416654    82A      1.417279    83A      1.428529
      84A      1.492091    85A      1.498767    86A      1.542842
      87A      1.542950    88A      1.573557    89A      1.574116
      90A      1.669867    91A      1.739191    92A      1.739347
      93A      1.768183    94A      1.830109    95A      1.833308
      96A      1.971805    97A      2.017970    98A      2.019830
      99A      2.020065   100A      2.053079   101A      2.053197
     102A      2.737625   103A      2.738519   104A      2.791152
     105A      2.811945   106A      2.889820   107A      2.890360
     108A      2.895229   109A      2.929845   110A      2.930053
     111A      2.959068   112A      2.963907   113A      2.964971
     114A      3.034488   115A      3.070576   116A      3.071024
     117A      3.084031   118A      3.168583   119A      3.168847
     120A      3.180756   121A      3.284845   122A      3.284990
     123A      3.328220   124A      3.328312   125A      3.375317
     126A      3.488843   127A      3.490504   128A      3.514232
     129A      3.525507   130A      3.568867   131A      3.568943
     132A      3.576059   133A      3.665565   134A      3.667034
     135A      3.680721   136A      3.693162   137A      3.694093
     138A      3.777387   139A      3.778557   140A      3.787809
     141A      3.911886   142A      3.912771   143A      4.033332
     144A      4.110656   145A      4.112191   146A      4.145806
     147A      4.149892   148A      4.173247   149A      4.200869
     150A      4.203608   151A      4.205438   152A      4.211661
     153A      4.315588   154A      4.316984   155A      4.360088
     156A      4.423678   157A      4.424139   158A      4.444551
     159A      4.517449   160A      4.517835   161A      4.578857
     162A      4.579698   163A      4.618006   164A      4.709805
     165A      4.774850   166A      4.775057   167A      4.835866
     168A      4.963384   169A      5.002289   170A      5.003433
     171A      5.228202   172A      5.243048   173A      5.250425
     174A      5.353154   175A      5.359196   176A      5.479692

    Beta Occupied:

       1A    -10.168312     2A    -10.167730     3A    -10.167150
       4A    -10.166509     5A     -0.781160     6A     -0.684347
       7A     -0.683704     8A     -0.511755     9A     -0.431344
      10A     -0.431148    11A     -0.421659    12A     -0.376753
      13A     -0.376290    14A     -0.362728    15A     -0.333171
      16A     -0.333123

    Beta Virtual:

      17A     -0.025909    18A      0.077112    19A      0.134948
      20A      0.135061    21A      0.144525    22A      0.144638
      23A      0.163589    24A      0.182095    25A      0.182723
      26A      0.215258    27A      0.219022    28A      0.282314
      29A      0.282409    30A      0.400546    31A      0.400713
      32A      0.419737    33A      0.426652    34A      0.426848
      35A      0.468815    36A      0.497571    37A      0.497710
      38A      0.513714    39A      0.556296    40A      0.584402
      41A      0.584665    42A      0.597319    43A      0.597871
      44A      0.609797    45A      0.628209    46A      0.632143
      47A      0.639280    48A      0.640003    49A      0.667081
      50A      0.667475    51A      0.686113    52A      0.686671
      53A      0.757564    54A      0.830061    55A      0.830910
      56A      0.855619    57A      0.923183    58A      0.923201
      59A      0.946190    60A      0.952822    61A      0.966072
      62A      0.966514    63A      1.009448    64A      1.132253
      65A      1.132942    66A      1.154777    67A      1.168779
      68A      1.168984    69A      1.232326    70A      1.279899
      71A      1.280260    72A      1.285403    73A      1.329256
      74A      1.330047    75A      1.364916    76A      1.371372
      77A      1.371873    78A      1.393334    79A      1.406839
      80A      1.407641    81A      1.421607    82A      1.422321
      83A      1.428801    84A      1.493129    85A      1.509188
      86A      1.547198    87A      1.547397    88A      1.581449
      89A      1.581989    90A      1.674716    91A      1.744974
      92A      1.745096    93A      1.778975    94A      1.833991
      95A      1.837133    96A      1.972676    97A      2.026271
      98A      2.026365    99A      2.039476   100A      2.059721
     101A      2.059959   102A      2.745958   103A      2.746880
     104A      2.812361   105A      2.816292   106A      2.902537
     107A      2.902911   108A      2.924895   109A      2.932393
     110A      2.932499   111A      2.960135   112A      2.968449
     113A      2.969592   114A      3.042414   115A      3.080401
     116A      3.080961   117A      3.085884   118A      3.184279
     119A      3.184618   120A      3.188470   121A      3.289595
     122A      3.289791   123A      3.332019   124A      3.332072
     125A      3.383109   126A      3.491672   127A      3.493269
     128A      3.512605   129A      3.528515   130A      3.575805
     131A      3.582194   132A      3.582273   133A      3.670178
     134A      3.671750   135A      3.693993   136A      3.724928
     137A      3.725863   138A      3.782011   139A      3.783117
     140A      3.816379   141A      3.921669   142A      3.922527
     143A      4.044268   144A      4.117767   145A      4.118871
     146A      4.153159   147A      4.156830   148A      4.187265
     149A      4.207866   150A      4.209698   151A      4.212163
     152A      4.216175   153A      4.323167   154A      4.324314
     155A      4.363475   156A      4.431926   157A      4.432293
     158A      4.447450   159A      4.525288   160A      4.525554
     161A      4.589526   162A      4.590275   163A      4.625122
     164A      4.720255   165A      4.781757   166A      4.782028
     167A      4.838785   168A      4.968177   169A      5.006362
     170A      5.007471   171A      5.233895   172A      5.244845
     173A      5.252215   174A      5.359648   175A      5.365661
     176A      5.482018

    Final Occupation by Irrep:
              A
    DOCC [    16 ]
    SOCC [     1 ]

  @DF-UKS Final Energy:  -157.81306306586862

   => Energetics <=

    Nuclear Repulsion Energy =            125.4062706422926681
    One-Electron Energy =                -458.7716199697291586
    Two-Electron Energy =                 195.8597773765520742
    DFT Exchange-Correlation Energy =     -20.3074911149841917
    Empirical Dispersion Energy =           0.0000000000000000
    VV10 Nonlocal Energy =                  0.0000000000000000
    Total Energy =                       -157.8130630658686187

  UHF NO Occupations:
  HONO-2 :   15  A 1.9995995
  HONO-1 :   16  A 1.9989824
  HONO-0 :   17  A 1.0000000
  LUNO+0 :   18  A 0.0010176
  LUNO+1 :   19  A 0.0004005
  LUNO+2 :   20  A 0.0001973
  LUNO+3 :   21  A 0.0001972

Computation Completed

Properties will be evaluated at   0.000000,   0.000000,   0.000000 [a0]

Properties computed using the SCF density matrix

  Nuclear Dipole Moment: [e a0]
     X:     0.8225      Y:    -0.0000      Z:     0.0025

  Electronic Dipole Moment: [e a0]
     X:    -0.7450      Y:     0.0000      Z:    -0.0049

  Dipole Moment: [e a0]
     X:     0.0775      Y:     0.0000      Z:    -0.0025     Total:     0.0775

  Dipole Moment: [D]
     X:     0.1970      Y:     0.0000      Z:    -0.0062     Total:     0.1971

*** tstop() called on n065 at Fri Nov  5 15:05:36 2021
Module time:
	user time   =     541.92 seconds =       9.03 minutes
	system time =      11.91 seconds =       0.20 minutes
	total time  =        139 seconds =       2.32 minutes
Total time:
	user time   =     541.92 seconds =       9.03 minutes
	system time =      11.91 seconds =       0.20 minutes
	total time  =        139 seconds =       2.32 minutes
Grab this energy -157.81306306586862
    Psi4 stopped on: Friday, 05 November 2021 03:05PM
    Psi4 wall time for execution: 0:02:19.28

*** Psi4 exiting successfully. Buy a developer a beer!
