                               Psi4 1.4a2.dev629

  ==> Input File <==

--------------------------------------------------------------------------
import os
memory 14 GB

molecule {
 C   -0.3233311239    0.0000063352    0.0049993222
 C    0.0616636333   -1.3939071876   -2.4224786429
 C    0.0610236553    2.8017500507   -0.0052623234
 C    0.0606190148   -1.4078286650    2.4302691059
 H    2.0876094045   -1.6330494235   -2.8446458714
 H   -0.7635030506   -0.3802120178   -4.0171973845
 H   -0.7656420493   -3.2879954289   -2.3483364413
 H    2.0868004024    3.2880907337   -0.0085389825
 H   -0.7605323346    3.6873031393    1.6652758008
 H   -0.7707709459    3.6731391828   -1.6876840328
 H    2.0862613624   -1.6551351745    2.8502112565
 H   -0.7655044236   -3.2959749643    2.3496395818
 H   -0.7673014216   -0.3962108938    4.0337486116
units bohr
0 2
}

basis {

assign 6-31g_2dfp_

[ 6-31g_2dfp_ ]

spherical

!----------------------------------------------------------------------
! Basis Set Exchange
! Version v0.8.13
! https://www.basissetexchange.org
!----------------------------------------------------------------------
!   Basis set: 6-31G(2df,p)
! Description: 6-31G(2df,p)
!        Role: orbital
!     Version: 0  (Data from the original Basis Set Exchange)
!----------------------------------------------------------------------

****
H     0
S    3   1.00
     18.7311370              0.03349460
      2.8253937              0.23472695
      0.6401217              0.81375733
S    1   1.00
      0.1612778              1.00000000
P    1   1.00
      1.5000000              1.0000000
P    1   1.00
      0.3750000              1.0000000
****
B     0
S    6   1.00
   2068.8823000              0.0018663
    310.6495700              0.0142515
     70.6830330              0.0695516
     19.8610800              0.2325729
      6.2993048              0.4670787
      2.1270270              0.3634314
SP   3   1.00
      4.7279710             -0.1303938              0.0745976
      1.1903377             -0.1307889              0.3078467
      0.3594117              1.1309444              0.7434568
SP   1   1.00
      0.1267512              1.0000000              1.0000000
D    1   1.00
      0.8020000              1.0000000
D    1   1.00
      0.2005000              1.0000000
F    1   1.00
      0.5000000              1.0000000
****
C     0
S    6   1.00
   3047.5249000              0.0018347
    457.3695100              0.0140373
    103.9486900              0.0688426
     29.2101550              0.2321844
      9.2866630              0.4679413
      3.1639270              0.3623120
SP   3   1.00
      7.8682724             -0.1193324              0.0689991
      1.8812885             -0.1608542              0.3164240
      0.5442493              1.1434564              0.7443083
SP   1   1.00
      0.1687144              1.0000000              1.0000000
D    1   1.00
      1.2520000              1.0000000
D    1   1.00
      0.3130000              1.0000000
F    1   1.00
      0.8000000              1.0000000
****
N     0
S    6   1.00
   4173.5110000              0.0018348
    627.4579000              0.0139950
    142.9021000              0.0685870
     40.2343300              0.2322410
     12.8202100              0.4690700
      4.3904370              0.3604550
SP   3   1.00
     11.6263580             -0.1149610              0.0675800
      2.7162800             -0.1691180              0.3239070
      0.7722180              1.1458520              0.7408950
SP   1   1.00
      0.2120313              1.0000000              1.0000000
D    1   1.00
      1.8260000              1.0000000
D    1   1.00
      0.4565000              1.0000000
F    1   1.00
      1.0000000              1.0000000
****
O     0
S    6   1.00
   5484.6717000              0.0018311
    825.2349500              0.0139501
    188.0469600              0.0684451
     52.9645000              0.2327143
     16.8975700              0.4701930
      5.7996353              0.3585209
SP   3   1.00
     15.5396160             -0.1107775              0.0708743
      3.5999336             -0.1480263              0.3397528
      1.0137618              1.1307670              0.7271586
SP   1   1.00
      0.2700058              1.0000000              1.0000000
D    1   1.00
      2.5840000              1.0000000
D    1   1.00
      0.6460000              1.0000000
F    1   1.00
      1.4000000              1.0000000
****
F     0
S    6   1.00
   7001.7130900              0.0018196169
   1051.3660900              0.0139160796
    239.2856900              0.0684053245
     67.3974453              0.233185760
     21.5199573              0.471267439
      7.40310130             0.356618546
SP   3   1.00
     20.8479528             -0.108506975            0.0716287243
      4.80830834            -0.146451658            0.3459121030
      1.34406986             1.128688580            0.7224699570
SP   1   1.00
      0.358151393            1.0000000              1.0000000
D    1   1.00
      3.5000000              1.0000000
D    1   1.00
      0.8750000              1.0000000
F    1   1.00
      1.8500000              1.0000000
****
Al     0
S    6   1.00
  13983.1000000              0.00194267
   2098.7500000              0.0148599
    477.7050000              0.0728494
    134.3600000              0.2468300
     42.8709000              0.4872580
     14.5189000              0.3234960
SP   6   1.00
    239.6680000             -0.00292619             0.00460285
     57.4419000             -0.0374080              0.0331990
     18.2859000             -0.1144870              0.1362820
      6.5991400              0.1156350              0.3304760
      2.4904900              0.6125950              0.4491460
      0.9445400              0.3937990              0.2657040
SP   3   1.00
      1.2779000             -0.2276060             -0.0175130
      0.3975900              0.00144583             0.2445330
      0.1600950              1.0927900              0.8049340
SP   1   1.00
      0.0556577              1.0000000              1.0000000
D    1   1.00
      0.6500000              1.0000000
D    1   1.00
      0.1625000              1.0000000
F    1   1.00
      0.2500000              1.0000000
****
Si     0
S    6   1.00
  16115.9000000              0.00195948
   2425.5800000              0.01492880
    553.8670000              0.07284780
    156.3400000              0.24613000
     50.0683000              0.48591400
     17.0178000              0.32500200
SP   6   1.00
    292.7180000             -0.00278094             0.00443826
     69.8731000             -0.03571460             0.03266790
     22.3363000             -0.11498500             0.13472100
      8.1503900              0.09356340             0.32867800
      3.1345800              0.60301700             0.44964000
      1.2254300              0.41895900             0.26137200
SP   3   1.00
      1.7273800             -0.24463000            -0.01779510
      0.5729220              0.00431572             0.25353900
      0.2221920              1.09818000             0.80066900
SP   1   1.00
      0.0778369              1.00000000             1.00000000
D    1   1.00
      0.9000000              1.0000000
D    1   1.00
      0.2250000              1.0000000
F    1   1.00
      0.3200000              1.0000000
****
P     0
S    6   1.00
  19413.3000000              0.0018516
   2909.4200000              0.0142062
    661.3640000              0.0699995
    185.7590000              0.2400790
     59.1943000              0.4847620
     20.0310000              0.3352000
SP   6   1.00
    339.4780000             -0.00278217             0.00456462
     81.0101000             -0.0360499              0.03369360
     25.8780000             -0.1166310              0.13975500
      9.4522100              0.0968328              0.33936200
      3.6656600              0.6144180              0.45092100
      1.4674600              0.4037980              0.23858600
SP   3   1.00
      2.1562300             -0.2529230             -0.01776530
      0.7489970              0.0328517              0.27405800
      0.2831450              1.0812500              0.78542100
SP   1   1.00
      0.0998317              1.0000000              1.00000000
D    1   1.00
      1.1000000              1.0000000
D    1   1.00
      0.2750000              1.0000000
F    1   1.00
      0.4500000              1.0000000
****
S     0
S    6   1.00
  21917.1000000              0.0018690
   3301.4900000              0.0142300
    754.1460000              0.0696960
    212.7110000              0.2384870
     67.9896000              0.4833070
     23.0515000              0.3380740
SP   6   1.00
    423.7350000             -0.0023767              0.0040610
    100.7100000             -0.0316930              0.0306810
     32.1599000             -0.1133170              0.1304520
     11.8079000              0.0560900              0.3272050
      4.6311000              0.5922550              0.4528510
      1.8702500              0.4550060              0.2560420
SP   3   1.00
      2.6158400             -0.2503740             -0.0145110
      0.9221670              0.0669570              0.3102630
      0.3412870              1.0545100              0.7544830
SP   1   1.00
      0.1171670              1.0000000              1.0000000
D    1   1.00
      1.3000000              1.0000000
D    1   1.00
      0.3250000              1.0000000
F    1   1.00
      0.5500000              1.0000000
****
Cl     0
S    6   1.00
  25180.1000000              0.0018330
   3780.3500000              0.0140340
    860.4740000              0.0690970
    242.1450000              0.2374520
     77.3349000              0.4830340
     26.2470000              0.3398560
SP   6   1.00
    491.7650000             -0.0022974              0.0039894
    116.9840000             -0.0307140              0.0303180
     37.4153000             -0.1125280              0.1298800
     13.7834000              0.0450160              0.3279510
      5.4521500              0.5893530              0.4535270
      2.2258800              0.4652060              0.2521540
SP   3   1.00
      3.1864900             -0.2518300             -0.0142990
      1.1442700              0.0615890              0.3235720
      0.4203770              1.0601800              0.7435070
SP   1   1.00
      0.1426570              1.0000000              1.0000000
D    1   1.00
      1.5000000              1.0000000
D    1   1.00
      0.3750000              1.0000000
F    1   1.00
      0.7000000              1.0000000
****
}

set {
reference uhf
freeze_core true
e_convergence 10
d_convergence 10
dft_spherical_points 1202
dft_radial_points 99
}

e = energy('b3lyp')

print_out('Grab this energy {0}'.format(e))
--------------------------------------------------------------------------

    Molecular point group: c1

    Geometry (in Bohr), charge = 0, multiplicity = 2:

       Center              X                  Y                   Z               Mass
    ------------   -----------------  -----------------  -----------------  -----------------
         C           -0.323334044660     0.000002809702     0.003549478840    12.000000000000
         C            0.061660712540    -1.393910713098    -2.423928486260    12.000000000000
         C            0.061020734540     2.801746525202    -0.006712166760    12.000000000000
         C            0.060616094040    -1.407832190498     2.428819262540    12.000000000000
         H            2.087606483740    -1.633052948998    -2.846095714760     1.007825032230
         H           -0.763505971360    -0.380215543298    -4.018647227860     1.007825032230
         H           -0.765644970060    -3.287998954398    -2.349786284660     1.007825032230
         H            2.086797481640     3.288087208202    -0.009988825860     1.007825032230
         H           -0.760535255360     3.687299613802     1.663825957440     1.007825032230
         H           -0.770773866660     3.673135657302    -1.689133876160     1.007825032230
         H            2.086258441640    -1.655138699998     2.848761413140     1.007825032230
         H           -0.765507344360    -3.295978489798     2.348189738440     1.007825032230
         H           -0.767304342360    -0.396214419298     4.032298768240     1.007825032230

  Charge       = 0
  Multiplicity = 2
  Basis Set: ANONYMOUS5B018D97
    Blend: 6-31G_2DFP_
  Basis Set: (ANONYMOUS5B018D97 AUX)
    Blend: DEF2-UNIVERSAL-JKFIT

    Orbital Energies [Eh]
    ---------------------

    Alpha Occupied:

       1A    -10.180342     2A    -10.167287     3A    -10.167016
       4A    -10.166743     5A     -0.797770     6A     -0.686407
       7A     -0.685966     8A     -0.530778     9A     -0.441126
      10A     -0.434937    11A     -0.434407    12A     -0.382743
      13A     -0.382453    14A     -0.363609    15A     -0.338271
      16A     -0.337724    17A     -0.168961

    Alpha Virtual:

      18A      0.076071    19A      0.133905    20A      0.134384
      21A      0.142497    22A      0.142772    23A      0.154879
      24A      0.178558    25A      0.179005    26A      0.203543
      27A      0.214809    28A      0.275817    29A      0.276156
      30A      0.399054    31A      0.399338    32A      0.403413
      33A      0.423967    34A      0.424236    35A      0.456593
      36A      0.494985    37A      0.495786    38A      0.512171
      39A      0.513988    40A      0.578554    41A      0.579054
      42A      0.591615    43A      0.591659    44A      0.602572
      45A      0.624723    46A      0.631821    47A      0.636024
      48A      0.636463    49A      0.663196    50A      0.663631
      51A      0.683623    52A      0.684108    53A      0.734993
      54A      0.824579    55A      0.826221    56A      0.853914
      57A      0.914786    58A      0.915271    59A      0.944024
      60A      0.944545    61A      0.961133    62A      0.961652
      63A      1.003473    64A      1.126959    65A      1.129285
      66A      1.142210    67A      1.162778    68A      1.163753
      69A      1.223330    70A      1.273977    71A      1.275019
      72A      1.279350    73A      1.324254    74A      1.324426
      75A      1.355985    76A      1.365301    77A      1.366750
      78A      1.392447    79A      1.403282    80A      1.404892
      81A      1.416633    82A      1.417622    83A      1.427929
      84A      1.491399    85A      1.499087    86A      1.542471
      87A      1.543188    88A      1.572636    89A      1.576376
      90A      1.669830    91A      1.738333    92A      1.740447
      93A      1.768344    94A      1.830899    95A      1.831920
      96A      1.971696    97A      2.017601    98A      2.018331
      99A      2.020472   100A      2.050145   101A      2.055246
     102A      2.738218   103A      2.738748   104A      2.790920
     105A      2.811442   106A      2.889850   107A      2.890047
     108A      2.894942   109A      2.929316   110A      2.929667
     111A      2.958987   112A      2.963502   113A      2.965298
     114A      3.033998   115A      3.070283   116A      3.072269
     117A      3.084400   118A      3.168029   119A      3.169576
     120A      3.180565   121A      3.284590   122A      3.286006
     123A      3.326228   124A      3.328128   125A      3.375662
     126A      3.489648   127A      3.490612   128A      3.514024
     129A      3.525313   130A      3.567202   131A      3.569443
     132A      3.575362   133A      3.666270   134A      3.666501
     135A      3.679676   136A      3.693653   137A      3.694554
     138A      3.775939   139A      3.777581   140A      3.789288
     141A      3.910811   142A      3.913655   143A      4.034466
     144A      4.109952   145A      4.112680   146A      4.146505
     147A      4.149800   148A      4.173105   149A      4.201390
     150A      4.202627   151A      4.204741   152A      4.211119
     153A      4.315918   154A      4.315971   155A      4.358992
     156A      4.424264   157A      4.424541   158A      4.443553
     159A      4.516025   160A      4.517691   161A      4.577197
     162A      4.579341   163A      4.617536   164A      4.709444
     165A      4.773304   166A      4.775916   167A      4.836939
     168A      4.962874   169A      5.001979   170A      5.003952
     171A      5.228011   172A      5.246589   173A      5.246909
     174A      5.354884   175A      5.356290   176A      5.479363

    Beta Occupied:

       1A    -10.168043     2A    -10.167775     3A    -10.167507
       4A    -10.166518     5A     -0.781095     6A     -0.684214
       7A     -0.683765     8A     -0.511750     9A     -0.431316
      10A     -0.430770    11A     -0.421823    12A     -0.376838
      13A     -0.376529    14A     -0.362593    15A     -0.333398
      16A     -0.332843

    Beta Virtual:

      17A     -0.025743    18A      0.077080    19A      0.134785
      20A      0.135285    21A      0.144374    22A      0.144637
      23A      0.163339    24A      0.182219    25A      0.182685
      26A      0.215032    27A      0.218932    28A      0.282153
      29A      0.282515    30A      0.400278    31A      0.400510
      32A      0.419799    33A      0.426763    34A      0.427063
      35A      0.468504    36A      0.497243    37A      0.498052
      38A      0.513908    39A      0.556327    40A      0.584134
      41A      0.584576    42A      0.597781    43A      0.597850
      44A      0.609991    45A      0.628075    46A      0.632011
      47A      0.639292    48A      0.639765    49A      0.666734
      50A      0.667221    51A      0.686206    52A      0.686795
      53A      0.757516    54A      0.829737    55A      0.831399
      56A      0.855268    57A      0.922743    58A      0.923254
      59A      0.945908    60A      0.953435    61A      0.966387
      62A      0.967008    63A      1.008710    64A      1.130996
      65A      1.133308    66A      1.155582    67A      1.167821
      68A      1.168862    69A      1.232300    70A      1.279571
      71A      1.280620    72A      1.285103    73A      1.329227
      74A      1.329431    75A      1.365400    76A      1.370439
      77A      1.372092    78A      1.393510    79A      1.406783
      80A      1.408331    81A      1.421679    82A      1.422668
      83A      1.428202    84A      1.492463    85A      1.509517
      86A      1.546777    87A      1.547697    88A      1.580654
      89A      1.584101    90A      1.674676    91A      1.744099
      92A      1.746206    93A      1.779122    94A      1.834737
      95A      1.835794    96A      1.972572    97A      2.023954
      98A      2.026935    99A      2.039668   100A      2.056953
     101A      2.061873   102A      2.746508   103A      2.747130
     104A      2.811850   105A      2.816059   106A      2.902573
     107A      2.902700   108A      2.924647   109A      2.931891
     110A      2.932060   111A      2.960055   112A      2.968073
     113A      2.969808   114A      3.041929   115A      3.080037
     116A      3.082208   117A      3.086360   118A      3.183888
     119A      3.185201   120A      3.188247   121A      3.289458
     122A      3.290740   123A      3.330026   124A      3.331942
     125A      3.383478   126A      3.492382   127A      3.493331
     128A      3.512404   129A      3.528363   130A      3.574764
     131A      3.580763   132A      3.583017   133A      3.670993
     134A      3.671270   135A      3.692969   136A      3.725329
     137A      3.726138   138A      3.780484   139A      3.782163
     140A      3.817756   141A      3.920628   142A      3.923471
     143A      4.045353   144A      4.116769   145A      4.119482
     146A      4.153780   147A      4.156963   148A      4.187119
     149A      4.207297   150A      4.210403   151A      4.210847
     152A      4.215686   153A      4.323345   154A      4.323428
     155A      4.362355   156A      4.432468   157A      4.432721
     158A      4.446484   159A      4.523910   160A      4.525378
     161A      4.587719   162A      4.590023   163A      4.624728
     164A      4.719789   165A      4.780219   166A      4.782904
     167A      4.839858   168A      4.967668   169A      5.006019
     170A      5.007991   171A      5.233724   172A      5.248374
     173A      5.248704   174A      5.361342   175A      5.362784
     176A      5.481684

    Final Occupation by Irrep:
              A
    DOCC [    16 ]
    SOCC [     1 ]

  @DF-UKS Final Energy:  -157.81305254565763

   => Energetics <=

    Nuclear Repulsion Energy =            125.3948851506861786
    One-Electron Energy =                -458.7493879590726920
    Two-Electron Energy =                 195.8485992686517250
    DFT Exchange-Correlation Energy =     -20.3071490059228026
    Empirical Dispersion Energy =           0.0000000000000000
    VV10 Nonlocal Energy =                  0.0000000000000000
    Total Energy =                       -157.8130525456576265

  UHF NO Occupations:
  HONO-2 :   15  A 1.9996009
  HONO-1 :   16  A 1.9989804
  HONO-0 :   17  A 1.0000000
  LUNO+0 :   18  A 0.0010196
  LUNO+1 :   19  A 0.0003991
  LUNO+2 :   20  A 0.0001979
  LUNO+3 :   21  A 0.0001972

Computation Completed

Properties will be evaluated at   0.000000,   0.000000,   0.000000 [a0]

Properties computed using the SCF density matrix

  Nuclear Dipole Moment: [e a0]
     X:     0.8272      Y:    -0.0000      Z:    -0.0102

  Electronic Dipole Moment: [e a0]
     X:    -0.7493      Y:     0.0000      Z:     0.0110

  Dipole Moment: [e a0]
     X:     0.0779      Y:     0.0000      Z:     0.0007     Total:     0.0779

  Dipole Moment: [D]
     X:     0.1980      Y:     0.0000      Z:     0.0019     Total:     0.1981

*** tstop() called on n056 at Fri Nov  5 14:46:38 2021
Module time:
	user time   =     545.93 seconds =       9.10 minutes
	system time =      12.67 seconds =       0.21 minutes
	total time  =        141 seconds =       2.35 minutes
Total time:
	user time   =     545.93 seconds =       9.10 minutes
	system time =      12.67 seconds =       0.21 minutes
	total time  =        141 seconds =       2.35 minutes
Grab this energy -157.81305254565763
    Psi4 stopped on: Friday, 05 November 2021 02:46PM
    Psi4 wall time for execution: 0:02:20.60

*** Psi4 exiting successfully. Buy a developer a beer!
