                               Psi4 1.4a2.dev629

  ==> Input File <==

--------------------------------------------------------------------------
import os
memory 14 GB

molecule {
 C   -0.3233379586    0.0002428181    0.0053437403
 C    0.0618242333   -1.4014115316   -2.4259454384
 C    0.0599095325    2.8018787482    0.0011063726
 C    0.0615678857   -1.4004998608    2.4265835758
 H    2.0883506383   -1.6468394960   -2.8499849935
 H   -0.7633800451   -0.3869421488   -4.0242044462
 H   -0.7660488814   -3.2908347953   -2.3494894880
 H    2.0835452588    3.2820106626   -0.0009915038
 H   -0.7681220214    3.6827245685    1.6758767273
 H   -0.7664441957    3.6844387636   -1.6773462595
 H    2.0887630211   -1.6471854363    2.8485759949
 H   -0.7651178156   -3.2917638537    2.3482865374
 H   -0.7641175288   -0.3858427521    4.0221891810
units bohr
0 2
}

basis {

assign 6-31g_2dfp_

[ 6-31g_2dfp_ ]

spherical

!----------------------------------------------------------------------
! Basis Set Exchange
! Version v0.8.13
! https://www.basissetexchange.org
!----------------------------------------------------------------------
!   Basis set: 6-31G(2df,p)
! Description: 6-31G(2df,p)
!        Role: orbital
!     Version: 0  (Data from the original Basis Set Exchange)
!----------------------------------------------------------------------

****
H     0
S    3   1.00
     18.7311370              0.03349460
      2.8253937              0.23472695
      0.6401217              0.81375733
S    1   1.00
      0.1612778              1.00000000
P    1   1.00
      1.5000000              1.0000000
P    1   1.00
      0.3750000              1.0000000
****
B     0
S    6   1.00
   2068.8823000              0.0018663
    310.6495700              0.0142515
     70.6830330              0.0695516
     19.8610800              0.2325729
      6.2993048              0.4670787
      2.1270270              0.3634314
SP   3   1.00
      4.7279710             -0.1303938              0.0745976
      1.1903377             -0.1307889              0.3078467
      0.3594117              1.1309444              0.7434568
SP   1   1.00
      0.1267512              1.0000000              1.0000000
D    1   1.00
      0.8020000              1.0000000
D    1   1.00
      0.2005000              1.0000000
F    1   1.00
      0.5000000              1.0000000
****
C     0
S    6   1.00
   3047.5249000              0.0018347
    457.3695100              0.0140373
    103.9486900              0.0688426
     29.2101550              0.2321844
      9.2866630              0.4679413
      3.1639270              0.3623120
SP   3   1.00
      7.8682724             -0.1193324              0.0689991
      1.8812885             -0.1608542              0.3164240
      0.5442493              1.1434564              0.7443083
SP   1   1.00
      0.1687144              1.0000000              1.0000000
D    1   1.00
      1.2520000              1.0000000
D    1   1.00
      0.3130000              1.0000000
F    1   1.00
      0.8000000              1.0000000
****
N     0
S    6   1.00
   4173.5110000              0.0018348
    627.4579000              0.0139950
    142.9021000              0.0685870
     40.2343300              0.2322410
     12.8202100              0.4690700
      4.3904370              0.3604550
SP   3   1.00
     11.6263580             -0.1149610              0.0675800
      2.7162800             -0.1691180              0.3239070
      0.7722180              1.1458520              0.7408950
SP   1   1.00
      0.2120313              1.0000000              1.0000000
D    1   1.00
      1.8260000              1.0000000
D    1   1.00
      0.4565000              1.0000000
F    1   1.00
      1.0000000              1.0000000
****
O     0
S    6   1.00
   5484.6717000              0.0018311
    825.2349500              0.0139501
    188.0469600              0.0684451
     52.9645000              0.2327143
     16.8975700              0.4701930
      5.7996353              0.3585209
SP   3   1.00
     15.5396160             -0.1107775              0.0708743
      3.5999336             -0.1480263              0.3397528
      1.0137618              1.1307670              0.7271586
SP   1   1.00
      0.2700058              1.0000000              1.0000000
D    1   1.00
      2.5840000              1.0000000
D    1   1.00
      0.6460000              1.0000000
F    1   1.00
      1.4000000              1.0000000
****
F     0
S    6   1.00
   7001.7130900              0.0018196169
   1051.3660900              0.0139160796
    239.2856900              0.0684053245
     67.3974453              0.233185760
     21.5199573              0.471267439
      7.40310130             0.356618546
SP   3   1.00
     20.8479528             -0.108506975            0.0716287243
      4.80830834            -0.146451658            0.3459121030
      1.34406986             1.128688580            0.7224699570
SP   1   1.00
      0.358151393            1.0000000              1.0000000
D    1   1.00
      3.5000000              1.0000000
D    1   1.00
      0.8750000              1.0000000
F    1   1.00
      1.8500000              1.0000000
****
Al     0
S    6   1.00
  13983.1000000              0.00194267
   2098.7500000              0.0148599
    477.7050000              0.0728494
    134.3600000              0.2468300
     42.8709000              0.4872580
     14.5189000              0.3234960
SP   6   1.00
    239.6680000             -0.00292619             0.00460285
     57.4419000             -0.0374080              0.0331990
     18.2859000             -0.1144870              0.1362820
      6.5991400              0.1156350              0.3304760
      2.4904900              0.6125950              0.4491460
      0.9445400              0.3937990              0.2657040
SP   3   1.00
      1.2779000             -0.2276060             -0.0175130
      0.3975900              0.00144583             0.2445330
      0.1600950              1.0927900              0.8049340
SP   1   1.00
      0.0556577              1.0000000              1.0000000
D    1   1.00
      0.6500000              1.0000000
D    1   1.00
      0.1625000              1.0000000
F    1   1.00
      0.2500000              1.0000000
****
Si     0
S    6   1.00
  16115.9000000              0.00195948
   2425.5800000              0.01492880
    553.8670000              0.07284780
    156.3400000              0.24613000
     50.0683000              0.48591400
     17.0178000              0.32500200
SP   6   1.00
    292.7180000             -0.00278094             0.00443826
     69.8731000             -0.03571460             0.03266790
     22.3363000             -0.11498500             0.13472100
      8.1503900              0.09356340             0.32867800
      3.1345800              0.60301700             0.44964000
      1.2254300              0.41895900             0.26137200
SP   3   1.00
      1.7273800             -0.24463000            -0.01779510
      0.5729220              0.00431572             0.25353900
      0.2221920              1.09818000             0.80066900
SP   1   1.00
      0.0778369              1.00000000             1.00000000
D    1   1.00
      0.9000000              1.0000000
D    1   1.00
      0.2250000              1.0000000
F    1   1.00
      0.3200000              1.0000000
****
P     0
S    6   1.00
  19413.3000000              0.0018516
   2909.4200000              0.0142062
    661.3640000              0.0699995
    185.7590000              0.2400790
     59.1943000              0.4847620
     20.0310000              0.3352000
SP   6   1.00
    339.4780000             -0.00278217             0.00456462
     81.0101000             -0.0360499              0.03369360
     25.8780000             -0.1166310              0.13975500
      9.4522100              0.0968328              0.33936200
      3.6656600              0.6144180              0.45092100
      1.4674600              0.4037980              0.23858600
SP   3   1.00
      2.1562300             -0.2529230             -0.01776530
      0.7489970              0.0328517              0.27405800
      0.2831450              1.0812500              0.78542100
SP   1   1.00
      0.0998317              1.0000000              1.00000000
D    1   1.00
      1.1000000              1.0000000
D    1   1.00
      0.2750000              1.0000000
F    1   1.00
      0.4500000              1.0000000
****
S     0
S    6   1.00
  21917.1000000              0.0018690
   3301.4900000              0.0142300
    754.1460000              0.0696960
    212.7110000              0.2384870
     67.9896000              0.4833070
     23.0515000              0.3380740
SP   6   1.00
    423.7350000             -0.0023767              0.0040610
    100.7100000             -0.0316930              0.0306810
     32.1599000             -0.1133170              0.1304520
     11.8079000              0.0560900              0.3272050
      4.6311000              0.5922550              0.4528510
      1.8702500              0.4550060              0.2560420
SP   3   1.00
      2.6158400             -0.2503740             -0.0145110
      0.9221670              0.0669570              0.3102630
      0.3412870              1.0545100              0.7544830
SP   1   1.00
      0.1171670              1.0000000              1.0000000
D    1   1.00
      1.3000000              1.0000000
D    1   1.00
      0.3250000              1.0000000
F    1   1.00
      0.5500000              1.0000000
****
Cl     0
S    6   1.00
  25180.1000000              0.0018330
   3780.3500000              0.0140340
    860.4740000              0.0690970
    242.1450000              0.2374520
     77.3349000              0.4830340
     26.2470000              0.3398560
SP   6   1.00
    491.7650000             -0.0022974              0.0039894
    116.9840000             -0.0307140              0.0303180
     37.4153000             -0.1125280              0.1298800
     13.7834000              0.0450160              0.3279510
      5.4521500              0.5893530              0.4535270
      2.2258800              0.4652060              0.2521540
SP   3   1.00
      3.1864900             -0.2518300             -0.0142990
      1.1442700              0.0615890              0.3235720
      0.4203770              1.0601800              0.7435070
SP   1   1.00
      0.1426570              1.0000000              1.0000000
D    1   1.00
      1.5000000              1.0000000
D    1   1.00
      0.3750000              1.0000000
F    1   1.00
      0.7000000              1.0000000
****
}

set {
reference uhf
freeze_core true
e_convergence 10
d_convergence 10
dft_spherical_points 1202
dft_radial_points 99
}

e = energy('b3lyp')

print_out('Grab this energy {0}'.format(e))
--------------------------------------------------------------------------

    Molecular point group: c1

    Geometry (in Bohr), charge = 0, multiplicity = 2:

       Center              X                  Y                   Z               Mass
    ------------   -----------------  -----------------  -----------------  -----------------
         C           -0.323338666957     0.000202766455     0.003978492240    12.000000000000
         C            0.061823524943    -1.401451583245    -2.427310686460    12.000000000000
         C            0.059908824143     2.801838696555    -0.000258875460    12.000000000000
         C            0.061567177343    -1.400539912445     2.425218327740    12.000000000000
         H            2.088349929943    -1.646879547645    -2.851350241560     1.007825032230
         H           -0.763380753457    -0.386982200445    -4.025569694260     1.007825032230
         H           -0.766049589757    -3.290874846945    -2.350854736060     1.007825032230
         H            2.083544550443     3.281970610955    -0.002356751860     1.007825032230
         H           -0.768122729757     3.682684516855     1.674511479240     1.007825032230
         H           -0.766444904057     3.684398711955    -1.678711507560     1.007825032230
         H            2.088762312743    -1.647225487945     2.847210746840     1.007825032230
         H           -0.765118523957    -3.291803905345     2.346921289340     1.007825032230
         H           -0.764118237157    -0.385882803745     4.020823932940     1.007825032230

  Charge       = 0
  Multiplicity = 2
  Basis Set: ANONYMOUS41F9A74B
    Blend: 6-31G_2DFP_
  Basis Set: (ANONYMOUS41F9A74B AUX)
    Blend: DEF2-UNIVERSAL-JKFIT

    Orbital Energies [Eh]
    ---------------------

    Alpha Occupied:

       1A    -10.180342     2A    -10.167057     3A    -10.167026
       4A    -10.166961     5A     -0.797770     6A     -0.686379
       7A     -0.685995     8A     -0.530775     9A     -0.441132
      10A     -0.434901    11A     -0.434438    12A     -0.382855
      13A     -0.382345    14A     -0.363608    15A     -0.338540
      16A     -0.337456    17A     -0.168960

    Alpha Virtual:

      18A      0.076072    19A      0.134105    20A      0.134204
      21A      0.142356    22A      0.142897    23A      0.154880
      24A      0.178644    25A      0.178910    26A      0.203547
      27A      0.214802    28A      0.275696    29A      0.276274
      30A      0.399049    31A      0.399407    32A      0.403345
      33A      0.423995    34A      0.424200    35A      0.456594
      36A      0.495339    37A      0.495438    38A      0.512161
      39A      0.513980    40A      0.578574    41A      0.579042
      42A      0.591388    43A      0.591876    44A      0.602606
      45A      0.624752    46A      0.631746    47A      0.636023
      48A      0.636516    49A      0.663336    50A      0.663492
      51A      0.683728    52A      0.683976    53A      0.734993
      54A      0.825281    55A      0.825531    56A      0.853915
      57A      0.914680    58A      0.915360    59A      0.944108
      60A      0.944619    61A      0.961116    62A      0.961492
      63A      1.003452    64A      1.127630    65A      1.128545
      66A      1.142250    67A      1.162854    68A      1.163694
      69A      1.223329    70A      1.274007    71A      1.274960
      72A      1.279367    73A      1.324231    74A      1.324476
      75A      1.355977    76A      1.365797    77A      1.366328
      78A      1.392436    79A      1.403554    80A      1.404529
      81A      1.416627    82A      1.417585    83A      1.427939
      84A      1.491498    85A      1.499061    86A      1.542829
      87A      1.542850    88A      1.573968    89A      1.574940
      90A      1.669827    91A      1.739199    92A      1.739631
      93A      1.768326    94A      1.830899    95A      1.831893
      96A      1.971725    97A      2.018278    98A      2.018495
      99A      2.019634   100A      2.051943   101A      2.053353
     102A      2.738250   103A      2.738727   104A      2.790928
     105A      2.811426   106A      2.889349   107A      2.890522
     108A      2.894972   109A      2.929000   110A      2.929990
     111A      2.958985   112A      2.964146   113A      2.964623
     114A      3.033995   115A      3.070469   116A      3.072114
     117A      3.084350   118A      3.168543   119A      3.168971
     120A      3.180650   121A      3.284994   122A      3.285631
     123A      3.326202   124A      3.328120   125A      3.375605
     126A      3.488953   127A      3.491336   128A      3.514019
     129A      3.525342   130A      3.568047   131A      3.568584
     132A      3.575296   133A      3.665862   134A      3.666875
     135A      3.679670   136A      3.693441   137A      3.694773
     138A      3.776067   139A      3.777500   140A      3.789226
     141A      3.911750   142A      3.912712   143A      4.034428
     144A      4.111019   145A      4.111704   146A      4.147148
     147A      4.149071   148A      4.173263   149A      4.201791
     150A      4.203252   151A      4.203762   152A      4.210868
     153A      4.315394   154A      4.316542   155A      4.358981
     156A      4.424358   157A      4.424560   158A      4.443420
     159A      4.516206   160A      4.517447   161A      4.577924
     162A      4.578339   163A      4.617882   164A      4.709413
     165A      4.773802   166A      4.775430   167A      4.836901
     168A      4.962825   169A      5.002376   170A      5.003586
     171A      5.228067   172A      5.246273   173A      5.247365
     174A      5.354950   175A      5.356069   176A      5.479345

    Beta Occupied:

       1A    -10.167808     2A    -10.167784     3A    -10.167731
       4A    -10.166519     5A     -0.781095     6A     -0.684169
       7A     -0.683811     8A     -0.511747     9A     -0.431278
      10A     -0.430812    11A     -0.421820    12A     -0.376929
      13A     -0.376440    14A     -0.362592    15A     -0.333670
      16A     -0.332573

    Beta Virtual:

      17A     -0.025743    18A      0.077081    19A      0.135003
      20A      0.135085    21A      0.144251    22A      0.144745
      23A      0.163339    24A      0.182309    25A      0.182587
      26A      0.215032    27A      0.218929    28A      0.282078
      29A      0.282587    30A      0.400224    31A      0.400571
      32A      0.419792    33A      0.426804    34A      0.427013
      35A      0.468501    36A      0.497598    37A      0.497701
      38A      0.513897    39A      0.556321    40A      0.584104
      41A      0.584618    42A      0.597562    43A      0.598063
      44A      0.610023    45A      0.628127    46A      0.631913
      47A      0.639293    48A      0.639809    49A      0.666900
      50A      0.667056    51A      0.686377    52A      0.686597
      53A      0.757516    54A      0.830455    55A      0.830694
      56A      0.855269    57A      0.922664    58A      0.923319
      59A      0.945947    60A      0.953545    61A      0.966420
      62A      0.966800    63A      1.008693    64A      1.131710
      65A      1.132540    66A      1.155602    67A      1.167923
      68A      1.168777    69A      1.232301    70A      1.279657
      71A      1.280509    72A      1.285118    73A      1.329226
      74A      1.329460    75A      1.365377    76A      1.371103
      77A      1.371527    78A      1.393496    79A      1.407004
      80A      1.408004    81A      1.421676    82A      1.422619
      83A      1.428225    84A      1.492546    85A      1.509502
      86A      1.547162    87A      1.547341    88A      1.581747
      89A      1.582900    90A      1.674674    91A      1.744958
      92A      1.745398    93A      1.779104    94A      1.834751
      95A      1.835752    96A      1.972585    97A      2.024889
      98A      2.026015    99A      2.039672   100A      2.058661
     101A      2.060073   102A      2.746554   103A      2.747094
     104A      2.811838   105A      2.816063   106A      2.902125
     107A      2.903146   108A      2.924650   109A      2.931443
     110A      2.932515   111A      2.960054   112A      2.968688
     113A      2.969163   114A      3.041930   115A      3.080388
     116A      3.082014   117A      3.086166   118A      3.184310
     119A      3.184582   120A      3.188455   121A      3.289813
     122A      3.290409   123A      3.330016   124A      3.331915
     125A      3.383424   126A      3.491698   127A      3.494045
     128A      3.512389   129A      3.528387   130A      3.574879
     131A      3.581603   132A      3.581986   133A      3.670658
     134A      3.671574   135A      3.692956   136A      3.725305
     137A      3.726189   138A      3.780604   139A      3.782050
     140A      3.817722   141A      3.921568   142A      3.922532
     143A      4.045316   144A      4.117889   145A      4.118471
     146A      4.154375   147A      4.156260   148A      4.187320
     149A      4.208206   150A      4.209478   151A      4.210956
     152A      4.215347   153A      4.322783   154A      4.324034
     155A      4.362344   156A      4.432569   157A      4.432773
     158A      4.446310   159A      4.523989   160A      4.525245
     161A      4.588519   162A      4.588921   163A      4.625096
     164A      4.719759   165A      4.780710   166A      4.782431
     167A      4.839818   168A      4.967618   169A      5.006438
     170A      5.007606   171A      5.233782   172A      5.248059
     173A      5.249147   174A      5.361406   175A      5.362574
     176A      5.481666

    Final Occupation by Irrep:
              A
    DOCC [    16 ]
    SOCC [     1 ]

  @DF-UKS Final Energy:  -157.81305898036970

   => Energetics <=

    Nuclear Repulsion Energy =            125.3946963837535691
    One-Electron Energy =                -458.7490247075835441
    Two-Electron Energy =                 195.8484160076487797
    DFT Exchange-Correlation Energy =     -20.3071466641885010
    Empirical Dispersion Energy =           0.0000000000000000
    VV10 Nonlocal Energy =                  0.0000000000000000
    Total Energy =                       -157.8130589803697035

  UHF NO Occupations:
  HONO-2 :   15  A 1.9996008
  HONO-1 :   16  A 1.9989805
  HONO-0 :   17  A 1.0000000
  LUNO+0 :   18  A 0.0010195
  LUNO+1 :   19  A 0.0003992
  LUNO+2 :   20  A 0.0001986
  LUNO+3 :   21  A 0.0001965

Computation Completed

Properties will be evaluated at   0.000000,   0.000000,   0.000000 [a0]

Properties computed using the SCF density matrix

  Nuclear Dipole Moment: [e a0]
     X:     0.8272      Y:    -0.0003      Z:    -0.0096

  Electronic Dipole Moment: [e a0]
     X:    -0.7493      Y:     0.0011      Z:     0.0108

  Dipole Moment: [e a0]
     X:     0.0779      Y:     0.0008      Z:     0.0012     Total:     0.0779

  Dipole Moment: [D]
     X:     0.1980      Y:     0.0019      Z:     0.0031     Total:     0.1981

*** tstop() called on n071 at Fri Nov  5 13:58:19 2021
Module time:
	user time   =     573.37 seconds =       9.56 minutes
	system time =      13.44 seconds =       0.22 minutes
	total time  =        148 seconds =       2.47 minutes
Total time:
	user time   =     573.37 seconds =       9.56 minutes
	system time =      13.44 seconds =       0.22 minutes
	total time  =        148 seconds =       2.47 minutes
Grab this energy -157.8130589803697
    Psi4 stopped on: Friday, 05 November 2021 01:58PM
    Psi4 wall time for execution: 0:02:27.89

*** Psi4 exiting successfully. Buy a developer a beer!
