                               Psi4 1.4a2.dev629

  ==> Input File <==

--------------------------------------------------------------------------
import os
memory 14 GB

molecule {
 C   -0.3223159514   -0.0002468009    0.0000000000
 C    0.0616447390   -1.4007187782   -2.4263653858
 C    0.0631909201    2.8014834989   -0.0000000000
 C    0.0616447390   -1.4007187782    2.4263653858
 H    2.0820018029   -1.6409768106   -2.8452440218
 H   -0.7661034349   -0.3881412230   -4.0291629743
 H   -0.7645966527   -3.2948592112   -2.3481329186
 H    2.0867219183    3.2937737540   -0.0000000000
 H   -0.7630488361    3.6771786403    1.6787356634
 H   -0.7630488361    3.6771786403   -1.6787356634
 H    2.0820018029   -1.6409768106    2.8452440218
 H   -0.7645966527   -3.2948592112    2.3481329187
 H   -0.7661034349   -0.3881412230    4.0291629743
units bohr
0 2
}

basis {

assign 6-31g_2dfp_

[ 6-31g_2dfp_ ]

spherical

!----------------------------------------------------------------------
! Basis Set Exchange
! Version v0.8.13
! https://www.basissetexchange.org
!----------------------------------------------------------------------
!   Basis set: 6-31G(2df,p)
! Description: 6-31G(2df,p)
!        Role: orbital
!     Version: 0  (Data from the original Basis Set Exchange)
!----------------------------------------------------------------------

****
H     0
S    3   1.00
     18.7311370              0.03349460
      2.8253937              0.23472695
      0.6401217              0.81375733
S    1   1.00
      0.1612778              1.00000000
P    1   1.00
      1.5000000              1.0000000
P    1   1.00
      0.3750000              1.0000000
****
B     0
S    6   1.00
   2068.8823000              0.0018663
    310.6495700              0.0142515
     70.6830330              0.0695516
     19.8610800              0.2325729
      6.2993048              0.4670787
      2.1270270              0.3634314
SP   3   1.00
      4.7279710             -0.1303938              0.0745976
      1.1903377             -0.1307889              0.3078467
      0.3594117              1.1309444              0.7434568
SP   1   1.00
      0.1267512              1.0000000              1.0000000
D    1   1.00
      0.8020000              1.0000000
D    1   1.00
      0.2005000              1.0000000
F    1   1.00
      0.5000000              1.0000000
****
C     0
S    6   1.00
   3047.5249000              0.0018347
    457.3695100              0.0140373
    103.9486900              0.0688426
     29.2101550              0.2321844
      9.2866630              0.4679413
      3.1639270              0.3623120
SP   3   1.00
      7.8682724             -0.1193324              0.0689991
      1.8812885             -0.1608542              0.3164240
      0.5442493              1.1434564              0.7443083
SP   1   1.00
      0.1687144              1.0000000              1.0000000
D    1   1.00
      1.2520000              1.0000000
D    1   1.00
      0.3130000              1.0000000
F    1   1.00
      0.8000000              1.0000000
****
N     0
S    6   1.00
   4173.5110000              0.0018348
    627.4579000              0.0139950
    142.9021000              0.0685870
     40.2343300              0.2322410
     12.8202100              0.4690700
      4.3904370              0.3604550
SP   3   1.00
     11.6263580             -0.1149610              0.0675800
      2.7162800             -0.1691180              0.3239070
      0.7722180              1.1458520              0.7408950
SP   1   1.00
      0.2120313              1.0000000              1.0000000
D    1   1.00
      1.8260000              1.0000000
D    1   1.00
      0.4565000              1.0000000
F    1   1.00
      1.0000000              1.0000000
****
O     0
S    6   1.00
   5484.6717000              0.0018311
    825.2349500              0.0139501
    188.0469600              0.0684451
     52.9645000              0.2327143
     16.8975700              0.4701930
      5.7996353              0.3585209
SP   3   1.00
     15.5396160             -0.1107775              0.0708743
      3.5999336             -0.1480263              0.3397528
      1.0137618              1.1307670              0.7271586
SP   1   1.00
      0.2700058              1.0000000              1.0000000
D    1   1.00
      2.5840000              1.0000000
D    1   1.00
      0.6460000              1.0000000
F    1   1.00
      1.4000000              1.0000000
****
F     0
S    6   1.00
   7001.7130900              0.0018196169
   1051.3660900              0.0139160796
    239.2856900              0.0684053245
     67.3974453              0.233185760
     21.5199573              0.471267439
      7.40310130             0.356618546
SP   3   1.00
     20.8479528             -0.108506975            0.0716287243
      4.80830834            -0.146451658            0.3459121030
      1.34406986             1.128688580            0.7224699570
SP   1   1.00
      0.358151393            1.0000000              1.0000000
D    1   1.00
      3.5000000              1.0000000
D    1   1.00
      0.8750000              1.0000000
F    1   1.00
      1.8500000              1.0000000
****
Al     0
S    6   1.00
  13983.1000000              0.00194267
   2098.7500000              0.0148599
    477.7050000              0.0728494
    134.3600000              0.2468300
     42.8709000              0.4872580
     14.5189000              0.3234960
SP   6   1.00
    239.6680000             -0.00292619             0.00460285
     57.4419000             -0.0374080              0.0331990
     18.2859000             -0.1144870              0.1362820
      6.5991400              0.1156350              0.3304760
      2.4904900              0.6125950              0.4491460
      0.9445400              0.3937990              0.2657040
SP   3   1.00
      1.2779000             -0.2276060             -0.0175130
      0.3975900              0.00144583             0.2445330
      0.1600950              1.0927900              0.8049340
SP   1   1.00
      0.0556577              1.0000000              1.0000000
D    1   1.00
      0.6500000              1.0000000
D    1   1.00
      0.1625000              1.0000000
F    1   1.00
      0.2500000              1.0000000
****
Si     0
S    6   1.00
  16115.9000000              0.00195948
   2425.5800000              0.01492880
    553.8670000              0.07284780
    156.3400000              0.24613000
     50.0683000              0.48591400
     17.0178000              0.32500200
SP   6   1.00
    292.7180000             -0.00278094             0.00443826
     69.8731000             -0.03571460             0.03266790
     22.3363000             -0.11498500             0.13472100
      8.1503900              0.09356340             0.32867800
      3.1345800              0.60301700             0.44964000
      1.2254300              0.41895900             0.26137200
SP   3   1.00
      1.7273800             -0.24463000            -0.01779510
      0.5729220              0.00431572             0.25353900
      0.2221920              1.09818000             0.80066900
SP   1   1.00
      0.0778369              1.00000000             1.00000000
D    1   1.00
      0.9000000              1.0000000
D    1   1.00
      0.2250000              1.0000000
F    1   1.00
      0.3200000              1.0000000
****
P     0
S    6   1.00
  19413.3000000              0.0018516
   2909.4200000              0.0142062
    661.3640000              0.0699995
    185.7590000              0.2400790
     59.1943000              0.4847620
     20.0310000              0.3352000
SP   6   1.00
    339.4780000             -0.00278217             0.00456462
     81.0101000             -0.0360499              0.03369360
     25.8780000             -0.1166310              0.13975500
      9.4522100              0.0968328              0.33936200
      3.6656600              0.6144180              0.45092100
      1.4674600              0.4037980              0.23858600
SP   3   1.00
      2.1562300             -0.2529230             -0.01776530
      0.7489970              0.0328517              0.27405800
      0.2831450              1.0812500              0.78542100
SP   1   1.00
      0.0998317              1.0000000              1.00000000
D    1   1.00
      1.1000000              1.0000000
D    1   1.00
      0.2750000              1.0000000
F    1   1.00
      0.4500000              1.0000000
****
S     0
S    6   1.00
  21917.1000000              0.0018690
   3301.4900000              0.0142300
    754.1460000              0.0696960
    212.7110000              0.2384870
     67.9896000              0.4833070
     23.0515000              0.3380740
SP   6   1.00
    423.7350000             -0.0023767              0.0040610
    100.7100000             -0.0316930              0.0306810
     32.1599000             -0.1133170              0.1304520
     11.8079000              0.0560900              0.3272050
      4.6311000              0.5922550              0.4528510
      1.8702500              0.4550060              0.2560420
SP   3   1.00
      2.6158400             -0.2503740             -0.0145110
      0.9221670              0.0669570              0.3102630
      0.3412870              1.0545100              0.7544830
SP   1   1.00
      0.1171670              1.0000000              1.0000000
D    1   1.00
      1.3000000              1.0000000
D    1   1.00
      0.3250000              1.0000000
F    1   1.00
      0.5500000              1.0000000
****
Cl     0
S    6   1.00
  25180.1000000              0.0018330
   3780.3500000              0.0140340
    860.4740000              0.0690970
    242.1450000              0.2374520
     77.3349000              0.4830340
     26.2470000              0.3398560
SP   6   1.00
    491.7650000             -0.0022974              0.0039894
    116.9840000             -0.0307140              0.0303180
     37.4153000             -0.1125280              0.1298800
     13.7834000              0.0450160              0.3279510
      5.4521500              0.5893530              0.4535270
      2.2258800              0.4652060              0.2521540
SP   3   1.00
      3.1864900             -0.2518300             -0.0142990
      1.1442700              0.0615890              0.3235720
      0.4203770              1.0601800              0.7435070
SP   1   1.00
      0.1426570              1.0000000              1.0000000
D    1   1.00
      1.5000000              1.0000000
D    1   1.00
      0.3750000              1.0000000
F    1   1.00
      0.7000000              1.0000000
****
}

set {
reference uhf
freeze_core true
e_convergence 10
d_convergence 10
dft_spherical_points 1202
dft_radial_points 99
}

e = energy('b3lyp')

print_out('Grab this energy {0}'.format(e))
--------------------------------------------------------------------------

    Molecular point group: cs

    Geometry (in Bohr), charge = 0, multiplicity = 2:

       Center              X                  Y                   Z               Mass
    ------------   -----------------  -----------------  -----------------  -----------------
         C           -0.323125755200    -0.000207684767     0.000000000000    12.000000000000
         C            0.060834935200    -1.400679662067    -2.426365385800    12.000000000000
         C            0.062381116300     2.801522615033     0.000000000000    12.000000000000
         C            0.060834935200    -1.400679662067     2.426365385800    12.000000000000
         H            2.081191999100    -1.640937694467    -2.845244021800     1.007825032230
         H           -0.766913238700    -0.388102106867    -4.029162974300     1.007825032230
         H           -0.765406456500    -3.294820095067    -2.348132918650     1.007825032230
         H            2.085912114500     3.293812870133     0.000000000000     1.007825032230
         H           -0.763858639900     3.677217756433     1.678735663400     1.007825032230
         H           -0.763858639900     3.677217756433    -1.678735663400     1.007825032230
         H            2.081191999100    -1.640937694467     2.845244021800     1.007825032230
         H           -0.765406456500    -3.294820095067     2.348132918650     1.007825032230
         H           -0.766913238700    -0.388102106867     4.029162974300     1.007825032230

  Charge       = 0
  Multiplicity = 2
  Basis Set: ANONYMOUSC5698A8F
    Blend: 6-31G_2DFP_
  Basis Set: (ANONYMOUSC5698A8F AUX)
    Blend: DEF2-UNIVERSAL-JKFIT

    Orbital Energies [Eh]
    ---------------------

    Alpha Occupied:

       1Ap   -10.180284     1App  -10.167043     2Ap   -10.167023
       3Ap   -10.166968     4Ap    -0.797804     2App   -0.686224
       5Ap    -0.686164     6Ap    -0.530787     7Ap    -0.441221
       3App   -0.434715     8Ap    -0.434543     4App   -0.382959
       9Ap    -0.382509     5App   -0.363432     6App   -0.338099
      10Ap    -0.337792    11Ap    -0.168924

    Alpha Virtual:

      12Ap     0.075987    13Ap     0.134098     7App    0.134195
      14Ap     0.142359     8App    0.142765    15Ap     0.155046
      16Ap     0.178813     9App    0.179096    17Ap     0.203592
      10App    0.214528    18Ap     0.275991    11App    0.276030
      12App    0.399225    19Ap     0.399470    20Ap     0.403428
      13App    0.423806    21Ap     0.424012    22Ap     0.456671
      14App    0.495200    23Ap     0.495221    15App    0.512280
      24Ap     0.514135    16App    0.578849    25Ap     0.579101
      26Ap     0.591622    17App    0.592168    27Ap     0.603352
      28Ap     0.624262    18App    0.631364    29Ap     0.635658
      19App    0.636117    20App    0.663873    30Ap     0.663945
      21App    0.683492    31Ap     0.683716    32Ap     0.734932
      33Ap     0.825379    22App    0.825497    23App    0.854195
      34Ap     0.914929    24App    0.915564    25App    0.943824
      35Ap     0.944470    36Ap     0.961327    26App    0.961482
      37Ap     1.003638    27App    1.127465    38Ap     1.128256
      39Ap     1.142924    28App    1.162848    40Ap     1.163170
      41Ap     1.222912    29App    1.274630    42Ap     1.274821
      43Ap     1.279531    44Ap     1.324491    30App    1.324635
      45Ap     1.355438    31App    1.366100    46Ap     1.366146
      32App    1.392498    47Ap     1.404594    33App    1.405533
      48Ap     1.415789    34App    1.416487    35App    1.428137
      36App    1.491521    49Ap     1.500014    37App    1.543192
      50Ap     1.543231    51Ap     1.573587    38App    1.574574
      52Ap     1.668564    53Ap     1.740156    39App    1.740370
      54Ap     1.770181    40App    1.829571    55Ap     1.830433
      41App    1.970703    56Ap     2.018397    57Ap     2.018864
      42App    2.019023    58Ap     2.053546    43App    2.054482
      59Ap     2.738159    44App    2.738180    60Ap     2.791320
      45App    2.810972    46App    2.890173    61Ap     2.890457
      62Ap     2.895310    63Ap     2.928979    47App    2.929597
      48App    2.959128    49App    2.964638    64Ap     2.964977
      65Ap     3.034704    66Ap     3.070684    50App    3.071952
      51App    3.082956    52App    3.168686    67Ap     3.169135
      68Ap     3.180634    53App    3.285295    69Ap     3.285531
      54App    3.325664    70Ap     3.327410    71Ap     3.375437
      72Ap     3.489336    55App    3.491453    56App    3.515221
      73Ap     3.524149    57App    3.568568    74Ap     3.568874
      58App    3.576117    75Ap     3.666285    59App    3.667215
      76Ap     3.679054    77Ap     3.693279    60App    3.694584
      61App    3.776326    78Ap     3.776435    79Ap     3.789956
      62App    3.911551    80Ap     3.911797    81Ap     4.033978
      82Ap     4.111280    63App    4.111520    83Ap     4.148645
      64App    4.148723    84Ap     4.174918    65App    4.201914
      85Ap     4.202107    86Ap     4.203274    66App    4.211971
      87Ap     4.316250    67App    4.316612    68App    4.357765
      88Ap     4.425121    69App    4.425276    70App    4.443181
      89Ap     4.516817    71App    4.518153    72App    4.577561
      90Ap     4.577632    91Ap     4.617677    92Ap     4.709955
      93Ap     4.773906    73App    4.775082    74App    4.835546
      94Ap     4.962561    95Ap     5.003718    75App    5.004797
      96Ap     5.230820    97Ap     5.243271    76App    5.244353
      77App    5.357479    98Ap     5.357526    78App    5.477398

    Beta Occupied:

       1App  -10.167793     1Ap   -10.167779     2Ap   -10.167737
       3Ap   -10.166456     4Ap    -0.781123     2App   -0.684010
       5Ap    -0.683960     6Ap    -0.511709     3App   -0.431072
       7Ap    -0.430878     8Ap    -0.421978     4App   -0.377075
       9Ap    -0.376613     5App   -0.362407     6App   -0.333214
      10Ap    -0.332930

    Beta Virtual:

      11Ap    -0.025616    12Ap     0.076980    13Ap     0.134927
       7App    0.135013    14Ap     0.144276     8App    0.144635
      15Ap     0.163485    16Ap     0.182509     9App    0.182800
      10App    0.214765    17Ap     0.218975    18Ap     0.282329
      11App    0.282378    12App    0.400395    19Ap     0.400633
      20Ap     0.419779    13App    0.426616    21Ap     0.426825
      22Ap     0.468678    14App    0.497450    23Ap     0.497475
      15App    0.514007    24Ap     0.556517    16App    0.584366
      25Ap     0.584630    26Ap     0.597809    17App    0.598360
      27Ap     0.610631    28Ap     0.627780    18App    0.631530
      29Ap     0.638986    19App    0.639429    20App    0.667398
      30Ap     0.667487    21App    0.686155    31Ap     0.686347
      32Ap     0.757459    33Ap     0.830529    22App    0.830641
      23App    0.855540    34Ap     0.922909    24App    0.923491
      25App    0.945670    35Ap     0.953346    36Ap     0.966682
      26App    0.966808    37Ap     1.008918    27App    1.131501
      38Ap     1.132202    39Ap     1.156215    28App    1.167911
      40Ap     1.168308    41Ap     1.231900    29App    1.280263
      42Ap     1.280429    43Ap     1.285340    44Ap     1.329427
      30App    1.329583    45Ap     1.364862    31App    1.371260
      46Ap     1.371350    32App    1.393540    47Ap     1.408106
      33App    1.409049    48Ap     1.420882    34App    1.421563
      35App    1.428408    36App    1.492595    49Ap     1.510446
      37App    1.547469    50Ap     1.547712    51Ap     1.581386
      38App    1.582550    52Ap     1.673361    53Ap     1.745928
      39App    1.746133    54Ap     1.780972    40App    1.833429
      55Ap     1.834283    41App    1.971577    56Ap     2.025428
      42App    2.025545    57Ap     2.039774    58Ap     2.060129
      43App    2.061087    59Ap     2.746474    44App    2.746519
      45App    2.811382    60Ap     2.816494    46App    2.902862
      61Ap     2.903224    62Ap     2.925184    63Ap     2.931475
      47App    2.932063    48App    2.960198    49App    2.969213
      64Ap     2.969556    65Ap     3.042427    66Ap     3.080562
      50App    3.081918    51App    3.084774    52App    3.184420
      67Ap     3.184876    68Ap     3.188323    53App    3.290026
      69Ap     3.290336    54App    3.329516    70Ap     3.331241
      71Ap     3.383281    72Ap     3.492129    55App    3.494201
      56App    3.513587    73Ap     3.527208    57App    3.575715
      74Ap     3.581824    58App    3.582216    75Ap     3.671152
      59App    3.672046    76Ap     3.692365    77Ap     3.725166
      60App    3.725967    61App    3.780947    78Ap     3.781008
      79Ap     3.818460    62App    3.921305    80Ap     3.921561
      81Ap     4.044804    82Ap     4.118119    63App    4.118307
      83Ap     4.155781    64App    4.156018    84Ap     4.188949
      65App    4.207740    85Ap     4.208266    86Ap     4.210973
      66App    4.216322    87Ap     4.323779    67App    4.324085
      68App    4.361170    88Ap     4.433326    69App    4.433503
      70App    4.446112    89Ap     4.524582    71App    4.525899
      72App    4.588189    90Ap     4.588290    91Ap     4.624964
      92Ap     4.720180    93Ap     4.780881    73App    4.782115
      74App    4.838475    94Ap     4.967345    95Ap     5.007747
      75App    5.008795    96Ap     5.236570    97Ap     5.245071
      76App    5.246149    77App    5.363993    98Ap     5.364026
      78App    5.479732

    Final Occupation by Irrep:
             Ap   App
    DOCC [    10,    6 ]
    SOCC [     1,    0 ]

  @DF-UKS Final Energy:  -157.81305373298400

   => Energetics <=

    Nuclear Repulsion Energy =            125.4000177024446288
    One-Electron Energy =                -458.7596733822221040
    Two-Electron Energy =                 195.8538598466494136
    DFT Exchange-Correlation Energy =     -20.3072578998559585
    Empirical Dispersion Energy =           0.0000000000000000
    VV10 Nonlocal Energy =                  0.0000000000000000
    Total Energy =                       -157.8130537329840024

  UHF NO Occupations:
  HONO-2 :    9 Ap 1.9996032
  HONO-1 :   10 Ap 1.9989813
  HONO-0 :   11 Ap 1.0000000
  LUNO+0 :   12 Ap 0.0010187
  LUNO+1 :   13 Ap 0.0003968
  LUNO+2 :   14 Ap 0.0001977
  LUNO+3 :    7App 0.0001974

Computation Completed

Properties will be evaluated at   0.000000,   0.000000,   0.000000 [a0]

Properties computed using the SCF density matrix

  Nuclear Dipole Moment: [e a0]
     X:     0.8215      Y:     0.0003      Z:    -0.0000

  Electronic Dipole Moment: [e a0]
     X:    -0.7404      Y:    -0.0010      Z:     0.0000

  Dipole Moment: [e a0]
     X:     0.0811      Y:    -0.0008      Z:    -0.0000     Total:     0.0811

  Dipole Moment: [D]
     X:     0.2061      Y:    -0.0019      Z:    -0.0000     Total:     0.2061

*** tstop() called on n089 at Fri Nov  5 14:49:26 2021
Module time:
	user time   =     507.77 seconds =       8.46 minutes
	system time =       4.64 seconds =       0.08 minutes
	total time  =        129 seconds =       2.15 minutes
Total time:
	user time   =     507.77 seconds =       8.46 minutes
	system time =       4.64 seconds =       0.08 minutes
	total time  =        129 seconds =       2.15 minutes
Grab this energy -157.813053732984
    Psi4 stopped on: Friday, 05 November 2021 02:49PM
    Psi4 wall time for execution: 0:02:08.86

*** Psi4 exiting successfully. Buy a developer a beer!
