                               Psi4 1.4a2.dev629

  ==> Input File <==

--------------------------------------------------------------------------
import os
memory 14 GB

molecule {
 C   -0.3251189918   -0.0000022361    0.0000017736
 C    0.0605836588   -1.4009666403   -2.4266275185
 C    0.0604634022    2.8020169996    0.0000477197
 C    0.0605826699   -1.4010461288    2.4265798022
 H    2.0872516377   -1.6370467332   -2.8445450470
 H   -0.7689972237   -0.3921682929   -4.0271950918
 H   -0.7611380986   -3.2947377337   -2.3508730450
 H    2.0871113134    3.2820700284    0.0046548129
 H   -0.7692341166    3.6837133956    1.6739423621
 H   -0.7612216434    3.6832505607   -1.6779250452
 H    2.0872479814   -1.6451157914    2.8398874815
 H   -0.7691615285   -3.2915088745    2.3532605003
 H   -0.7609769374   -0.3884828670    4.0287912952
units bohr
0 2
}

basis {

assign 6-31g_2dfp_

[ 6-31g_2dfp_ ]

spherical

!----------------------------------------------------------------------
! Basis Set Exchange
! Version v0.8.13
! https://www.basissetexchange.org
!----------------------------------------------------------------------
!   Basis set: 6-31G(2df,p)
! Description: 6-31G(2df,p)
!        Role: orbital
!     Version: 0  (Data from the original Basis Set Exchange)
!----------------------------------------------------------------------

****
H     0
S    3   1.00
     18.7311370              0.03349460
      2.8253937              0.23472695
      0.6401217              0.81375733
S    1   1.00
      0.1612778              1.00000000
P    1   1.00
      1.5000000              1.0000000
P    1   1.00
      0.3750000              1.0000000
****
B     0
S    6   1.00
   2068.8823000              0.0018663
    310.6495700              0.0142515
     70.6830330              0.0695516
     19.8610800              0.2325729
      6.2993048              0.4670787
      2.1270270              0.3634314
SP   3   1.00
      4.7279710             -0.1303938              0.0745976
      1.1903377             -0.1307889              0.3078467
      0.3594117              1.1309444              0.7434568
SP   1   1.00
      0.1267512              1.0000000              1.0000000
D    1   1.00
      0.8020000              1.0000000
D    1   1.00
      0.2005000              1.0000000
F    1   1.00
      0.5000000              1.0000000
****
C     0
S    6   1.00
   3047.5249000              0.0018347
    457.3695100              0.0140373
    103.9486900              0.0688426
     29.2101550              0.2321844
      9.2866630              0.4679413
      3.1639270              0.3623120
SP   3   1.00
      7.8682724             -0.1193324              0.0689991
      1.8812885             -0.1608542              0.3164240
      0.5442493              1.1434564              0.7443083
SP   1   1.00
      0.1687144              1.0000000              1.0000000
D    1   1.00
      1.2520000              1.0000000
D    1   1.00
      0.3130000              1.0000000
F    1   1.00
      0.8000000              1.0000000
****
N     0
S    6   1.00
   4173.5110000              0.0018348
    627.4579000              0.0139950
    142.9021000              0.0685870
     40.2343300              0.2322410
     12.8202100              0.4690700
      4.3904370              0.3604550
SP   3   1.00
     11.6263580             -0.1149610              0.0675800
      2.7162800             -0.1691180              0.3239070
      0.7722180              1.1458520              0.7408950
SP   1   1.00
      0.2120313              1.0000000              1.0000000
D    1   1.00
      1.8260000              1.0000000
D    1   1.00
      0.4565000              1.0000000
F    1   1.00
      1.0000000              1.0000000
****
O     0
S    6   1.00
   5484.6717000              0.0018311
    825.2349500              0.0139501
    188.0469600              0.0684451
     52.9645000              0.2327143
     16.8975700              0.4701930
      5.7996353              0.3585209
SP   3   1.00
     15.5396160             -0.1107775              0.0708743
      3.5999336             -0.1480263              0.3397528
      1.0137618              1.1307670              0.7271586
SP   1   1.00
      0.2700058              1.0000000              1.0000000
D    1   1.00
      2.5840000              1.0000000
D    1   1.00
      0.6460000              1.0000000
F    1   1.00
      1.4000000              1.0000000
****
F     0
S    6   1.00
   7001.7130900              0.0018196169
   1051.3660900              0.0139160796
    239.2856900              0.0684053245
     67.3974453              0.233185760
     21.5199573              0.471267439
      7.40310130             0.356618546
SP   3   1.00
     20.8479528             -0.108506975            0.0716287243
      4.80830834            -0.146451658            0.3459121030
      1.34406986             1.128688580            0.7224699570
SP   1   1.00
      0.358151393            1.0000000              1.0000000
D    1   1.00
      3.5000000              1.0000000
D    1   1.00
      0.8750000              1.0000000
F    1   1.00
      1.8500000              1.0000000
****
Al     0
S    6   1.00
  13983.1000000              0.00194267
   2098.7500000              0.0148599
    477.7050000              0.0728494
    134.3600000              0.2468300
     42.8709000              0.4872580
     14.5189000              0.3234960
SP   6   1.00
    239.6680000             -0.00292619             0.00460285
     57.4419000             -0.0374080              0.0331990
     18.2859000             -0.1144870              0.1362820
      6.5991400              0.1156350              0.3304760
      2.4904900              0.6125950              0.4491460
      0.9445400              0.3937990              0.2657040
SP   3   1.00
      1.2779000             -0.2276060             -0.0175130
      0.3975900              0.00144583             0.2445330
      0.1600950              1.0927900              0.8049340
SP   1   1.00
      0.0556577              1.0000000              1.0000000
D    1   1.00
      0.6500000              1.0000000
D    1   1.00
      0.1625000              1.0000000
F    1   1.00
      0.2500000              1.0000000
****
Si     0
S    6   1.00
  16115.9000000              0.00195948
   2425.5800000              0.01492880
    553.8670000              0.07284780
    156.3400000              0.24613000
     50.0683000              0.48591400
     17.0178000              0.32500200
SP   6   1.00
    292.7180000             -0.00278094             0.00443826
     69.8731000             -0.03571460             0.03266790
     22.3363000             -0.11498500             0.13472100
      8.1503900              0.09356340             0.32867800
      3.1345800              0.60301700             0.44964000
      1.2254300              0.41895900             0.26137200
SP   3   1.00
      1.7273800             -0.24463000            -0.01779510
      0.5729220              0.00431572             0.25353900
      0.2221920              1.09818000             0.80066900
SP   1   1.00
      0.0778369              1.00000000             1.00000000
D    1   1.00
      0.9000000              1.0000000
D    1   1.00
      0.2250000              1.0000000
F    1   1.00
      0.3200000              1.0000000
****
P     0
S    6   1.00
  19413.3000000              0.0018516
   2909.4200000              0.0142062
    661.3640000              0.0699995
    185.7590000              0.2400790
     59.1943000              0.4847620
     20.0310000              0.3352000
SP   6   1.00
    339.4780000             -0.00278217             0.00456462
     81.0101000             -0.0360499              0.03369360
     25.8780000             -0.1166310              0.13975500
      9.4522100              0.0968328              0.33936200
      3.6656600              0.6144180              0.45092100
      1.4674600              0.4037980              0.23858600
SP   3   1.00
      2.1562300             -0.2529230             -0.01776530
      0.7489970              0.0328517              0.27405800
      0.2831450              1.0812500              0.78542100
SP   1   1.00
      0.0998317              1.0000000              1.00000000
D    1   1.00
      1.1000000              1.0000000
D    1   1.00
      0.2750000              1.0000000
F    1   1.00
      0.4500000              1.0000000
****
S     0
S    6   1.00
  21917.1000000              0.0018690
   3301.4900000              0.0142300
    754.1460000              0.0696960
    212.7110000              0.2384870
     67.9896000              0.4833070
     23.0515000              0.3380740
SP   6   1.00
    423.7350000             -0.0023767              0.0040610
    100.7100000             -0.0316930              0.0306810
     32.1599000             -0.1133170              0.1304520
     11.8079000              0.0560900              0.3272050
      4.6311000              0.5922550              0.4528510
      1.8702500              0.4550060              0.2560420
SP   3   1.00
      2.6158400             -0.2503740             -0.0145110
      0.9221670              0.0669570              0.3102630
      0.3412870              1.0545100              0.7544830
SP   1   1.00
      0.1171670              1.0000000              1.0000000
D    1   1.00
      1.3000000              1.0000000
D    1   1.00
      0.3250000              1.0000000
F    1   1.00
      0.5500000              1.0000000
****
Cl     0
S    6   1.00
  25180.1000000              0.0018330
   3780.3500000              0.0140340
    860.4740000              0.0690970
    242.1450000              0.2374520
     77.3349000              0.4830340
     26.2470000              0.3398560
SP   6   1.00
    491.7650000             -0.0022974              0.0039894
    116.9840000             -0.0307140              0.0303180
     37.4153000             -0.1125280              0.1298800
     13.7834000              0.0450160              0.3279510
      5.4521500              0.5893530              0.4535270
      2.2258800              0.4652060              0.2521540
SP   3   1.00
      3.1864900             -0.2518300             -0.0142990
      1.1442700              0.0615890              0.3235720
      0.4203770              1.0601800              0.7435070
SP   1   1.00
      0.1426570              1.0000000              1.0000000
D    1   1.00
      1.5000000              1.0000000
D    1   1.00
      0.3750000              1.0000000
F    1   1.00
      0.7000000              1.0000000
****
}

set {
reference uhf
freeze_core true
e_convergence 10
d_convergence 10
dft_spherical_points 1202
dft_radial_points 99
}

e = energy('b3lyp')

print_out('Grab this energy {0}'.format(e))
--------------------------------------------------------------------------

    Molecular point group: c1

    Geometry (in Bohr), charge = 0, multiplicity = 2:

       Center              X                  Y                   Z               Mass
    ------------   -----------------  -----------------  -----------------  -----------------
         C           -0.324454636390    -0.000002190874     0.000001431337    12.000000000000
         C            0.061248014210    -1.400966595074    -2.426627860763    12.000000000000
         C            0.061127757610     2.802017044826     0.000047377437    12.000000000000
         C            0.061247025310    -1.401046083574     2.426579459937    12.000000000000
         H            2.087915993110    -1.637046687974    -2.844545389263     1.007825032230
         H           -0.768332868290    -0.392168247674    -4.027195434063     1.007825032230
         H           -0.760473743190    -3.294737688474    -2.350873387263     1.007825032230
         H            2.087775668810     3.282070073626     0.004654470637     1.007825032230
         H           -0.768569761190     3.683713440826     1.673942019837     1.007825032230
         H           -0.760557287990     3.683250605926    -1.677925387463     1.007825032230
         H            2.087912336810    -1.645115746174     2.839887139237     1.007825032230
         H           -0.768497173090    -3.291508829274     2.353260158037     1.007825032230
         H           -0.760312581990    -0.388482821774     4.028790952937     1.007825032230

  Charge       = 0
  Multiplicity = 2
  Basis Set: ANONYMOUS0801A6AE
    Blend: 6-31G_2DFP_
  Basis Set: (ANONYMOUS0801A6AE AUX)
    Blend: DEF2-UNIVERSAL-JKFIT

    Orbital Energies [Eh]
    ---------------------

    Alpha Occupied:

       1A    -10.180355     2A    -10.167077     3A    -10.167077
       4A    -10.167031     5A     -0.797702     6A     -0.686149
       7A     -0.686149     8A     -0.530764     9A     -0.441293
      10A     -0.434460    11A     -0.434459    12A     -0.382753
      13A     -0.382751    14A     -0.363473    15A     -0.337976
      16A     -0.337976    17A     -0.168871

    Alpha Virtual:

      18A      0.076037    19A      0.134205    20A      0.134206
      21A      0.142559    22A      0.142559    23A      0.154673
      24A      0.178815    25A      0.178815    26A      0.203414
      27A      0.214581    28A      0.275946    29A      0.275948
      30A      0.399001    31A      0.399005    32A      0.403419
      33A      0.424250    34A      0.424250    35A      0.456357
      36A      0.495412    37A      0.495413    38A      0.512334
      39A      0.513939    40A      0.578650    41A      0.578658
      42A      0.591835    43A      0.591836    44A      0.602800
      45A      0.624700    46A      0.631527    47A      0.636151
      48A      0.636155    49A      0.663135    50A      0.663136
      51A      0.683935    52A      0.683936    53A      0.734910
      54A      0.825505    55A      0.825508    56A      0.853573
      57A      0.914879    58A      0.914885    59A      0.943853
      60A      0.945450    61A      0.961567    62A      0.961584
      63A      1.002736    64A      1.127653    65A      1.127666
      66A      1.142812    67A      1.162712    68A      1.162725
      69A      1.223406    70A      1.274507    71A      1.274511
      72A      1.279138    73A      1.324077    74A      1.324080
      75A      1.356392    76A      1.365730    77A      1.365734
      78A      1.392660    79A      1.404320    80A      1.404322
      81A      1.417263    82A      1.417269    83A      1.427292
      84A      1.490870    85A      1.499415    86A      1.542762
      87A      1.542764    88A      1.575067    89A      1.575069
      90A      1.669763    91A      1.739550    92A      1.739561
      93A      1.768465    94A      1.831115    95A      1.831116
      96A      1.971629    97A      2.018198    98A      2.018202
      99A      2.018514   100A      2.052158   101A      2.052160
     102A      2.738903   103A      2.738904   104A      2.790692
     105A      2.810911   106A      2.889790   107A      2.889796
     108A      2.894694   109A      2.929035   110A      2.929043
     111A      2.958933   112A      2.964317   113A      2.964331
     114A      3.033528   115A      3.071752   116A      3.071765
     117A      3.084708   118A      3.168846   119A      3.168853
     120A      3.180427   121A      3.285718   122A      3.285718
     123A      3.326050   124A      3.326056   125A      3.375906
     126A      3.490645   127A      3.490665   128A      3.513722
     129A      3.525160   130A      3.567843   131A      3.567864
     132A      3.574339   133A      3.666436   134A      3.666444
     135A      3.678557   136A      3.694634   137A      3.694649
     138A      3.775633   139A      3.775659   140A      3.790433
     141A      3.912122   142A      3.912128   143A      4.035576
     144A      4.111251   145A      4.111255   146A      4.148355
     147A      4.148364   148A      4.173298   149A      4.202269
     150A      4.202272   151A      4.203040   152A      4.210350
     153A      4.315654   154A      4.315674   155A      4.357794
     156A      4.424962   157A      4.424964   158A      4.442437
     159A      4.516009   160A      4.516011   161A      4.577306
     162A      4.577318   163A      4.616994   164A      4.709160
     165A      4.774209   166A      4.774216   167A      4.837917
     168A      4.962345   169A      5.003058   170A      5.003070
     171A      5.227691   172A      5.246865   173A      5.246865
     174A      5.354917   175A      5.354931   176A      5.479082

    Beta Occupied:

       1A    -10.167829     2A    -10.167829     3A    -10.167803
       4A    -10.166527     5A     -0.781023     6A     -0.683954
       7A     -0.683953     8A     -0.511739     9A     -0.430839
      10A     -0.430839    11A     -0.421985    12A     -0.376848
      13A     -0.376847    14A     -0.362463    15A     -0.333095
      16A     -0.333095

    Beta Virtual:

      17A     -0.025576    18A      0.077049    19A      0.135080
      20A      0.135081    21A      0.144419    22A      0.144419
      23A      0.163083    24A      0.182493    25A      0.182493
      26A      0.214807    27A      0.218837    28A      0.282305
      29A      0.282307    30A      0.400165    31A      0.400169
      32A      0.419844    33A      0.427066    34A      0.427067
      35A      0.468187    36A      0.497658    37A      0.497659
      38A      0.514079    39A      0.556355    40A      0.584180
      41A      0.584188    42A      0.598039    43A      0.598040
      44A      0.610204    45A      0.628072    46A      0.631677
      47A      0.639444    48A      0.639449    49A      0.666675
      50A      0.666676    51A      0.686589    52A      0.686591
      53A      0.757469    54A      0.830658    55A      0.830660
      56A      0.854924    57A      0.922804    58A      0.922811
      59A      0.945723    60A      0.954265    61A      0.966900
      62A      0.966916    63A      1.007947    64A      1.131679
      65A      1.131691    66A      1.156411    67A      1.167792
      68A      1.167804    69A      1.232273    70A      1.280086
      71A      1.280090    72A      1.284825    73A      1.329028
      74A      1.329030    75A      1.365863    76A      1.370980
      77A      1.370984    78A      1.393707    79A      1.407770
      80A      1.407773    81A      1.422366    82A      1.422373
      83A      1.427556    84A      1.491941    85A      1.509870
      86A      1.547176    87A      1.547176    88A      1.582930
      89A      1.582930    90A      1.674607    91A      1.745309
      92A      1.745321    93A      1.779231    94A      1.834972
      95A      1.834973    96A      1.972481    97A      2.024572
      98A      2.024575    99A      2.039872   100A      2.058887
     101A      2.058888   102A      2.747228   103A      2.747229
     104A      2.811274   105A      2.815868   106A      2.902545
     107A      2.902551   108A      2.924418   109A      2.931499
     110A      2.931508   111A      2.959992   112A      2.968823
     113A      2.968838   114A      3.041471   115A      3.081676
     116A      3.081688   117A      3.086522   118A      3.184611
     119A      3.184615   120A      3.188082   121A      3.290540
     122A      3.290540   123A      3.329879   124A      3.329884
     125A      3.383751   126A      3.493309   127A      3.493328
     128A      3.512083   129A      3.528239   130A      3.574214
     131A      3.581240   132A      3.581262   133A      3.671274
     134A      3.671285   135A      3.691909   136A      3.726106
     137A      3.726122   138A      3.780095   139A      3.780121
     140A      3.818954   141A      3.921985   142A      3.921992
     143A      4.046410   144A      4.117978   145A      4.117980
     146A      4.155640   147A      4.155650   148A      4.187395
     149A      4.208242   150A      4.208245   151A      4.210963
     152A      4.214791   153A      4.323080   154A      4.323100
     155A      4.361133   156A      4.433172   157A      4.433175
     158A      4.445338   159A      4.523813   160A      4.523815
     161A      4.587886   162A      4.587898   163A      4.624263
     164A      4.719398   165A      4.781176   166A      4.781183
     167A      4.840831   168A      4.967142   169A      5.007081
     170A      5.007093   171A      5.233421   172A      5.248645
     173A      5.248646   174A      5.361396   175A      5.361410
     176A      5.481398

    Final Occupation by Irrep:
              A
    DOCC [    16 ]
    SOCC [     1 ]

  @DF-UKS Final Energy:  -157.81306326870077

   => Energetics <=

    Nuclear Repulsion Energy =            125.3829917817645878
    One-Electron Energy =                -458.7262000678965705
    Two-Electron Energy =                 195.8369415793169992
    DFT Exchange-Correlation Energy =     -20.3067965618857755
    Empirical Dispersion Energy =           0.0000000000000000
    VV10 Nonlocal Energy =                  0.0000000000000000
    Total Energy =                       -157.8130632687007733

  UHF NO Occupations:
  HONO-2 :   15  A 1.9996022
  HONO-1 :   16  A 1.9989785
  HONO-0 :   17  A 1.0000000
  LUNO+0 :   18  A 0.0010215
  LUNO+1 :   19  A 0.0003978
  LUNO+2 :   20  A 0.0001978
  LUNO+3 :   21  A 0.0001978

Computation Completed

Properties will be evaluated at   0.000000,   0.000000,   0.000000 [a0]

Properties computed using the SCF density matrix

  Nuclear Dipole Moment: [e a0]
     X:     0.8319      Y:    -0.0000      Z:    -0.0000

  Electronic Dipole Moment: [e a0]
     X:    -0.7535      Y:     0.0000      Z:     0.0000

  Dipole Moment: [e a0]
     X:     0.0783      Y:     0.0000      Z:    -0.0000     Total:     0.0783

  Dipole Moment: [D]
     X:     0.1991      Y:     0.0000      Z:    -0.0000     Total:     0.1991

*** tstop() called on n056 at Fri Nov  5 15:39:52 2021
Module time:
	user time   =     546.58 seconds =       9.11 minutes
	system time =      11.89 seconds =       0.20 minutes
	total time  =        140 seconds =       2.33 minutes
Total time:
	user time   =     546.58 seconds =       9.11 minutes
	system time =      11.89 seconds =       0.20 minutes
	total time  =        140 seconds =       2.33 minutes
Grab this energy -157.81306326870077
    Psi4 stopped on: Friday, 05 November 2021 03:39PM
    Psi4 wall time for execution: 0:02:20.42

*** Psi4 exiting successfully. Buy a developer a beer!
