                               Psi4 1.4a2.dev629

  ==> Input File <==

--------------------------------------------------------------------------
import os
memory 14 GB

molecule {
 C   -0.3215614420   -0.0000029820    0.0024279519
 C    0.0623877122   -1.4018339162   -2.4267855396
 C    0.0615781015    2.8015003588    0.0012511506
 C    0.0610088270   -1.3996643446    2.4255302042
 H    2.0888324999   -1.6453114815   -2.8528880568
 H   -0.7667624447   -0.3882734664   -4.0229366481
 H   -0.7625782680   -3.2941074359   -2.3486003107
 H    2.0864577067    3.2941331702   -0.0033527674
 H   -0.7616959506    3.6799229688    1.6803959116
 H   -0.7704069629    3.6741287436   -1.6737085690
 H    2.0843682688   -1.6489132836    2.8524414431
 H   -0.7693729229   -3.2876277117    2.3432281720
 H   -0.7648630016   -0.3839749331    4.0229970583
units bohr
0 2
}

basis {

assign 6-31g_2dfp_

[ 6-31g_2dfp_ ]

spherical

!----------------------------------------------------------------------
! Basis Set Exchange
! Version v0.8.13
! https://www.basissetexchange.org
!----------------------------------------------------------------------
!   Basis set: 6-31G(2df,p)
! Description: 6-31G(2df,p)
!        Role: orbital
!     Version: 0  (Data from the original Basis Set Exchange)
!----------------------------------------------------------------------

****
H     0
S    3   1.00
     18.7311370              0.03349460
      2.8253937              0.23472695
      0.6401217              0.81375733
S    1   1.00
      0.1612778              1.00000000
P    1   1.00
      1.5000000              1.0000000
P    1   1.00
      0.3750000              1.0000000
****
B     0
S    6   1.00
   2068.8823000              0.0018663
    310.6495700              0.0142515
     70.6830330              0.0695516
     19.8610800              0.2325729
      6.2993048              0.4670787
      2.1270270              0.3634314
SP   3   1.00
      4.7279710             -0.1303938              0.0745976
      1.1903377             -0.1307889              0.3078467
      0.3594117              1.1309444              0.7434568
SP   1   1.00
      0.1267512              1.0000000              1.0000000
D    1   1.00
      0.8020000              1.0000000
D    1   1.00
      0.2005000              1.0000000
F    1   1.00
      0.5000000              1.0000000
****
C     0
S    6   1.00
   3047.5249000              0.0018347
    457.3695100              0.0140373
    103.9486900              0.0688426
     29.2101550              0.2321844
      9.2866630              0.4679413
      3.1639270              0.3623120
SP   3   1.00
      7.8682724             -0.1193324              0.0689991
      1.8812885             -0.1608542              0.3164240
      0.5442493              1.1434564              0.7443083
SP   1   1.00
      0.1687144              1.0000000              1.0000000
D    1   1.00
      1.2520000              1.0000000
D    1   1.00
      0.3130000              1.0000000
F    1   1.00
      0.8000000              1.0000000
****
N     0
S    6   1.00
   4173.5110000              0.0018348
    627.4579000              0.0139950
    142.9021000              0.0685870
     40.2343300              0.2322410
     12.8202100              0.4690700
      4.3904370              0.3604550
SP   3   1.00
     11.6263580             -0.1149610              0.0675800
      2.7162800             -0.1691180              0.3239070
      0.7722180              1.1458520              0.7408950
SP   1   1.00
      0.2120313              1.0000000              1.0000000
D    1   1.00
      1.8260000              1.0000000
D    1   1.00
      0.4565000              1.0000000
F    1   1.00
      1.0000000              1.0000000
****
O     0
S    6   1.00
   5484.6717000              0.0018311
    825.2349500              0.0139501
    188.0469600              0.0684451
     52.9645000              0.2327143
     16.8975700              0.4701930
      5.7996353              0.3585209
SP   3   1.00
     15.5396160             -0.1107775              0.0708743
      3.5999336             -0.1480263              0.3397528
      1.0137618              1.1307670              0.7271586
SP   1   1.00
      0.2700058              1.0000000              1.0000000
D    1   1.00
      2.5840000              1.0000000
D    1   1.00
      0.6460000              1.0000000
F    1   1.00
      1.4000000              1.0000000
****
F     0
S    6   1.00
   7001.7130900              0.0018196169
   1051.3660900              0.0139160796
    239.2856900              0.0684053245
     67.3974453              0.233185760
     21.5199573              0.471267439
      7.40310130             0.356618546
SP   3   1.00
     20.8479528             -0.108506975            0.0716287243
      4.80830834            -0.146451658            0.3459121030
      1.34406986             1.128688580            0.7224699570
SP   1   1.00
      0.358151393            1.0000000              1.0000000
D    1   1.00
      3.5000000              1.0000000
D    1   1.00
      0.8750000              1.0000000
F    1   1.00
      1.8500000              1.0000000
****
Al     0
S    6   1.00
  13983.1000000              0.00194267
   2098.7500000              0.0148599
    477.7050000              0.0728494
    134.3600000              0.2468300
     42.8709000              0.4872580
     14.5189000              0.3234960
SP   6   1.00
    239.6680000             -0.00292619             0.00460285
     57.4419000             -0.0374080              0.0331990
     18.2859000             -0.1144870              0.1362820
      6.5991400              0.1156350              0.3304760
      2.4904900              0.6125950              0.4491460
      0.9445400              0.3937990              0.2657040
SP   3   1.00
      1.2779000             -0.2276060             -0.0175130
      0.3975900              0.00144583             0.2445330
      0.1600950              1.0927900              0.8049340
SP   1   1.00
      0.0556577              1.0000000              1.0000000
D    1   1.00
      0.6500000              1.0000000
D    1   1.00
      0.1625000              1.0000000
F    1   1.00
      0.2500000              1.0000000
****
Si     0
S    6   1.00
  16115.9000000              0.00195948
   2425.5800000              0.01492880
    553.8670000              0.07284780
    156.3400000              0.24613000
     50.0683000              0.48591400
     17.0178000              0.32500200
SP   6   1.00
    292.7180000             -0.00278094             0.00443826
     69.8731000             -0.03571460             0.03266790
     22.3363000             -0.11498500             0.13472100
      8.1503900              0.09356340             0.32867800
      3.1345800              0.60301700             0.44964000
      1.2254300              0.41895900             0.26137200
SP   3   1.00
      1.7273800             -0.24463000            -0.01779510
      0.5729220              0.00431572             0.25353900
      0.2221920              1.09818000             0.80066900
SP   1   1.00
      0.0778369              1.00000000             1.00000000
D    1   1.00
      0.9000000              1.0000000
D    1   1.00
      0.2250000              1.0000000
F    1   1.00
      0.3200000              1.0000000
****
P     0
S    6   1.00
  19413.3000000              0.0018516
   2909.4200000              0.0142062
    661.3640000              0.0699995
    185.7590000              0.2400790
     59.1943000              0.4847620
     20.0310000              0.3352000
SP   6   1.00
    339.4780000             -0.00278217             0.00456462
     81.0101000             -0.0360499              0.03369360
     25.8780000             -0.1166310              0.13975500
      9.4522100              0.0968328              0.33936200
      3.6656600              0.6144180              0.45092100
      1.4674600              0.4037980              0.23858600
SP   3   1.00
      2.1562300             -0.2529230             -0.01776530
      0.7489970              0.0328517              0.27405800
      0.2831450              1.0812500              0.78542100
SP   1   1.00
      0.0998317              1.0000000              1.00000000
D    1   1.00
      1.1000000              1.0000000
D    1   1.00
      0.2750000              1.0000000
F    1   1.00
      0.4500000              1.0000000
****
S     0
S    6   1.00
  21917.1000000              0.0018690
   3301.4900000              0.0142300
    754.1460000              0.0696960
    212.7110000              0.2384870
     67.9896000              0.4833070
     23.0515000              0.3380740
SP   6   1.00
    423.7350000             -0.0023767              0.0040610
    100.7100000             -0.0316930              0.0306810
     32.1599000             -0.1133170              0.1304520
     11.8079000              0.0560900              0.3272050
      4.6311000              0.5922550              0.4528510
      1.8702500              0.4550060              0.2560420
SP   3   1.00
      2.6158400             -0.2503740             -0.0145110
      0.9221670              0.0669570              0.3102630
      0.3412870              1.0545100              0.7544830
SP   1   1.00
      0.1171670              1.0000000              1.0000000
D    1   1.00
      1.3000000              1.0000000
D    1   1.00
      0.3250000              1.0000000
F    1   1.00
      0.5500000              1.0000000
****
Cl     0
S    6   1.00
  25180.1000000              0.0018330
   3780.3500000              0.0140340
    860.4740000              0.0690970
    242.1450000              0.2374520
     77.3349000              0.4830340
     26.2470000              0.3398560
SP   6   1.00
    491.7650000             -0.0022974              0.0039894
    116.9840000             -0.0307140              0.0303180
     37.4153000             -0.1125280              0.1298800
     13.7834000              0.0450160              0.3279510
      5.4521500              0.5893530              0.4535270
      2.2258800              0.4652060              0.2521540
SP   3   1.00
      3.1864900             -0.2518300             -0.0142990
      1.1442700              0.0615890              0.3235720
      0.4203770              1.0601800              0.7435070
SP   1   1.00
      0.1426570              1.0000000              1.0000000
D    1   1.00
      1.5000000              1.0000000
D    1   1.00
      0.3750000              1.0000000
F    1   1.00
      0.7000000              1.0000000
****
}

set {
reference uhf
freeze_core true
e_convergence 10
d_convergence 10
dft_spherical_points 1202
dft_radial_points 99
}

e = energy('b3lyp')

print_out('Grab this energy {0}'.format(e))
--------------------------------------------------------------------------

    Molecular point group: c1

    Geometry (in Bohr), charge = 0, multiplicity = 2:

       Center              X                  Y                   Z               Mass
    ------------   -----------------  -----------------  -----------------  -----------------
         C           -0.322226550024    -0.000002382374     0.001961116897    12.000000000000
         C            0.061722604176    -1.401833316574    -2.427252374603    12.000000000000
         C            0.060912993476     2.801500958426     0.000784315597    12.000000000000
         C            0.060343718976    -1.399663744974     2.425063369197    12.000000000000
         H            2.088167391876    -1.645310881874    -2.853354891803     1.007825032230
         H           -0.767427552724    -0.388272866774    -4.023403483103     1.007825032230
         H           -0.763243376024    -3.294106836274    -2.349067145703     1.007825032230
         H            2.085792598676     3.294133769826    -0.003819602403     1.007825032230
         H           -0.762361058624     3.679923568426     1.679929076597     1.007825032230
         H           -0.771072070924     3.674129343226    -1.674175404003     1.007825032230
         H            2.083703160776    -1.648912683974     2.851974608097     1.007825032230
         H           -0.770038030924    -3.287627112074     2.342761336997     1.007825032230
         H           -0.765528109624    -0.383974333474     4.022530223297     1.007825032230

  Charge       = 0
  Multiplicity = 2
  Basis Set: ANONYMOUSEB9E6654
    Blend: 6-31G_2DFP_
  Basis Set: (ANONYMOUSEB9E6654 AUX)
    Blend: DEF2-UNIVERSAL-JKFIT

    Orbital Energies [Eh]
    ---------------------

    Alpha Occupied:

       1A    -10.180329     2A    -10.167157     3A    -10.166969
       4A    -10.166779     5A     -0.797832     6A     -0.686367
       7A     -0.686081     8A     -0.530788     9A     -0.440955
      10A     -0.434955    11A     -0.434812    12A     -0.382491
      13A     -0.382403    14A     -0.363748    15A     -0.338169
      16A     -0.337871    17A     -0.169050

    Alpha Virtual:

      18A      0.076108    19A      0.134044    20A      0.134170
      21A      0.142684    22A      0.142706    23A      0.155084
      24A      0.178738    25A      0.178745    26A      0.203679
      27A      0.215023    28A      0.275689    29A      0.276360
      30A      0.399441    31A      0.399457    32A      0.403282
      33A      0.423912    34A      0.423979    35A      0.456830
      36A      0.495315    37A      0.495415    38A      0.511972
      39A      0.514037    40A      0.578784    41A      0.579137
      42A      0.591216    43A      0.591691    44A      0.602342
      45A      0.624825    46A      0.632022    47A      0.636252
      48A      0.636433    49A      0.663485    50A      0.663894
      51A      0.683748    52A      0.683788    53A      0.735077
      54A      0.825275    55A      0.825337    56A      0.854261
      57A      0.915039    58A      0.915311    59A      0.943815
      60A      0.944347    61A      0.960970    62A      0.961051
      63A      1.004179    64A      1.128513    65A      1.128600
      66A      1.141605    67A      1.163715    68A      1.163945
      69A      1.223257    70A      1.274283    71A      1.274642
      72A      1.279590    73A      1.324505    74A      1.324748
      75A      1.355581    76A      1.366082    77A      1.366677
      78A      1.392252    79A      1.403455    80A      1.404075
      81A      1.416699    82A      1.417244    83A      1.428532
      84A      1.492093    85A      1.498765    86A      1.542752
      87A      1.543035    88A      1.573612    89A      1.574052
      90A      1.669899    91A      1.739019    92A      1.739551
      93A      1.768170    94A      1.831261    95A      1.832082
      96A      1.971833    97A      2.018036    98A      2.019875
      99A      2.019957   100A      2.052145   101A      2.054095
     102A      2.738015   103A      2.738123   104A      2.791157
     105A      2.811937   106A      2.889669   107A      2.890503
     108A      2.895247   109A      2.929783   110A      2.930122
     111A      2.959055   112A      2.964167   113A      2.964697
     114A      3.034476   115A      3.070516   116A      3.071093
     117A      3.083998   118A      3.168652   119A      3.168754
     120A      3.180776   121A      3.284868   122A      3.284961
     123A      3.327821   124A      3.328705   125A      3.375325
     126A      3.489437   127A      3.489907   128A      3.514219
     129A      3.525479   130A      3.568089   131A      3.569777
     132A      3.576015   133A      3.666124   134A      3.666520
     135A      3.680755   136A      3.693270   137A      3.693937
     138A      3.776603   139A      3.779266   140A      3.787869
     141A      3.911845   142A      3.912837   143A      4.033344
     144A      4.110461   145A      4.112502   146A      4.147343
     147A      4.148451   148A      4.173179   149A      4.202203
     150A      4.203441   151A      4.204334   152A      4.211370
     153A      4.315762   154A      4.316816   155A      4.360121
     156A      4.423443   157A      4.424449   158A      4.444451
     159A      4.516908   160A      4.518401   161A      4.578570
     162A      4.579921   163A      4.618004   164A      4.709771
     165A      4.774362   166A      4.775584   167A      4.835906
     168A      4.963367   169A      5.002225   170A      5.003469
     171A      5.228393   172A      5.246626   173A      5.246875
     174A      5.355130   175A      5.357041   176A      5.479609

    Beta Occupied:

       1A    -10.167915     2A    -10.167729     3A    -10.167544
       4A    -10.166511     5A     -0.781161     6A     -0.684156
       7A     -0.683893     8A     -0.511755     9A     -0.431324
      10A     -0.431167    11A     -0.421658    12A     -0.376555
      13A     -0.376490    14A     -0.362726    15A     -0.333296
      16A     -0.332997

    Beta Virtual:

      17A     -0.025908    18A      0.077113    19A      0.134945
      20A      0.135079    21A      0.144554    22A      0.144597
      23A      0.163592    24A      0.182402    25A      0.182411
      26A      0.215255    27A      0.219022    28A      0.282037
      29A      0.282686    30A      0.400626    31A      0.400630
      32A      0.419739    33A      0.426705    34A      0.426798
      35A      0.468817    36A      0.497598    37A      0.497683
      38A      0.513712    39A      0.556295    40A      0.584344
      41A      0.584724    42A      0.597389    43A      0.597819
      44A      0.609784    45A      0.628205    46A      0.632185
      47A      0.639509    48A      0.639734    49A      0.667084
      50A      0.667469    51A      0.686377    52A      0.686392
      53A      0.757564    54A      0.830487    55A      0.830493
      56A      0.855617    57A      0.923053    58A      0.923332
      59A      0.946183    60A      0.952824    61A      0.966221
      62A      0.966360    63A      1.009448    64A      1.132493
      65A      1.132684    66A      1.154765    67A      1.168843
      68A      1.168948    69A      1.232328    70A      1.279892
      71A      1.280262    72A      1.285415    73A      1.329547
      74A      1.329765    75A      1.364938    76A      1.371356
      77A      1.371874    78A      1.393324    79A      1.406908
      80A      1.407581    81A      1.421703    82A      1.422233
      83A      1.428807    84A      1.493130    85A      1.509187
      86A      1.547185    87A      1.547405    88A      1.581538
      89A      1.581891    90A      1.674749    91A      1.744768
      92A      1.745328    93A      1.778965    94A      1.835107
      95A      1.835942    96A      1.972700    97A      2.026246
      98A      2.026395    99A      2.039480   100A      2.058881
     101A      2.060763   102A      2.746336   103A      2.746497
     104A      2.812355   105A      2.816295   106A      2.902370
     107A      2.903089   108A      2.924877   109A      2.932290
     110A      2.932625   111A      2.960120   112A      2.968766
     113A      2.969263   114A      3.042402   115A      3.080454
     116A      3.080949   117A      3.085816   118A      3.184293
     119A      3.184546   120A      3.188525   121A      3.289640
     122A      3.289739   123A      3.331608   124A      3.332478
     125A      3.383118   126A      3.492213   127A      3.492726
     128A      3.512595   129A      3.528490   130A      3.575845
     131A      3.581401   132A      3.583032   133A      3.670911
     134A      3.671069   135A      3.693978   136A      3.725208
     137A      3.725577   138A      3.781254   139A      3.783832
     140A      3.816403   141A      3.921659   142A      3.922563
     143A      4.044285   144A      4.117371   145A      4.119407
     146A      4.154537   147A      4.155514   148A      4.187204
     149A      4.209214   150A      4.210021   151A      4.210556
     152A      4.215878   153A      4.323187   154A      4.324305
     155A      4.363505   156A      4.431683   157A      4.432645
     158A      4.447315   159A      4.524697   160A      4.526166
     161A      4.589187   162A      4.590547   163A      4.625125
     164A      4.720221   165A      4.781342   166A      4.782484
     167A      4.838826   168A      4.968159   169A      5.006262
     170A      5.007543   171A      5.234094   172A      5.248402
     173A      5.248675   174A      5.361591   175A      5.363545
     176A      5.481936

    Final Occupation by Irrep:
              A
    DOCC [    16 ]
    SOCC [     1 ]

  @DF-UKS Final Energy:  -157.81307398604554

   => Energetics <=

    Nuclear Repulsion Energy =            125.4062472562673065
    One-Electron Energy =                -458.7716052521287793
    Two-Electron Energy =                 195.8597717303005652
    DFT Exchange-Correlation Energy =     -20.3074877204846374
    Empirical Dispersion Energy =           0.0000000000000000
    VV10 Nonlocal Energy =                  0.0000000000000000
    Total Energy =                       -157.8130739860455378

  UHF NO Occupations:
  HONO-2 :   15  A 1.9995995
  HONO-1 :   16  A 1.9989824
  HONO-0 :   17  A 1.0000000
  LUNO+0 :   18  A 0.0010176
  LUNO+1 :   19  A 0.0004005
  LUNO+2 :   20  A 0.0001978
  LUNO+3 :   21  A 0.0001967

Computation Completed

Properties will be evaluated at   0.000000,   0.000000,   0.000000 [a0]

Properties computed using the SCF density matrix

  Nuclear Dipole Moment: [e a0]
     X:     0.8225      Y:    -0.0000      Z:    -0.0033

  Electronic Dipole Moment: [e a0]
     X:    -0.7450      Y:     0.0000      Z:     0.0033

  Dipole Moment: [e a0]
     X:     0.0775      Y:     0.0000      Z:    -0.0000     Total:     0.0775

  Dipole Moment: [D]
     X:     0.1970      Y:     0.0000      Z:    -0.0001     Total:     0.1970

*** tstop() called on n082 at Fri Nov  5 15:40:08 2021
Module time:
	user time   =     496.57 seconds =       8.28 minutes
	system time =       4.63 seconds =       0.08 minutes
	total time  =        126 seconds =       2.10 minutes
Total time:
	user time   =     496.57 seconds =       8.28 minutes
	system time =       4.63 seconds =       0.08 minutes
	total time  =        126 seconds =       2.10 minutes
Grab this energy -157.81307398604554
    Psi4 stopped on: Friday, 05 November 2021 03:40PM
    Psi4 wall time for execution: 0:02:06.02

*** Psi4 exiting successfully. Buy a developer a beer!
