                               Psi4 1.4a2.dev629

  ==> Input File <==

--------------------------------------------------------------------------
import os
memory 14 GB

molecule {
 C   -0.3233285989   -0.0000019729    0.0000000000
 C    0.0613229421   -1.4016977607   -2.4278016918
 C    0.0612029724    2.8033987332    0.0000000000
 C    0.0613229421   -1.4016977607    2.4278016918
 H    2.0869885094   -1.6438494002   -2.8470106623
 H   -0.7655244378   -0.3878908041   -4.0251158802
 H   -0.7656876302   -3.2918482661   -2.3485186174
 H    2.0868495619    3.2876066025   -0.0000000000
 H   -0.7657652896    3.6797723928    1.6766034927
 H   -0.7657652896    3.6797723928   -1.6766034927
 H    2.0869885094   -1.6438494002    2.8470106623
 H   -0.7656876302   -3.2918482661    2.3485186174
 H   -0.7655244378   -0.3878908041    4.0251158802
units bohr
0 2
}

basis {

assign 6-31g_2dfp_

[ 6-31g_2dfp_ ]

spherical

!----------------------------------------------------------------------
! Basis Set Exchange
! Version v0.8.13
! https://www.basissetexchange.org
!----------------------------------------------------------------------
!   Basis set: 6-31G(2df,p)
! Description: 6-31G(2df,p)
!        Role: orbital
!     Version: 0  (Data from the original Basis Set Exchange)
!----------------------------------------------------------------------

****
H     0
S    3   1.00
     18.7311370              0.03349460
      2.8253937              0.23472695
      0.6401217              0.81375733
S    1   1.00
      0.1612778              1.00000000
P    1   1.00
      1.5000000              1.0000000
P    1   1.00
      0.3750000              1.0000000
****
B     0
S    6   1.00
   2068.8823000              0.0018663
    310.6495700              0.0142515
     70.6830330              0.0695516
     19.8610800              0.2325729
      6.2993048              0.4670787
      2.1270270              0.3634314
SP   3   1.00
      4.7279710             -0.1303938              0.0745976
      1.1903377             -0.1307889              0.3078467
      0.3594117              1.1309444              0.7434568
SP   1   1.00
      0.1267512              1.0000000              1.0000000
D    1   1.00
      0.8020000              1.0000000
D    1   1.00
      0.2005000              1.0000000
F    1   1.00
      0.5000000              1.0000000
****
C     0
S    6   1.00
   3047.5249000              0.0018347
    457.3695100              0.0140373
    103.9486900              0.0688426
     29.2101550              0.2321844
      9.2866630              0.4679413
      3.1639270              0.3623120
SP   3   1.00
      7.8682724             -0.1193324              0.0689991
      1.8812885             -0.1608542              0.3164240
      0.5442493              1.1434564              0.7443083
SP   1   1.00
      0.1687144              1.0000000              1.0000000
D    1   1.00
      1.2520000              1.0000000
D    1   1.00
      0.3130000              1.0000000
F    1   1.00
      0.8000000              1.0000000
****
N     0
S    6   1.00
   4173.5110000              0.0018348
    627.4579000              0.0139950
    142.9021000              0.0685870
     40.2343300              0.2322410
     12.8202100              0.4690700
      4.3904370              0.3604550
SP   3   1.00
     11.6263580             -0.1149610              0.0675800
      2.7162800             -0.1691180              0.3239070
      0.7722180              1.1458520              0.7408950
SP   1   1.00
      0.2120313              1.0000000              1.0000000
D    1   1.00
      1.8260000              1.0000000
D    1   1.00
      0.4565000              1.0000000
F    1   1.00
      1.0000000              1.0000000
****
O     0
S    6   1.00
   5484.6717000              0.0018311
    825.2349500              0.0139501
    188.0469600              0.0684451
     52.9645000              0.2327143
     16.8975700              0.4701930
      5.7996353              0.3585209
SP   3   1.00
     15.5396160             -0.1107775              0.0708743
      3.5999336             -0.1480263              0.3397528
      1.0137618              1.1307670              0.7271586
SP   1   1.00
      0.2700058              1.0000000              1.0000000
D    1   1.00
      2.5840000              1.0000000
D    1   1.00
      0.6460000              1.0000000
F    1   1.00
      1.4000000              1.0000000
****
F     0
S    6   1.00
   7001.7130900              0.0018196169
   1051.3660900              0.0139160796
    239.2856900              0.0684053245
     67.3974453              0.233185760
     21.5199573              0.471267439
      7.40310130             0.356618546
SP   3   1.00
     20.8479528             -0.108506975            0.0716287243
      4.80830834            -0.146451658            0.3459121030
      1.34406986             1.128688580            0.7224699570
SP   1   1.00
      0.358151393            1.0000000              1.0000000
D    1   1.00
      3.5000000              1.0000000
D    1   1.00
      0.8750000              1.0000000
F    1   1.00
      1.8500000              1.0000000
****
Al     0
S    6   1.00
  13983.1000000              0.00194267
   2098.7500000              0.0148599
    477.7050000              0.0728494
    134.3600000              0.2468300
     42.8709000              0.4872580
     14.5189000              0.3234960
SP   6   1.00
    239.6680000             -0.00292619             0.00460285
     57.4419000             -0.0374080              0.0331990
     18.2859000             -0.1144870              0.1362820
      6.5991400              0.1156350              0.3304760
      2.4904900              0.6125950              0.4491460
      0.9445400              0.3937990              0.2657040
SP   3   1.00
      1.2779000             -0.2276060             -0.0175130
      0.3975900              0.00144583             0.2445330
      0.1600950              1.0927900              0.8049340
SP   1   1.00
      0.0556577              1.0000000              1.0000000
D    1   1.00
      0.6500000              1.0000000
D    1   1.00
      0.1625000              1.0000000
F    1   1.00
      0.2500000              1.0000000
****
Si     0
S    6   1.00
  16115.9000000              0.00195948
   2425.5800000              0.01492880
    553.8670000              0.07284780
    156.3400000              0.24613000
     50.0683000              0.48591400
     17.0178000              0.32500200
SP   6   1.00
    292.7180000             -0.00278094             0.00443826
     69.8731000             -0.03571460             0.03266790
     22.3363000             -0.11498500             0.13472100
      8.1503900              0.09356340             0.32867800
      3.1345800              0.60301700             0.44964000
      1.2254300              0.41895900             0.26137200
SP   3   1.00
      1.7273800             -0.24463000            -0.01779510
      0.5729220              0.00431572             0.25353900
      0.2221920              1.09818000             0.80066900
SP   1   1.00
      0.0778369              1.00000000             1.00000000
D    1   1.00
      0.9000000              1.0000000
D    1   1.00
      0.2250000              1.0000000
F    1   1.00
      0.3200000              1.0000000
****
P     0
S    6   1.00
  19413.3000000              0.0018516
   2909.4200000              0.0142062
    661.3640000              0.0699995
    185.7590000              0.2400790
     59.1943000              0.4847620
     20.0310000              0.3352000
SP   6   1.00
    339.4780000             -0.00278217             0.00456462
     81.0101000             -0.0360499              0.03369360
     25.8780000             -0.1166310              0.13975500
      9.4522100              0.0968328              0.33936200
      3.6656600              0.6144180              0.45092100
      1.4674600              0.4037980              0.23858600
SP   3   1.00
      2.1562300             -0.2529230             -0.01776530
      0.7489970              0.0328517              0.27405800
      0.2831450              1.0812500              0.78542100
SP   1   1.00
      0.0998317              1.0000000              1.00000000
D    1   1.00
      1.1000000              1.0000000
D    1   1.00
      0.2750000              1.0000000
F    1   1.00
      0.4500000              1.0000000
****
S     0
S    6   1.00
  21917.1000000              0.0018690
   3301.4900000              0.0142300
    754.1460000              0.0696960
    212.7110000              0.2384870
     67.9896000              0.4833070
     23.0515000              0.3380740
SP   6   1.00
    423.7350000             -0.0023767              0.0040610
    100.7100000             -0.0316930              0.0306810
     32.1599000             -0.1133170              0.1304520
     11.8079000              0.0560900              0.3272050
      4.6311000              0.5922550              0.4528510
      1.8702500              0.4550060              0.2560420
SP   3   1.00
      2.6158400             -0.2503740             -0.0145110
      0.9221670              0.0669570              0.3102630
      0.3412870              1.0545100              0.7544830
SP   1   1.00
      0.1171670              1.0000000              1.0000000
D    1   1.00
      1.3000000              1.0000000
D    1   1.00
      0.3250000              1.0000000
F    1   1.00
      0.5500000              1.0000000
****
Cl     0
S    6   1.00
  25180.1000000              0.0018330
   3780.3500000              0.0140340
    860.4740000              0.0690970
    242.1450000              0.2374520
     77.3349000              0.4830340
     26.2470000              0.3398560
SP   6   1.00
    491.7650000             -0.0022974              0.0039894
    116.9840000             -0.0307140              0.0303180
     37.4153000             -0.1125280              0.1298800
     13.7834000              0.0450160              0.3279510
      5.4521500              0.5893530              0.4535270
      2.2258800              0.4652060              0.2521540
SP   3   1.00
      3.1864900             -0.2518300             -0.0142990
      1.1442700              0.0615890              0.3235720
      0.4203770              1.0601800              0.7435070
SP   1   1.00
      0.1426570              1.0000000              1.0000000
D    1   1.00
      1.5000000              1.0000000
D    1   1.00
      0.3750000              1.0000000
F    1   1.00
      0.7000000              1.0000000
****
}

set {
reference uhf
freeze_core true
e_convergence 10
d_convergence 10
dft_spherical_points 1202
dft_radial_points 99
}

e = energy('b3lyp')

print_out('Grab this energy {0}'.format(e))
--------------------------------------------------------------------------

    Molecular point group: cs

    Geometry (in Bohr), charge = 0, multiplicity = 2:

       Center              X                  Y                   Z               Mass
    ------------   -----------------  -----------------  -----------------  -----------------
         C           -0.323436505647    -0.000001782156     0.000000000000    12.000000000000
         C            0.061215035353    -1.401697569956    -2.427801691800    12.000000000000
         C            0.061095065653     2.803398923944     0.000000000000    12.000000000000
         C            0.061215035353    -1.401697569956     2.427801691800    12.000000000000
         H            2.086880602653    -1.643849209456    -2.847010662300     1.007825032230
         H           -0.765632344547    -0.387890613356    -4.025115880200     1.007825032230
         H           -0.765795536947    -3.291848075356    -2.348518617400     1.007825032230
         H            2.086741655153     3.287606793244     0.000000000000     1.007825032230
         H           -0.765873196347     3.679772583544     1.676603492700     1.007825032230
         H           -0.765873196347     3.679772583544    -1.676603492700     1.007825032230
         H            2.086880602653    -1.643849209456     2.847010662300     1.007825032230
         H           -0.765795536947    -3.291848075356     2.348518617400     1.007825032230
         H           -0.765632344547    -0.387890613356     4.025115880200     1.007825032230

  Charge       = 0
  Multiplicity = 2
  Basis Set: ANONYMOUS70496E80
    Blend: 6-31G_2DFP_
  Basis Set: (ANONYMOUS70496E80 AUX)
    Blend: DEF2-UNIVERSAL-JKFIT

    Orbital Energies [Eh]
    ---------------------

    Alpha Occupied:

       1Ap   -10.180393     2Ap   -10.166978     1App  -10.166978
       3Ap   -10.166932     4Ap    -0.797509     5Ap    -0.686178
       2App   -0.686177     6Ap    -0.530609     7Ap    -0.441113
       3App   -0.434604     8Ap    -0.434604     9Ap    -0.382737
       4App   -0.382736     5App   -0.363812    10Ap    -0.337839
       6App   -0.337839    11Ap    -0.168940

    Alpha Virtual:

      12Ap     0.076081    13Ap     0.134214     7App    0.134215
      14Ap     0.142762     8App    0.142762    15Ap     0.154773
      16Ap     0.178944     9App    0.178944    17Ap     0.203255
      10App    0.214926    11App    0.275742    18Ap     0.275744
      19Ap     0.399233    12App    0.399237    20Ap     0.403435
      13App    0.424151    21Ap     0.424151    22Ap     0.456412
      23Ap     0.495399    14App    0.495400    15App    0.512215
      24Ap     0.514037    25Ap     0.578854    16App    0.578863
      17App    0.591734    26Ap     0.591735    27Ap     0.602613
      28Ap     0.624883    18App    0.632007    19App    0.636189
      29Ap     0.636192    30Ap     0.663297    20App    0.663297
      31Ap     0.683865    21App    0.683866    32Ap     0.735125
      22App    0.825386    33Ap     0.825389    23App    0.853779
      24App    0.915065    34Ap     0.915071    25App    0.944080
      35Ap     0.944301    26App    0.961350    36Ap     0.961366
      37Ap     1.003622    38Ap     1.128029    27App    1.128042
      39Ap     1.141803    40Ap     1.163871    28App    1.163883
      41Ap     1.222904    42Ap     1.274362    29App    1.274365
      43Ap     1.279190    30App    1.324156    44Ap     1.324159
      45Ap     1.355658    31App    1.365913    46Ap     1.365918
      32App    1.392945    47Ap     1.404777    33App    1.404779
      34App    1.417111    48Ap     1.417118    35App    1.428165
      36App    1.490972    49Ap     1.499659    37App    1.542664
      50Ap     1.542666    51Ap     1.574343    38App    1.574345
      52Ap     1.670612    53Ap     1.738903    39App    1.738915
      54Ap     1.768340    40App    1.831836    55Ap     1.831836
      41App    1.971133    56Ap     2.018291    42App    2.018294
      57Ap     2.018519    58Ap     2.052215    43App    2.052215
      44App    2.738311    59Ap     2.738312    60Ap     2.790697
      45App    2.811340    61Ap     2.889847    46App    2.889853
      62Ap     2.894532    63Ap     2.929645    47App    2.929653
      48App    2.959045    64Ap     2.964396    49App    2.964410
      65Ap     3.033836    50App    3.071328    66Ap     3.071342
      51App    3.083947    67Ap     3.168676    52App    3.168683
      68Ap     3.179988    53App    3.285645    69Ap     3.285645
      70Ap     3.326911    54App    3.326916    71Ap     3.375706
      55App    3.490063    72Ap     3.490084    56App    3.513862
      73Ap     3.524978    57App    3.568139    74Ap     3.568159
      58App    3.575279    75Ap     3.667158    59App    3.667166
      76Ap     3.680227    60App    3.694236    77Ap     3.694252
      78Ap     3.776734    61App    3.776759    79Ap     3.789407
      80Ap     3.911118    62App    3.911124    81Ap     4.033905
      82Ap     4.111647    63App    4.111650    83Ap     4.148131
      64App    4.148139    84Ap     4.172566    85Ap     4.201775
      65App    4.202402    86Ap     4.202406    66App    4.210490
      87Ap     4.316056    67App    4.316075    68App    4.359609
      88Ap     4.425643    69App    4.425644    70App    4.445392
      71App    4.516506    89Ap     4.516508    72App    4.577546
      90Ap     4.577558    91Ap     4.617142    92Ap     4.708167
      93Ap     4.773777    73App    4.773785    74App    4.835564
      94Ap     4.964180    75App    5.003830    95Ap     5.003841
      96Ap     5.228567    76App    5.247089    97Ap     5.247090
      98Ap     5.355335    77App    5.355348    78App    5.478134

    Beta Occupied:

       1Ap   -10.167729     1App  -10.167728     2Ap   -10.167704
       3Ap   -10.166560     4Ap    -0.780849     5Ap    -0.683986
       2App   -0.683985     6Ap    -0.511534     3App   -0.430993
       7Ap    -0.430993     8Ap    -0.421854     9Ap    -0.376838
       4App   -0.376837     5App   -0.362801     6App   -0.332947
      10Ap    -0.332947

    Beta Virtual:

      11Ap    -0.025573    12Ap     0.077086    13Ap     0.135096
       7App    0.135096    14Ap     0.144630     8App    0.144630
      15Ap     0.163191    16Ap     0.182600     9App    0.182600
      10App    0.215154    17Ap     0.218687    11App    0.282110
      18Ap     0.282112    19Ap     0.400396    12App    0.400400
      20Ap     0.419874    13App    0.426960    21Ap     0.426961
      22Ap     0.468244    23Ap     0.497652    14App    0.497653
      15App    0.513941    24Ap     0.556414    25Ap     0.584406
      16App    0.584414    17App    0.597923    26Ap     0.597924
      27Ap     0.610044    28Ap     0.628221    18App    0.632158
      19App    0.639458    29Ap     0.639462    30Ap     0.666858
      20App    0.666859    31Ap     0.686489    21App    0.686491
      32Ap     0.757726    22App    0.830539    33Ap     0.830542
      23App    0.855120    24App    0.923039    34Ap     0.923046
      25App    0.945909    35Ap     0.953218    26App    0.966647
      36Ap     0.966663    37Ap     1.008872    38Ap     1.132064
      27App    1.132075    39Ap     1.155146    40Ap     1.168954
      28App    1.168966    41Ap     1.231935    42Ap     1.279926
      29App    1.279930    43Ap     1.284967    30App    1.329124
      44Ap     1.329126    45Ap     1.365064    31App    1.371217
      46Ap     1.371222    32App    1.393991    47Ap     1.408211
      33App    1.408214    34App    1.422161    48Ap     1.422167
      35App    1.428445    36App    1.492006    49Ap     1.510081
      50Ap     1.547050    37App    1.547051    38App    1.582234
      51Ap     1.582235    52Ap     1.675465    53Ap     1.744666
      39App    1.744678    54Ap     1.779080    40App    1.835666
      55Ap     1.835667    41App    1.971985    56Ap     2.024636
      42App    2.024638    57Ap     2.039886    58Ap     2.058967
      43App    2.058967    44App    2.746678    59Ap     2.746679
      45App    2.811753    60Ap     2.815867    61Ap     2.902575
      46App    2.902580    62Ap     2.924207    63Ap     2.932095
      47App    2.932103    48App    2.960109    64Ap     2.968909
      49App    2.968923    65Ap     3.041729    50App    3.081196
      66Ap     3.081208    51App    3.085755    67Ap     3.184525
      52App    3.184529    68Ap     3.187689    69Ap     3.290394
      53App    3.290395    70Ap     3.330721    54App    3.330726
      71Ap     3.383493    55App    3.492785    72Ap     3.492806
      56App    3.512227    73Ap     3.528061    57App    3.575135
      58App    3.581545    74Ap     3.581567    75Ap     3.672095
      59App    3.672107    76Ap     3.693524    60App    3.725748
      77Ap     3.725764    78Ap     3.781196    61App    3.781222
      79Ap     3.818008    80Ap     3.920972    62App    3.920979
      81Ap     4.044871    82Ap     4.118367    63App    4.118368
      83Ap     4.155390    64App    4.155399    84Ap     4.186575
      65App    4.208343    85Ap     4.208347    86Ap     4.209702
      66App    4.214944    87Ap     4.323588    67App    4.323608
      68App    4.362949    88Ap     4.433795    69App    4.433797
      70App    4.448269    71App    4.524233    89Ap     4.524235
      72App    4.588130    90Ap     4.588142    91Ap     4.624313
      92Ap     4.718511    93Ap     4.780732    73App    4.780740
      74App    4.838482    94Ap     4.968953    75App    5.007846
      95Ap     5.007858    96Ap     5.234266    76App    5.248863
      97Ap     5.248864    98Ap     5.361787    77App    5.361800
      78App    5.480447

    Final Occupation by Irrep:
             Ap   App
    DOCC [    10,    6 ]
    SOCC [     1,    0 ]

  @DF-UKS Final Energy:  -157.81304956021339

   => Energetics <=

    Nuclear Repulsion Energy =            125.3666295402753974
    One-Electron Energy =                -458.6938326328069024
    Two-Electron Energy =                 195.8214114333654550
    DFT Exchange-Correlation Energy =     -20.3072579010473753
    Empirical Dispersion Energy =           0.0000000000000000
    VV10 Nonlocal Energy =                  0.0000000000000000
    Total Energy =                       -157.8130495602133863

  UHF NO Occupations:
  HONO-2 :    9 Ap 1.9996025
  HONO-1 :   10 Ap 1.9989782
  HONO-0 :   11 Ap 1.0000000
  LUNO+0 :   12 Ap 0.0010218
  LUNO+1 :   13 Ap 0.0003975
  LUNO+2 :    7App 0.0001983
  LUNO+3 :   14 Ap 0.0001983

Computation Completed

Properties will be evaluated at   0.000000,   0.000000,   0.000000 [a0]

Properties computed using the SCF density matrix

  Nuclear Dipole Moment: [e a0]
     X:     0.8264      Y:    -0.0000      Z:     0.0000

  Electronic Dipole Moment: [e a0]
     X:    -0.7484      Y:     0.0000      Z:     0.0000

  Dipole Moment: [e a0]
     X:     0.0780      Y:    -0.0000      Z:     0.0000     Total:     0.0780

  Dipole Moment: [D]
     X:     0.1984      Y:    -0.0000      Z:     0.0000     Total:     0.1984

*** tstop() called on n049 at Fri Nov  5 13:19:06 2021
Module time:
	user time   =     537.75 seconds =       8.96 minutes
	system time =      11.89 seconds =       0.20 minutes
	total time  =        138 seconds =       2.30 minutes
Total time:
	user time   =     537.75 seconds =       8.96 minutes
	system time =      11.89 seconds =       0.20 minutes
	total time  =        138 seconds =       2.30 minutes
Grab this energy -157.8130495602134
    Psi4 stopped on: Friday, 05 November 2021 01:19PM
    Psi4 wall time for execution: 0:02:18.26

*** Psi4 exiting successfully. Buy a developer a beer!
