                               Psi4 1.4a2.dev629

  ==> Input File <==

--------------------------------------------------------------------------
import os
memory 14 GB

molecule {
 C   -0.3251187905   -0.0000018937    0.0002443615
 C    0.0615451408   -1.4008881433   -2.4265493913
 C    0.0604631664    2.8020173748   -0.0001498485
 C    0.0596223488   -1.4011237148    2.4266575618
 H    2.0900735943   -1.6429148922   -2.8472523165
 H   -0.7640551991   -0.3895655905   -4.0259210754
 H   -0.7632544726   -3.2914937508   -2.3488571727
 H    2.0871156703    3.2820700835   -0.0018579574
 H   -0.7642677372    3.6820641190    1.6765112553
 H   -0.7661920482    3.6849011600   -1.6753642203
 H    2.0844238710   -1.6392497881    2.8371880951
 H   -0.7670433388   -3.2947575359    2.3552779480
 H   -0.7659200819   -0.3910817417    4.0300727604
units bohr
0 2
}

basis {

assign 6-31g_2dfp_

[ 6-31g_2dfp_ ]

spherical

!----------------------------------------------------------------------
! Basis Set Exchange
! Version v0.8.13
! https://www.basissetexchange.org
!----------------------------------------------------------------------
!   Basis set: 6-31G(2df,p)
! Description: 6-31G(2df,p)
!        Role: orbital
!     Version: 0  (Data from the original Basis Set Exchange)
!----------------------------------------------------------------------

****
H     0
S    3   1.00
     18.7311370              0.03349460
      2.8253937              0.23472695
      0.6401217              0.81375733
S    1   1.00
      0.1612778              1.00000000
P    1   1.00
      1.5000000              1.0000000
P    1   1.00
      0.3750000              1.0000000
****
B     0
S    6   1.00
   2068.8823000              0.0018663
    310.6495700              0.0142515
     70.6830330              0.0695516
     19.8610800              0.2325729
      6.2993048              0.4670787
      2.1270270              0.3634314
SP   3   1.00
      4.7279710             -0.1303938              0.0745976
      1.1903377             -0.1307889              0.3078467
      0.3594117              1.1309444              0.7434568
SP   1   1.00
      0.1267512              1.0000000              1.0000000
D    1   1.00
      0.8020000              1.0000000
D    1   1.00
      0.2005000              1.0000000
F    1   1.00
      0.5000000              1.0000000
****
C     0
S    6   1.00
   3047.5249000              0.0018347
    457.3695100              0.0140373
    103.9486900              0.0688426
     29.2101550              0.2321844
      9.2866630              0.4679413
      3.1639270              0.3623120
SP   3   1.00
      7.8682724             -0.1193324              0.0689991
      1.8812885             -0.1608542              0.3164240
      0.5442493              1.1434564              0.7443083
SP   1   1.00
      0.1687144              1.0000000              1.0000000
D    1   1.00
      1.2520000              1.0000000
D    1   1.00
      0.3130000              1.0000000
F    1   1.00
      0.8000000              1.0000000
****
N     0
S    6   1.00
   4173.5110000              0.0018348
    627.4579000              0.0139950
    142.9021000              0.0685870
     40.2343300              0.2322410
     12.8202100              0.4690700
      4.3904370              0.3604550
SP   3   1.00
     11.6263580             -0.1149610              0.0675800
      2.7162800             -0.1691180              0.3239070
      0.7722180              1.1458520              0.7408950
SP   1   1.00
      0.2120313              1.0000000              1.0000000
D    1   1.00
      1.8260000              1.0000000
D    1   1.00
      0.4565000              1.0000000
F    1   1.00
      1.0000000              1.0000000
****
O     0
S    6   1.00
   5484.6717000              0.0018311
    825.2349500              0.0139501
    188.0469600              0.0684451
     52.9645000              0.2327143
     16.8975700              0.4701930
      5.7996353              0.3585209
SP   3   1.00
     15.5396160             -0.1107775              0.0708743
      3.5999336             -0.1480263              0.3397528
      1.0137618              1.1307670              0.7271586
SP   1   1.00
      0.2700058              1.0000000              1.0000000
D    1   1.00
      2.5840000              1.0000000
D    1   1.00
      0.6460000              1.0000000
F    1   1.00
      1.4000000              1.0000000
****
F     0
S    6   1.00
   7001.7130900              0.0018196169
   1051.3660900              0.0139160796
    239.2856900              0.0684053245
     67.3974453              0.233185760
     21.5199573              0.471267439
      7.40310130             0.356618546
SP   3   1.00
     20.8479528             -0.108506975            0.0716287243
      4.80830834            -0.146451658            0.3459121030
      1.34406986             1.128688580            0.7224699570
SP   1   1.00
      0.358151393            1.0000000              1.0000000
D    1   1.00
      3.5000000              1.0000000
D    1   1.00
      0.8750000              1.0000000
F    1   1.00
      1.8500000              1.0000000
****
Al     0
S    6   1.00
  13983.1000000              0.00194267
   2098.7500000              0.0148599
    477.7050000              0.0728494
    134.3600000              0.2468300
     42.8709000              0.4872580
     14.5189000              0.3234960
SP   6   1.00
    239.6680000             -0.00292619             0.00460285
     57.4419000             -0.0374080              0.0331990
     18.2859000             -0.1144870              0.1362820
      6.5991400              0.1156350              0.3304760
      2.4904900              0.6125950              0.4491460
      0.9445400              0.3937990              0.2657040
SP   3   1.00
      1.2779000             -0.2276060             -0.0175130
      0.3975900              0.00144583             0.2445330
      0.1600950              1.0927900              0.8049340
SP   1   1.00
      0.0556577              1.0000000              1.0000000
D    1   1.00
      0.6500000              1.0000000
D    1   1.00
      0.1625000              1.0000000
F    1   1.00
      0.2500000              1.0000000
****
Si     0
S    6   1.00
  16115.9000000              0.00195948
   2425.5800000              0.01492880
    553.8670000              0.07284780
    156.3400000              0.24613000
     50.0683000              0.48591400
     17.0178000              0.32500200
SP   6   1.00
    292.7180000             -0.00278094             0.00443826
     69.8731000             -0.03571460             0.03266790
     22.3363000             -0.11498500             0.13472100
      8.1503900              0.09356340             0.32867800
      3.1345800              0.60301700             0.44964000
      1.2254300              0.41895900             0.26137200
SP   3   1.00
      1.7273800             -0.24463000            -0.01779510
      0.5729220              0.00431572             0.25353900
      0.2221920              1.09818000             0.80066900
SP   1   1.00
      0.0778369              1.00000000             1.00000000
D    1   1.00
      0.9000000              1.0000000
D    1   1.00
      0.2250000              1.0000000
F    1   1.00
      0.3200000              1.0000000
****
P     0
S    6   1.00
  19413.3000000              0.0018516
   2909.4200000              0.0142062
    661.3640000              0.0699995
    185.7590000              0.2400790
     59.1943000              0.4847620
     20.0310000              0.3352000
SP   6   1.00
    339.4780000             -0.00278217             0.00456462
     81.0101000             -0.0360499              0.03369360
     25.8780000             -0.1166310              0.13975500
      9.4522100              0.0968328              0.33936200
      3.6656600              0.6144180              0.45092100
      1.4674600              0.4037980              0.23858600
SP   3   1.00
      2.1562300             -0.2529230             -0.01776530
      0.7489970              0.0328517              0.27405800
      0.2831450              1.0812500              0.78542100
SP   1   1.00
      0.0998317              1.0000000              1.00000000
D    1   1.00
      1.1000000              1.0000000
D    1   1.00
      0.2750000              1.0000000
F    1   1.00
      0.4500000              1.0000000
****
S     0
S    6   1.00
  21917.1000000              0.0018690
   3301.4900000              0.0142300
    754.1460000              0.0696960
    212.7110000              0.2384870
     67.9896000              0.4833070
     23.0515000              0.3380740
SP   6   1.00
    423.7350000             -0.0023767              0.0040610
    100.7100000             -0.0316930              0.0306810
     32.1599000             -0.1133170              0.1304520
     11.8079000              0.0560900              0.3272050
      4.6311000              0.5922550              0.4528510
      1.8702500              0.4550060              0.2560420
SP   3   1.00
      2.6158400             -0.2503740             -0.0145110
      0.9221670              0.0669570              0.3102630
      0.3412870              1.0545100              0.7544830
SP   1   1.00
      0.1171670              1.0000000              1.0000000
D    1   1.00
      1.3000000              1.0000000
D    1   1.00
      0.3250000              1.0000000
F    1   1.00
      0.5500000              1.0000000
****
Cl     0
S    6   1.00
  25180.1000000              0.0018330
   3780.3500000              0.0140340
    860.4740000              0.0690970
    242.1450000              0.2374520
     77.3349000              0.4830340
     26.2470000              0.3398560
SP   6   1.00
    491.7650000             -0.0022974              0.0039894
    116.9840000             -0.0307140              0.0303180
     37.4153000             -0.1125280              0.1298800
     13.7834000              0.0450160              0.3279510
      5.4521500              0.5893530              0.4535270
      2.2258800              0.4652060              0.2521540
SP   3   1.00
      3.1864900             -0.2518300             -0.0142990
      1.1442700              0.0615890              0.3235720
      0.4203770              1.0601800              0.7435070
SP   1   1.00
      0.1426570              1.0000000              1.0000000
D    1   1.00
      1.5000000              1.0000000
D    1   1.00
      0.3750000              1.0000000
F    1   1.00
      0.7000000              1.0000000
****
}

set {
reference uhf
freeze_core true
e_convergence 10
d_convergence 10
dft_spherical_points 1202
dft_radial_points 99
}

e = energy('b3lyp')

print_out('Grab this energy {0}'.format(e))
--------------------------------------------------------------------------

    Molecular point group: c1

    Geometry (in Bohr), charge = 0, multiplicity = 2:

       Center              X                  Y                   Z               Mass
    ------------   -----------------  -----------------  -----------------  -----------------
         C           -0.324454652041    -0.000002162152     0.000205323198    12.000000000000
         C            0.062209279259    -1.400888411752    -2.426588429602    12.000000000000
         C            0.061127304859     2.802017106348    -0.000188886802    12.000000000000
         C            0.060286487259    -1.401123983252     2.426618523498    12.000000000000
         H            2.090737732759    -1.642915160652    -2.847291354802     1.007825032230
         H           -0.763391060641    -0.389565858952    -4.025960113702     1.007825032230
         H           -0.762590334141    -3.291494019252    -2.348896211002     1.007825032230
         H            2.087779808759     3.282069815048    -0.001896995702     1.007825032230
         H           -0.763603598741     3.682063850548     1.676472216998     1.007825032230
         H           -0.765527909741     3.684900891548    -1.675403258602     1.007825032230
         H            2.085088009459    -1.639250056552     2.837149056798     1.007825032230
         H           -0.766379200341    -3.294757804352     2.355238909698     1.007825032230
         H           -0.765255943441    -0.391082010152     4.030033722098     1.007825032230

  Charge       = 0
  Multiplicity = 2
  Basis Set: ANONYMOUSEDA76C72
    Blend: 6-31G_2DFP_
  Basis Set: (ANONYMOUSEDA76C72 AUX)
    Blend: DEF2-UNIVERSAL-JKFIT

    Orbital Energies [Eh]
    ---------------------

    Alpha Occupied:

       1A    -10.180355     2A    -10.167098     3A    -10.167067
       4A    -10.167020     5A     -0.797702     6A     -0.686179
       7A     -0.686120     8A     -0.530764     9A     -0.441295
      10A     -0.434547    11A     -0.434374    12A     -0.382976
      13A     -0.382526    14A     -0.363472    15A     -0.338128
      16A     -0.337824    17A     -0.168871

    Alpha Virtual:

      18A      0.076037    19A      0.134156    20A      0.134253
      21A      0.142354    22A      0.142763    23A      0.154674
      24A      0.178678    25A      0.178951    26A      0.203418
      27A      0.214581    28A      0.275925    29A      0.275968
      30A      0.398876    31A      0.399128    32A      0.403418
      33A      0.424147    34A      0.424353    35A      0.456359
      36A      0.495400    37A      0.495423    38A      0.512351
      39A      0.513926    40A      0.578513    41A      0.578785
      42A      0.591558    43A      0.592092    44A      0.602834
      45A      0.624701    46A      0.631499    47A      0.635948
      48A      0.636386    49A      0.663097    50A      0.663176
      51A      0.683824    52A      0.684049    53A      0.734908
      54A      0.825446    55A      0.825564    56A      0.853575
      57A      0.914564    58A      0.915200    59A      0.943888
      60A      0.945409    61A      0.961502    62A      0.961661
      63A      1.002723    64A      1.127252    65A      1.128063
      66A      1.142792    67A      1.162564    68A      1.162886
      69A      1.223407    70A      1.274410    71A      1.274599
      72A      1.279158    73A      1.324011    74A      1.324138
      75A      1.356390    76A      1.365735    77A      1.365748
      78A      1.392639    79A      1.403840    80A      1.404789
      81A      1.416912    82A      1.417599    83A      1.427312
      84A      1.490903    85A      1.499376    86A      1.542759
      87A      1.542785    88A      1.574586    89A      1.575570
      90A      1.669767    91A      1.739451    92A      1.739646
      93A      1.768478    94A      1.830694    95A      1.831545
      96A      1.971626    97A      2.018122    98A      2.018288
      99A      2.018514   100A      2.051702   101A      2.052624
     102A      2.738890   103A      2.738920   104A      2.790701
     105A      2.810913   106A      2.889612   107A      2.889940
     108A      2.894728   109A      2.928731   110A      2.929345
     111A      2.958929   112A      2.964147   113A      2.964511
     114A      3.033523   115A      3.071120   116A      3.072401
     117A      3.084709   118A      3.168624   119A      3.169081
     120A      3.180422   121A      3.285606   122A      3.285832
     123A      3.325182   124A      3.326932   125A      3.375903
     126A      3.489593   127A      3.491706   128A      3.513731
     129A      3.525161   130A      3.567683   131A      3.567868
     132A      3.574490   133A      3.665994   134A      3.666854
     135A      3.678571   136A      3.693977   137A      3.695293
     138A      3.775574   139A      3.775711   140A      3.790484
     141A      3.912014   142A      3.912250   143A      4.035566
     144A      4.111126   145A      4.111366   146A      4.148320
     147A      4.148373   148A      4.173302   149A      4.201768
     150A      4.202438   151A      4.203393   152A      4.210340
     153A      4.315470   154A      4.315853   155A      4.357796
     156A      4.424889   157A      4.425058   158A      4.442421
     159A      4.515384   160A      4.516608   161A      4.577308
     162A      4.577325   163A      4.617043   164A      4.709117
     165A      4.773626   166A      4.774827   167A      4.837928
     168A      4.962346   169A      5.002515   170A      5.003620
     171A      5.227714   172A      5.246318   173A      5.247418
     174A      5.354886   175A      5.354979   176A      5.479080

    Beta Occupied:

       1A    -10.167848     2A    -10.167822     3A    -10.167790
       4A    -10.166528     5A     -0.781024     6A     -0.683979
       7A     -0.683930     8A     -0.511739     9A     -0.430938
      10A     -0.430742    11A     -0.421987    12A     -0.377078
      13A     -0.376615    14A     -0.362463    15A     -0.333235
      16A     -0.332954

    Beta Virtual:

      17A     -0.025577    18A      0.077049    19A      0.135038
      20A      0.135121    21A      0.144237    22A      0.144601
      23A      0.163084    24A      0.182352    25A      0.182634
      26A      0.214809    27A      0.218839    28A      0.282279
      29A      0.282332    30A      0.400044    31A      0.400288
      32A      0.419844    33A      0.426962    34A      0.427171
      35A      0.468189    36A      0.497646    37A      0.497671
      38A      0.514081    39A      0.556354    40A      0.584039
      41A      0.584320    42A      0.597761    43A      0.598300
      44A      0.610231    45A      0.628075    46A      0.631659
      47A      0.639238    48A      0.639673    49A      0.666629
      50A      0.666725    51A      0.686494    52A      0.686687
      53A      0.757468    54A      0.830601    55A      0.830714
      56A      0.854925    57A      0.922516    58A      0.923100
      59A      0.945727    60A      0.954253    61A      0.966848
      62A      0.966980    63A      1.007934    64A      1.131324
      65A      1.132043    66A      1.156382    67A      1.167615
      68A      1.168004    69A      1.232274    70A      1.280003
      71A      1.280166    72A      1.284844    73A      1.328955
      74A      1.329095    75A      1.365848    76A      1.370979
      77A      1.371023    78A      1.393682    79A      1.407284
      80A      1.408243    81A      1.422011    82A      1.422689
      83A      1.427594    84A      1.491963    85A      1.509840
      86A      1.547090    87A      1.547288    88A      1.582358
      89A      1.583516    90A      1.674611    91A      1.745214
      92A      1.745403    93A      1.779242    94A      1.834556
      95A      1.835398    96A      1.972479    97A      2.024515
      98A      2.024644    99A      2.039866   100A      2.058420
     101A      2.059367   102A      2.747203   103A      2.747256
     104A      2.811320   105A      2.815832   106A      2.902357
     107A      2.902733   108A      2.924419   109A      2.931209
     110A      2.931801   111A      2.959993   112A      2.968652
     113A      2.969015   114A      3.041467   115A      3.081000
     116A      3.082367   117A      3.086524   118A      3.184385
     119A      3.184845   120A      3.188077   121A      3.290391
     122A      3.290690   123A      3.329021   124A      3.330750
     125A      3.383748   126A      3.492279   127A      3.494347
     128A      3.512088   129A      3.528244   130A      3.574096
     131A      3.581148   132A      3.581463   133A      3.670852
     134A      3.671685   135A      3.691912   136A      3.725698
     137A      3.726527   138A      3.780065   139A      3.780153
     140A      3.818990   141A      3.921872   142A      3.922119
     143A      4.046401   144A      4.117880   145A      4.118067
     146A      4.155523   147A      4.155741   148A      4.187395
     149A      4.207833   150A      4.208541   151A      4.211095
     152A      4.214780   153A      4.322924   154A      4.323251
     155A      4.361135   156A      4.433089   157A      4.433278
     158A      4.445325   159A      4.523195   160A      4.524405
     161A      4.587884   162A      4.587909   163A      4.624313
     164A      4.719354   165A      4.780564   166A      4.781824
     167A      4.840842   168A      4.967144   169A      5.006553
     170A      5.007628   171A      5.233444   172A      5.248100
     173A      5.249196   174A      5.361372   175A      5.361451
     176A      5.481397

    Final Occupation by Irrep:
              A
    DOCC [    16 ]
    SOCC [     1 ]

  @DF-UKS Final Energy:  -157.81305672881265

   => Energetics <=

    Nuclear Repulsion Energy =            125.3830219190328421
    One-Electron Energy =                -458.7262381329334744
    Two-Electron Energy =                 195.8369575064272112
    DFT Exchange-Correlation Energy =     -20.3067980213392261
    Empirical Dispersion Energy =           0.0000000000000000
    VV10 Nonlocal Energy =                  0.0000000000000000
    Total Energy =                       -157.8130567288126542

  UHF NO Occupations:
  HONO-2 :   15  A 1.9996022
  HONO-1 :   16  A 1.9989785
  HONO-0 :   17  A 1.0000000
  LUNO+0 :   18  A 0.0010215
  LUNO+1 :   19  A 0.0003978
  LUNO+2 :   20  A 0.0001980
  LUNO+3 :   21  A 0.0001977

Computation Completed

Properties will be evaluated at   0.000000,   0.000000,   0.000000 [a0]

Properties computed using the SCF density matrix

  Nuclear Dipole Moment: [e a0]
     X:     0.8319      Y:    -0.0000      Z:    -0.0003

  Electronic Dipole Moment: [e a0]
     X:    -0.7535      Y:     0.0000      Z:     0.0010

  Dipole Moment: [e a0]
     X:     0.0783      Y:     0.0000      Z:     0.0008     Total:     0.0783

  Dipole Moment: [D]
     X:     0.1991      Y:     0.0000      Z:     0.0019     Total:     0.1991

*** tstop() called on n021 at Fri Nov  5 15:18:07 2021
Module time:
	user time   =     599.60 seconds =       9.99 minutes
	system time =      12.14 seconds =       0.20 minutes
	total time  =        154 seconds =       2.57 minutes
Total time:
	user time   =     599.60 seconds =       9.99 minutes
	system time =      12.14 seconds =       0.20 minutes
	total time  =        154 seconds =       2.57 minutes
Grab this energy -157.81305672881265
    Psi4 stopped on: Friday, 05 November 2021 03:18PM
    Psi4 wall time for execution: 0:02:33.87

*** Psi4 exiting successfully. Buy a developer a beer!
