                               Psi4 1.4a2.dev629

  ==> Input File <==

--------------------------------------------------------------------------
import os
memory 14 GB

molecule {
 C   -0.3247919835   -0.0000015838   -0.0002250391
 C    0.0618498811   -1.3996378602   -2.4247167871
 C    0.0618766139    2.8016640831   -0.0004828812
 C    0.0621424578   -1.4020205725    2.4278785007
 H    2.0868147184   -1.6444937224   -2.8479428862
 H   -0.7654842958   -0.3887156198   -4.0258634003
 H   -0.7655866243   -3.2921571476   -2.3495516301
 H    2.0867494850    3.2881447709    0.0001847972
 H   -0.7657472822    3.6802396876    1.6765366120
 H   -0.7658690269    3.6802630786   -1.6763515707
 H    2.0869577356   -1.6437443493    2.8470143136
 H   -0.7658717967   -3.2917399488    2.3484809719
 H   -0.7656477592   -0.3878251293    4.0250389992
units bohr
0 2
}

basis {

assign 6-31g_2dfp_

[ 6-31g_2dfp_ ]

spherical

!----------------------------------------------------------------------
! Basis Set Exchange
! Version v0.8.13
! https://www.basissetexchange.org
!----------------------------------------------------------------------
!   Basis set: 6-31G(2df,p)
! Description: 6-31G(2df,p)
!        Role: orbital
!     Version: 0  (Data from the original Basis Set Exchange)
!----------------------------------------------------------------------

****
H     0
S    3   1.00
     18.7311370              0.03349460
      2.8253937              0.23472695
      0.6401217              0.81375733
S    1   1.00
      0.1612778              1.00000000
P    1   1.00
      1.5000000              1.0000000
P    1   1.00
      0.3750000              1.0000000
****
B     0
S    6   1.00
   2068.8823000              0.0018663
    310.6495700              0.0142515
     70.6830330              0.0695516
     19.8610800              0.2325729
      6.2993048              0.4670787
      2.1270270              0.3634314
SP   3   1.00
      4.7279710             -0.1303938              0.0745976
      1.1903377             -0.1307889              0.3078467
      0.3594117              1.1309444              0.7434568
SP   1   1.00
      0.1267512              1.0000000              1.0000000
D    1   1.00
      0.8020000              1.0000000
D    1   1.00
      0.2005000              1.0000000
F    1   1.00
      0.5000000              1.0000000
****
C     0
S    6   1.00
   3047.5249000              0.0018347
    457.3695100              0.0140373
    103.9486900              0.0688426
     29.2101550              0.2321844
      9.2866630              0.4679413
      3.1639270              0.3623120
SP   3   1.00
      7.8682724             -0.1193324              0.0689991
      1.8812885             -0.1608542              0.3164240
      0.5442493              1.1434564              0.7443083
SP   1   1.00
      0.1687144              1.0000000              1.0000000
D    1   1.00
      1.2520000              1.0000000
D    1   1.00
      0.3130000              1.0000000
F    1   1.00
      0.8000000              1.0000000
****
N     0
S    6   1.00
   4173.5110000              0.0018348
    627.4579000              0.0139950
    142.9021000              0.0685870
     40.2343300              0.2322410
     12.8202100              0.4690700
      4.3904370              0.3604550
SP   3   1.00
     11.6263580             -0.1149610              0.0675800
      2.7162800             -0.1691180              0.3239070
      0.7722180              1.1458520              0.7408950
SP   1   1.00
      0.2120313              1.0000000              1.0000000
D    1   1.00
      1.8260000              1.0000000
D    1   1.00
      0.4565000              1.0000000
F    1   1.00
      1.0000000              1.0000000
****
O     0
S    6   1.00
   5484.6717000              0.0018311
    825.2349500              0.0139501
    188.0469600              0.0684451
     52.9645000              0.2327143
     16.8975700              0.4701930
      5.7996353              0.3585209
SP   3   1.00
     15.5396160             -0.1107775              0.0708743
      3.5999336             -0.1480263              0.3397528
      1.0137618              1.1307670              0.7271586
SP   1   1.00
      0.2700058              1.0000000              1.0000000
D    1   1.00
      2.5840000              1.0000000
D    1   1.00
      0.6460000              1.0000000
F    1   1.00
      1.4000000              1.0000000
****
F     0
S    6   1.00
   7001.7130900              0.0018196169
   1051.3660900              0.0139160796
    239.2856900              0.0684053245
     67.3974453              0.233185760
     21.5199573              0.471267439
      7.40310130             0.356618546
SP   3   1.00
     20.8479528             -0.108506975            0.0716287243
      4.80830834            -0.146451658            0.3459121030
      1.34406986             1.128688580            0.7224699570
SP   1   1.00
      0.358151393            1.0000000              1.0000000
D    1   1.00
      3.5000000              1.0000000
D    1   1.00
      0.8750000              1.0000000
F    1   1.00
      1.8500000              1.0000000
****
Al     0
S    6   1.00
  13983.1000000              0.00194267
   2098.7500000              0.0148599
    477.7050000              0.0728494
    134.3600000              0.2468300
     42.8709000              0.4872580
     14.5189000              0.3234960
SP   6   1.00
    239.6680000             -0.00292619             0.00460285
     57.4419000             -0.0374080              0.0331990
     18.2859000             -0.1144870              0.1362820
      6.5991400              0.1156350              0.3304760
      2.4904900              0.6125950              0.4491460
      0.9445400              0.3937990              0.2657040
SP   3   1.00
      1.2779000             -0.2276060             -0.0175130
      0.3975900              0.00144583             0.2445330
      0.1600950              1.0927900              0.8049340
SP   1   1.00
      0.0556577              1.0000000              1.0000000
D    1   1.00
      0.6500000              1.0000000
D    1   1.00
      0.1625000              1.0000000
F    1   1.00
      0.2500000              1.0000000
****
Si     0
S    6   1.00
  16115.9000000              0.00195948
   2425.5800000              0.01492880
    553.8670000              0.07284780
    156.3400000              0.24613000
     50.0683000              0.48591400
     17.0178000              0.32500200
SP   6   1.00
    292.7180000             -0.00278094             0.00443826
     69.8731000             -0.03571460             0.03266790
     22.3363000             -0.11498500             0.13472100
      8.1503900              0.09356340             0.32867800
      3.1345800              0.60301700             0.44964000
      1.2254300              0.41895900             0.26137200
SP   3   1.00
      1.7273800             -0.24463000            -0.01779510
      0.5729220              0.00431572             0.25353900
      0.2221920              1.09818000             0.80066900
SP   1   1.00
      0.0778369              1.00000000             1.00000000
D    1   1.00
      0.9000000              1.0000000
D    1   1.00
      0.2250000              1.0000000
F    1   1.00
      0.3200000              1.0000000
****
P     0
S    6   1.00
  19413.3000000              0.0018516
   2909.4200000              0.0142062
    661.3640000              0.0699995
    185.7590000              0.2400790
     59.1943000              0.4847620
     20.0310000              0.3352000
SP   6   1.00
    339.4780000             -0.00278217             0.00456462
     81.0101000             -0.0360499              0.03369360
     25.8780000             -0.1166310              0.13975500
      9.4522100              0.0968328              0.33936200
      3.6656600              0.6144180              0.45092100
      1.4674600              0.4037980              0.23858600
SP   3   1.00
      2.1562300             -0.2529230             -0.01776530
      0.7489970              0.0328517              0.27405800
      0.2831450              1.0812500              0.78542100
SP   1   1.00
      0.0998317              1.0000000              1.00000000
D    1   1.00
      1.1000000              1.0000000
D    1   1.00
      0.2750000              1.0000000
F    1   1.00
      0.4500000              1.0000000
****
S     0
S    6   1.00
  21917.1000000              0.0018690
   3301.4900000              0.0142300
    754.1460000              0.0696960
    212.7110000              0.2384870
     67.9896000              0.4833070
     23.0515000              0.3380740
SP   6   1.00
    423.7350000             -0.0023767              0.0040610
    100.7100000             -0.0316930              0.0306810
     32.1599000             -0.1133170              0.1304520
     11.8079000              0.0560900              0.3272050
      4.6311000              0.5922550              0.4528510
      1.8702500              0.4550060              0.2560420
SP   3   1.00
      2.6158400             -0.2503740             -0.0145110
      0.9221670              0.0669570              0.3102630
      0.3412870              1.0545100              0.7544830
SP   1   1.00
      0.1171670              1.0000000              1.0000000
D    1   1.00
      1.3000000              1.0000000
D    1   1.00
      0.3250000              1.0000000
F    1   1.00
      0.5500000              1.0000000
****
Cl     0
S    6   1.00
  25180.1000000              0.0018330
   3780.3500000              0.0140340
    860.4740000              0.0690970
    242.1450000              0.2374520
     77.3349000              0.4830340
     26.2470000              0.3398560
SP   6   1.00
    491.7650000             -0.0022974              0.0039894
    116.9840000             -0.0307140              0.0303180
     37.4153000             -0.1125280              0.1298800
     13.7834000              0.0450160              0.3279510
      5.4521500              0.5893530              0.4535270
      2.2258800              0.4652060              0.2521540
SP   3   1.00
      3.1864900             -0.2518300             -0.0142990
      1.1442700              0.0615890              0.3235720
      0.4203770              1.0601800              0.7435070
SP   1   1.00
      0.1426570              1.0000000              1.0000000
D    1   1.00
      1.5000000              1.0000000
D    1   1.00
      0.3750000              1.0000000
F    1   1.00
      0.7000000              1.0000000
****
}

set {
reference uhf
freeze_core true
e_convergence 10
d_convergence 10
dft_spherical_points 1202
dft_radial_points 99
}

e = energy('b3lyp')

print_out('Grab this energy {0}'.format(e))
--------------------------------------------------------------------------

    Molecular point group: c1

    Geometry (in Bohr), charge = 0, multiplicity = 2:

       Center              X                  Y                   Z               Mass
    ------------   -----------------  -----------------  -----------------  -----------------
         C           -0.325007116911    -0.000001937697    -0.000697657362    12.000000000000
         C            0.061634747689    -1.399638214097    -2.425189405362    12.000000000000
         C            0.061661480489     2.801663729203    -0.000955499462    12.000000000000
         C            0.061927324389    -1.402020926397     2.427405882438    12.000000000000
         H            2.086599584989    -1.644494076297    -2.848415504462     1.007825032230
         H           -0.765699429211    -0.388715973697    -4.026336018562     1.007825032230
         H           -0.765801757711    -3.292157501497    -2.350024248362     1.007825032230
         H            2.086534351589     3.288144417003    -0.000287821062     1.007825032230
         H           -0.765962415611     3.680239333703     1.676063993738     1.007825032230
         H           -0.766084160311     3.680262724703    -1.676824188962     1.007825032230
         H            2.086742602189    -1.643744703197     2.846541695338     1.007825032230
         H           -0.766086930111    -3.291740302697     2.348008353638     1.007825032230
         H           -0.765862892611    -0.387825483197     4.024566380938     1.007825032230

  Charge       = 0
  Multiplicity = 2
  Basis Set: ANONYMOUSC1217033
    Blend: 6-31G_2DFP_
  Basis Set: (ANONYMOUSC1217033 AUX)
    Blend: DEF2-UNIVERSAL-JKFIT

    Orbital Energies [Eh]
    ---------------------

    Alpha Occupied:

       1A    -10.180407     2A    -10.167050     3A    -10.167010
       4A    -10.166960     5A     -0.797751     6A     -0.686192
       7A     -0.686146     8A     -0.530782     9A     -0.441180
      10A     -0.434690    11A     -0.434526    12A     -0.382796
      13A     -0.382616    14A     -0.363486    15A     -0.338114
      16A     -0.337699    17A     -0.169144

    Alpha Virtual:

      18A      0.076076    19A      0.134135    20A      0.134169
      21A      0.142542    22A      0.142669    23A      0.154959
      24A      0.178764    25A      0.178929    26A      0.203571
      27A      0.214754    28A      0.275588    29A      0.276039
      30A      0.399198    31A      0.399218    32A      0.403266
      33A      0.424025    34A      0.424113    35A      0.456687
      36A      0.495342    37A      0.495386    38A      0.512206
      39A      0.513881    40A      0.578905    41A      0.578982
      42A      0.591601    43A      0.591724    44A      0.602791
      45A      0.624681    46A      0.631713    47A      0.635925
      48A      0.636255    49A      0.663509    50A      0.663631
      51A      0.683721    52A      0.683763    53A      0.734797
      54A      0.825298    55A      0.825407    56A      0.853918
      57A      0.914946    58A      0.914977    59A      0.944175
      60A      0.944661    61A      0.961275    62A      0.961343
      63A      1.003453    64A      1.128130    65A      1.128279
      66A      1.142243    67A      1.163412    68A      1.163988
      69A      1.223162    70A      1.274118    71A      1.274721
      72A      1.279612    73A      1.324043    74A      1.324175
      75A      1.356229    76A      1.365530    77A      1.365833
      78A      1.392457    79A      1.403910    80A      1.404276
      81A      1.417187    82A      1.417504    83A      1.427973
      84A      1.491308    85A      1.499472    86A      1.542805
      87A      1.542951    88A      1.573968    89A      1.574353
      90A      1.669551    91A      1.739041    92A      1.739316
      93A      1.768368    94A      1.830507    95A      1.831517
      96A      1.971465    97A      2.017262    98A      2.018822
      99A      2.019897   100A      2.052350   101A      2.053714
     102A      2.738168   103A      2.738411   104A      2.791121
     105A      2.811396   106A      2.889627   107A      2.889783
     108A      2.895264   109A      2.929455   110A      2.929575
     111A      2.958926   112A      2.964186   113A      2.964344
     114A      3.034357   115A      3.070304   116A      3.070576
     117A      3.084280   118A      3.168701   119A      3.169081
     120A      3.180575   121A      3.286102   122A      3.286115
     123A      3.327331   124A      3.327707   125A      3.375781
     126A      3.489601   127A      3.490255   128A      3.513836
     129A      3.525793   130A      3.568016   131A      3.568192
     132A      3.575759   133A      3.665123   134A      3.666473
     135A      3.679444   136A      3.694066   137A      3.694307
     138A      3.776353   139A      3.776702   140A      3.787853
     141A      3.911453   142A      3.912954   143A      4.034142
     144A      4.110978   145A      4.111300   146A      4.147798
     147A      4.148386   148A      4.173194   149A      4.202143
     150A      4.203047   151A      4.203800   152A      4.210914
     153A      4.315430   154A      4.316864   155A      4.359461
     156A      4.423313   157A      4.425191   158A      4.443269
     159A      4.516488   160A      4.517791   161A      4.578369
     162A      4.578419   163A      4.617039   164A      4.709775
     165A      4.774104   166A      4.774736   167A      4.835723
     168A      4.962927   169A      5.002404   170A      5.003828
     171A      5.227935   172A      5.246502   173A      5.246901
     174A      5.355162   175A      5.355292   176A      5.478980

    Beta Occupied:

       1A    -10.167805     2A    -10.167765     3A    -10.167722
       4A    -10.166580     5A     -0.781080     6A     -0.683998
       7A     -0.683941     8A     -0.511745     9A     -0.431052
      10A     -0.430885    11A     -0.421909    12A     -0.376911
      13A     -0.376692    14A     -0.362469    15A     -0.333242
      16A     -0.332824

    Beta Virtual:

      17A     -0.025844    18A      0.077080    19A      0.135028
      20A      0.135035    21A      0.144432    22A      0.144525
      23A      0.163407    24A      0.182449    25A      0.182589
      26A      0.214984    27A      0.218932    28A      0.281957
      29A      0.282390    30A      0.400370    31A      0.400385
      32A      0.419685    33A      0.426837    34A      0.426928
      35A      0.468608    36A      0.497601    37A      0.497658
      38A      0.513936    39A      0.556226    40A      0.584436
      41A      0.584524    42A      0.597786    43A      0.597909
      44A      0.610189    45A      0.628079    46A      0.631871
      47A      0.639220    48A      0.639541    49A      0.667070
      50A      0.667203    51A      0.686363    52A      0.686380
      53A      0.757341    54A      0.830465    55A      0.830584
      56A      0.855267    57A      0.922926    58A      0.922961
      59A      0.946008    60A      0.953584    61A      0.966551
      62A      0.966612    63A      1.008712    64A      1.132172
      65A      1.132312    66A      1.155585    67A      1.168465
      68A      1.169078    69A      1.232132    70A      1.279727
      71A      1.280337    72A      1.285374    73A      1.329054
      74A      1.329159    75A      1.365620    76A      1.370796
      77A      1.371044    78A      1.393509    79A      1.407427
      80A      1.407690    81A      1.422231    82A      1.422510
      83A      1.428253    84A      1.492355    85A      1.509923
      86A      1.547203    87A      1.547366    88A      1.581835
      89A      1.582231    90A      1.674414    91A      1.744797
      92A      1.745078    93A      1.779129    94A      1.834364
      95A      1.835353    96A      1.972323    97A      2.025197
      98A      2.026292    99A      2.038663   100A      2.059086
     101A      2.060452   102A      2.746526   103A      2.746724
     104A      2.811816   105A      2.816237   106A      2.902384
     107A      2.902495   108A      2.924949   109A      2.931940
     110A      2.932029   111A      2.959988   112A      2.968726
     113A      2.968913   114A      3.042251   115A      3.080258
     116A      3.080518   117A      3.086095   118A      3.184316
     119A      3.184725   120A      3.188351   121A      3.290848
     122A      3.290888   123A      3.331152   124A      3.331511
     125A      3.383609   126A      3.492327   127A      3.493025
     128A      3.512206   129A      3.528847   130A      3.575616
     131A      3.581383   132A      3.581595   133A      3.669824
     134A      3.671233   135A      3.692734   136A      3.725689
     137A      3.725954   138A      3.780878   139A      3.781313
     140A      3.816391   141A      3.921283   142A      3.922682
     143A      4.045058   144A      4.117678   145A      4.118201
     146A      4.155116   147A      4.155514   148A      4.187213
     149A      4.208812   150A      4.209582   151A      4.210452
     152A      4.215367   153A      4.322862   154A      4.324354
     155A      4.362823   156A      4.431506   157A      4.433316
     158A      4.446185   159A      4.524267   160A      4.525558
     161A      4.588988   162A      4.589070   163A      4.624224
     164A      4.720146   165A      4.781091   166A      4.781684
     167A      4.838652   168A      4.967719   169A      5.006444
     170A      5.007838   171A      5.233652   172A      5.248293
     173A      5.248678   174A      5.361630   175A      5.361802
     176A      5.481308

    Final Occupation by Irrep:
              A
    DOCC [    16 ]
    SOCC [     1 ]

  @DF-UKS Final Energy:  -157.81306266328156

   => Energetics <=

    Nuclear Repulsion Energy =            125.3921840151807743
    One-Electron Energy =                -458.7442037995032251
    Two-Electron Energy =                 195.8460305802660741
    DFT Exchange-Correlation Energy =     -20.3070734592251547
    Empirical Dispersion Energy =           0.0000000000000000
    VV10 Nonlocal Energy =                  0.0000000000000000
    Total Energy =                       -157.8130626632815563

  UHF NO Occupations:
  HONO-2 :   15  A 1.9996024
  HONO-1 :   16  A 1.9989820
  HONO-0 :   17  A 1.0000000
  LUNO+0 :   18  A 0.0010180
  LUNO+1 :   19  A 0.0003976
  LUNO+2 :   20  A 0.0001980
  LUNO+3 :   21  A 0.0001973

Computation Completed

Properties will be evaluated at   0.000000,   0.000000,   0.000000 [a0]

Properties computed using the SCF density matrix

  Nuclear Dipole Moment: [e a0]
     X:     0.8257      Y:    -0.0000      Z:    -0.0033

  Electronic Dipole Moment: [e a0]
     X:    -0.7470      Y:     0.0000      Z:     0.0034

  Dipole Moment: [e a0]
     X:     0.0787      Y:     0.0000      Z:     0.0001     Total:     0.0787

  Dipole Moment: [D]
     X:     0.2000      Y:     0.0000      Z:     0.0002     Total:     0.2000

*** tstop() called on n023 at Fri Nov  5 11:31:50 2021
Module time:
	user time   =     595.08 seconds =       9.92 minutes
	system time =      11.40 seconds =       0.19 minutes
	total time  =        152 seconds =       2.53 minutes
Total time:
	user time   =     595.08 seconds =       9.92 minutes
	system time =      11.40 seconds =       0.19 minutes
	total time  =        152 seconds =       2.53 minutes
Grab this energy -157.81306266328156
    Psi4 stopped on: Friday, 05 November 2021 11:31AM
    Psi4 wall time for execution: 0:02:32.57

*** Psi4 exiting successfully. Buy a developer a beer!
