                               Psi4 1.4a2.dev629

  ==> Input File <==

--------------------------------------------------------------------------
import os
memory 14 GB

molecule {
 C   -0.3233410818    0.0024272327    0.0000000000
 C    0.0615376019   -1.4002518198   -2.4274650912
 C    0.0602239697    2.8005071982    0.0000000000
 C    0.0615376019   -1.4002518198    2.4274650912
 H    2.0882183849   -1.6464052016   -2.8456326644
 H   -0.7609218441   -0.3878012791   -4.0302833063
 H   -0.7686309804   -3.2888551546   -2.3495741220
 H    2.0842271736    3.2889228523   -0.0000000000
 H   -0.7670621315    3.6773726566    1.6767405412
 H   -0.7670621315    3.6773726566   -1.6767405412
 H    2.0882183849   -1.6464052016    2.8456326644
 H   -0.7686309804   -3.2888551546    2.3495741220
 H   -0.7609218441   -0.3878012791    4.0302833063
units bohr
0 2
}

basis {

assign 6-31g_2dfp_

[ 6-31g_2dfp_ ]

spherical

!----------------------------------------------------------------------
! Basis Set Exchange
! Version v0.8.13
! https://www.basissetexchange.org
!----------------------------------------------------------------------
!   Basis set: 6-31G(2df,p)
! Description: 6-31G(2df,p)
!        Role: orbital
!     Version: 0  (Data from the original Basis Set Exchange)
!----------------------------------------------------------------------

****
H     0
S    3   1.00
     18.7311370              0.03349460
      2.8253937              0.23472695
      0.6401217              0.81375733
S    1   1.00
      0.1612778              1.00000000
P    1   1.00
      1.5000000              1.0000000
P    1   1.00
      0.3750000              1.0000000
****
B     0
S    6   1.00
   2068.8823000              0.0018663
    310.6495700              0.0142515
     70.6830330              0.0695516
     19.8610800              0.2325729
      6.2993048              0.4670787
      2.1270270              0.3634314
SP   3   1.00
      4.7279710             -0.1303938              0.0745976
      1.1903377             -0.1307889              0.3078467
      0.3594117              1.1309444              0.7434568
SP   1   1.00
      0.1267512              1.0000000              1.0000000
D    1   1.00
      0.8020000              1.0000000
D    1   1.00
      0.2005000              1.0000000
F    1   1.00
      0.5000000              1.0000000
****
C     0
S    6   1.00
   3047.5249000              0.0018347
    457.3695100              0.0140373
    103.9486900              0.0688426
     29.2101550              0.2321844
      9.2866630              0.4679413
      3.1639270              0.3623120
SP   3   1.00
      7.8682724             -0.1193324              0.0689991
      1.8812885             -0.1608542              0.3164240
      0.5442493              1.1434564              0.7443083
SP   1   1.00
      0.1687144              1.0000000              1.0000000
D    1   1.00
      1.2520000              1.0000000
D    1   1.00
      0.3130000              1.0000000
F    1   1.00
      0.8000000              1.0000000
****
N     0
S    6   1.00
   4173.5110000              0.0018348
    627.4579000              0.0139950
    142.9021000              0.0685870
     40.2343300              0.2322410
     12.8202100              0.4690700
      4.3904370              0.3604550
SP   3   1.00
     11.6263580             -0.1149610              0.0675800
      2.7162800             -0.1691180              0.3239070
      0.7722180              1.1458520              0.7408950
SP   1   1.00
      0.2120313              1.0000000              1.0000000
D    1   1.00
      1.8260000              1.0000000
D    1   1.00
      0.4565000              1.0000000
F    1   1.00
      1.0000000              1.0000000
****
O     0
S    6   1.00
   5484.6717000              0.0018311
    825.2349500              0.0139501
    188.0469600              0.0684451
     52.9645000              0.2327143
     16.8975700              0.4701930
      5.7996353              0.3585209
SP   3   1.00
     15.5396160             -0.1107775              0.0708743
      3.5999336             -0.1480263              0.3397528
      1.0137618              1.1307670              0.7271586
SP   1   1.00
      0.2700058              1.0000000              1.0000000
D    1   1.00
      2.5840000              1.0000000
D    1   1.00
      0.6460000              1.0000000
F    1   1.00
      1.4000000              1.0000000
****
F     0
S    6   1.00
   7001.7130900              0.0018196169
   1051.3660900              0.0139160796
    239.2856900              0.0684053245
     67.3974453              0.233185760
     21.5199573              0.471267439
      7.40310130             0.356618546
SP   3   1.00
     20.8479528             -0.108506975            0.0716287243
      4.80830834            -0.146451658            0.3459121030
      1.34406986             1.128688580            0.7224699570
SP   1   1.00
      0.358151393            1.0000000              1.0000000
D    1   1.00
      3.5000000              1.0000000
D    1   1.00
      0.8750000              1.0000000
F    1   1.00
      1.8500000              1.0000000
****
Al     0
S    6   1.00
  13983.1000000              0.00194267
   2098.7500000              0.0148599
    477.7050000              0.0728494
    134.3600000              0.2468300
     42.8709000              0.4872580
     14.5189000              0.3234960
SP   6   1.00
    239.6680000             -0.00292619             0.00460285
     57.4419000             -0.0374080              0.0331990
     18.2859000             -0.1144870              0.1362820
      6.5991400              0.1156350              0.3304760
      2.4904900              0.6125950              0.4491460
      0.9445400              0.3937990              0.2657040
SP   3   1.00
      1.2779000             -0.2276060             -0.0175130
      0.3975900              0.00144583             0.2445330
      0.1600950              1.0927900              0.8049340
SP   1   1.00
      0.0556577              1.0000000              1.0000000
D    1   1.00
      0.6500000              1.0000000
D    1   1.00
      0.1625000              1.0000000
F    1   1.00
      0.2500000              1.0000000
****
Si     0
S    6   1.00
  16115.9000000              0.00195948
   2425.5800000              0.01492880
    553.8670000              0.07284780
    156.3400000              0.24613000
     50.0683000              0.48591400
     17.0178000              0.32500200
SP   6   1.00
    292.7180000             -0.00278094             0.00443826
     69.8731000             -0.03571460             0.03266790
     22.3363000             -0.11498500             0.13472100
      8.1503900              0.09356340             0.32867800
      3.1345800              0.60301700             0.44964000
      1.2254300              0.41895900             0.26137200
SP   3   1.00
      1.7273800             -0.24463000            -0.01779510
      0.5729220              0.00431572             0.25353900
      0.2221920              1.09818000             0.80066900
SP   1   1.00
      0.0778369              1.00000000             1.00000000
D    1   1.00
      0.9000000              1.0000000
D    1   1.00
      0.2250000              1.0000000
F    1   1.00
      0.3200000              1.0000000
****
P     0
S    6   1.00
  19413.3000000              0.0018516
   2909.4200000              0.0142062
    661.3640000              0.0699995
    185.7590000              0.2400790
     59.1943000              0.4847620
     20.0310000              0.3352000
SP   6   1.00
    339.4780000             -0.00278217             0.00456462
     81.0101000             -0.0360499              0.03369360
     25.8780000             -0.1166310              0.13975500
      9.4522100              0.0968328              0.33936200
      3.6656600              0.6144180              0.45092100
      1.4674600              0.4037980              0.23858600
SP   3   1.00
      2.1562300             -0.2529230             -0.01776530
      0.7489970              0.0328517              0.27405800
      0.2831450              1.0812500              0.78542100
SP   1   1.00
      0.0998317              1.0000000              1.00000000
D    1   1.00
      1.1000000              1.0000000
D    1   1.00
      0.2750000              1.0000000
F    1   1.00
      0.4500000              1.0000000
****
S     0
S    6   1.00
  21917.1000000              0.0018690
   3301.4900000              0.0142300
    754.1460000              0.0696960
    212.7110000              0.2384870
     67.9896000              0.4833070
     23.0515000              0.3380740
SP   6   1.00
    423.7350000             -0.0023767              0.0040610
    100.7100000             -0.0316930              0.0306810
     32.1599000             -0.1133170              0.1304520
     11.8079000              0.0560900              0.3272050
      4.6311000              0.5922550              0.4528510
      1.8702500              0.4550060              0.2560420
SP   3   1.00
      2.6158400             -0.2503740             -0.0145110
      0.9221670              0.0669570              0.3102630
      0.3412870              1.0545100              0.7544830
SP   1   1.00
      0.1171670              1.0000000              1.0000000
D    1   1.00
      1.3000000              1.0000000
D    1   1.00
      0.3250000              1.0000000
F    1   1.00
      0.5500000              1.0000000
****
Cl     0
S    6   1.00
  25180.1000000              0.0018330
   3780.3500000              0.0140340
    860.4740000              0.0690970
    242.1450000              0.2374520
     77.3349000              0.4830340
     26.2470000              0.3398560
SP   6   1.00
    491.7650000             -0.0022974              0.0039894
    116.9840000             -0.0307140              0.0303180
     37.4153000             -0.1125280              0.1298800
     13.7834000              0.0450160              0.3279510
      5.4521500              0.5893530              0.4535270
      2.2258800              0.4652060              0.2521540
SP   3   1.00
      3.1864900             -0.2518300             -0.0142990
      1.1442700              0.0615890              0.3235720
      0.4203770              1.0601800              0.7435070
SP   1   1.00
      0.1426570              1.0000000              1.0000000
D    1   1.00
      1.5000000              1.0000000
D    1   1.00
      0.3750000              1.0000000
F    1   1.00
      0.7000000              1.0000000
****
}

set {
reference uhf
freeze_core true
e_convergence 10
d_convergence 10
dft_spherical_points 1202
dft_radial_points 99
}

e = energy('b3lyp')

print_out('Grab this energy {0}'.format(e))
--------------------------------------------------------------------------

    Molecular point group: cs

    Geometry (in Bohr), charge = 0, multiplicity = 2:

       Center              X                  Y                   Z               Mass
    ------------   -----------------  -----------------  -----------------  -----------------
         C           -0.323340711325     0.001959474153     0.000000000000    12.000000000000
         C            0.061537972375    -1.400719578347    -2.427465091200    12.000000000000
         C            0.060224340175     2.800039439653     0.000000000000    12.000000000000
         C            0.061537972375    -1.400719578347     2.427465091200    12.000000000000
         H            2.088218755375    -1.646872960147    -2.845632664400     1.007825032230
         H           -0.760921473625    -0.388269037647    -4.030283306300     1.007825032230
         H           -0.768630609925    -3.289322913147    -2.349574122000     1.007825032230
         H            2.084227544075     3.288455093753     0.000000000000     1.007825032230
         H           -0.767061761025     3.676904898053     1.676740541200     1.007825032230
         H           -0.767061761025     3.676904898053    -1.676740541200     1.007825032230
         H            2.088218755375    -1.646872960147     2.845632664400     1.007825032230
         H           -0.768630609925    -3.289322913147     2.349574122000     1.007825032230
         H           -0.760921473625    -0.388269037647     4.030283306300     1.007825032230

  Charge       = 0
  Multiplicity = 2
  Basis Set: ANONYMOUS7DD7471C
    Blend: 6-31G_2DFP_
  Basis Set: (ANONYMOUS7DD7471C AUX)
    Blend: DEF2-UNIVERSAL-JKFIT

    Orbital Energies [Eh]
    ---------------------

    Alpha Occupied:

       1Ap   -10.180341     1App  -10.167138     2Ap   -10.167109
       3Ap   -10.166797     4Ap    -0.797767     5Ap    -0.686329
       2App   -0.686044     6Ap    -0.530776     7Ap    -0.441125
       3App   -0.434744     8Ap    -0.434599     9Ap    -0.382644
       4App   -0.382554     5App   -0.363610    10Ap    -0.338148
       6App   -0.337849    11Ap    -0.168960

    Alpha Virtual:

      12Ap     0.076073     7App    0.134094    13Ap     0.134219
      14Ap     0.142614     8App    0.142641    15Ap     0.154879
      16Ap     0.178774     9App    0.178781    17Ap     0.203547
      10App    0.214802    11App    0.275649    18Ap     0.276322
      19Ap     0.399222    12App    0.399225    20Ap     0.403356
      13App    0.424063    21Ap     0.424132    22Ap     0.456594
      23Ap     0.495339    14App    0.495440    15App    0.512160
      24Ap     0.513979    16App    0.578630    25Ap     0.578999
      17App    0.591408    26Ap     0.591863    27Ap     0.602573
      28Ap     0.624762    18App    0.631771    19App    0.636161
      29Ap     0.636340    20App    0.663208    30Ap     0.663616
      31Ap     0.683830    21App    0.683874    32Ap     0.734995
      22App    0.825376    33Ap     0.825439    23App    0.853916
      24App    0.914893    34Ap     0.915161    25App    0.944123
      35Ap     0.944614    26App    0.961246    36Ap     0.961341
      37Ap     1.003455    38Ap     1.128046    27App    1.128154
      39Ap     1.142209    40Ap     1.163160    28App    1.163406
      41Ap     1.223326    29App    1.274308    42Ap     1.274671
      43Ap     1.279360    30App    1.324235    44Ap     1.324479
      45Ap     1.355998    31App    1.365746    46Ap     1.366355
      32App    1.392447    33App    1.403735    47Ap     1.404371
      34App    1.416844    48Ap     1.417374    35App    1.427916
      36App    1.491493    49Ap     1.499081    37App    1.542694
      50Ap     1.542963    51Ap     1.574222    38App    1.574667
      52Ap     1.669830    39App    1.739158    53Ap     1.739680
      54Ap     1.768312    40App    1.830976    55Ap     1.831809
      41App    1.971728    56Ap     2.018194    42App    2.019008
      57Ap     2.019174    43App    2.051675    58Ap     2.053616
      44App    2.738430    59Ap     2.738535    60Ap     2.790928
      45App    2.811421    46App    2.889544    61Ap     2.890304
      62Ap     2.895003    63Ap     2.929324    47App    2.929670
      48App    2.958993    64Ap     2.964104    49App    2.964647
      65Ap     3.034008    50App    3.070985    66Ap     3.071585
      51App    3.084347    52App    3.168736    67Ap     3.168804
      68Ap     3.180612    53App    3.285268    69Ap     3.285361
      54App    3.326723    70Ap     3.327595    71Ap     3.375619
      55App    3.489917    72Ap     3.490407    56App    3.514003
      73Ap     3.525316    57App    3.567553    74Ap     3.569242
      58App    3.575144    75Ap     3.666144    59App    3.666600
      76Ap     3.679674    60App    3.693775    77Ap     3.694468
      78Ap     3.775423    61App    3.778144    79Ap     3.789163
      62App    3.911739    80Ap     3.912716    81Ap     4.034452
      63App    4.110348    82Ap     4.112394    64App    4.147571
      83Ap     4.148675    84Ap     4.173245    85Ap     4.202522
      65App    4.202582    86Ap     4.203681    66App    4.210872
      67App    4.315448    87Ap     4.316473    68App    4.358978
      88Ap     4.423958    69App    4.424948    70App    4.443437
      71App    4.516079    89Ap     4.517590    72App    4.577609
      90Ap     4.578912    91Ap     4.617528    92Ap     4.709449
      93Ap     4.774021    73App    4.775202    74App    4.836910
      94Ap     4.962849    75App    5.002320    95Ap     5.003594
      96Ap     5.228027    97Ap     5.246696    76App    5.246927
      77App    5.354554    98Ap     5.356463    78App    5.479350

    Beta Occupied:

       1App  -10.167890     1Ap   -10.167873     2Ap   -10.167561
       3Ap   -10.166518     4Ap    -0.781092     5Ap    -0.684120
       2App   -0.683858     6Ap    -0.511747     3App   -0.431121
       7Ap    -0.430963     8Ap    -0.421822     9Ap    -0.376717
       4App   -0.376651     5App   -0.362594    10Ap    -0.333271
       6App   -0.332972

    Beta Virtual:

      11Ap    -0.025742    12Ap     0.077082     7App    0.134980
      13Ap     0.135113    14Ap     0.144475     8App    0.144521
      15Ap     0.163338     9App    0.182444    16Ap     0.182453
      10App    0.215031    17Ap     0.218929    11App    0.282008
      18Ap     0.282659    19Ap     0.400395    12App    0.400399
      20Ap     0.419793    13App    0.426861    21Ap     0.426957
      22Ap     0.468502    23Ap     0.497606    14App    0.497693
      15App    0.513895    24Ap     0.556323    16App    0.584168
      25Ap     0.584562    17App    0.597608    26Ap     0.598021
      27Ap     0.609996    28Ap     0.628138    18App    0.631929
      19App    0.639424    29Ap     0.639648    20App    0.666783
      30Ap     0.667169    31Ap     0.686478    21App    0.686497
      32Ap     0.757517    22App    0.830572    33Ap     0.830580
      23App    0.855269    24App    0.922860    34Ap     0.923136
      25App    0.945960    35Ap     0.953543    26App    0.966523
      36Ap     0.966677    37Ap     1.008694    38Ap     1.132024
      27App    1.132234    39Ap     1.155583    40Ap     1.168299
      28App    1.168414    41Ap     1.232299    29App    1.279900
      42Ap     1.280270    43Ap     1.285117    30App    1.329238
      44Ap     1.329457    45Ap     1.365414    31App    1.371027
      46Ap     1.371560    32App    1.393504    33App    1.407172
      47Ap     1.407863    34App    1.421900    48Ap     1.422417
      35App    1.428187    36App    1.492541    49Ap     1.509525
      37App    1.547132    50Ap     1.547339    51Ap     1.582139
      38App    1.582495    52Ap     1.674677    39App    1.744906
      53Ap     1.745455    54Ap     1.779093    40App    1.834824
      55Ap     1.835671    41App    1.972587    42App    2.025365
      56Ap     2.025511    57Ap     2.039676    43App    2.058424
      58Ap     2.060302    44App    2.746738    59Ap     2.746899
      45App    2.811834    60Ap     2.816062    46App    2.902289
      61Ap     2.902988    62Ap     2.924637    63Ap     2.931828
      47App    2.932148    48App    2.960055    64Ap     2.968666
      49App    2.969175    65Ap     3.041943    50App    3.080937
      66Ap     3.081453    51App    3.086164    52App    3.184417
      67Ap     3.184567    68Ap     3.188350    53App    3.290064
      69Ap     3.290162    54App    3.330534    70Ap     3.331393
      71Ap     3.383438    55App    3.492626    72Ap     3.493159
      56App    3.512372    73Ap     3.528364    57App    3.574988
      58App    3.580934    74Ap     3.582549    75Ap     3.671034
      59App    3.671220    76Ap     3.692950    60App    3.725565
      77Ap     3.725945    78Ap     3.780015    61App    3.782624
      79Ap     3.817687    62App    3.921600    80Ap     3.922490
      81Ap     4.045340    63App    4.117165    82Ap     4.119208
      64App    4.154846    83Ap     4.155817    84Ap     4.187306
      65App    4.208508    85Ap     4.209377    86Ap     4.210739
      66App    4.215347    67App    4.322856    87Ap     4.323946
      68App    4.362340    88Ap     4.432197    69App    4.433135
      70App    4.446325    71App    4.523880    89Ap     4.525369
      72App    4.588208    90Ap     4.589513    91Ap     4.624725
      92Ap     4.719794    93Ap     4.781016    73App    4.782115
      74App    4.839827    94Ap     4.967643    75App    5.006341
      95Ap     5.007652    96Ap     5.233742    97Ap     5.248469
      76App    5.248723    77App    5.361013    98Ap     5.362965
      78App    5.481671

    Final Occupation by Irrep:
             Ap   App
    DOCC [    10,    6 ]
    SOCC [     1,    0 ]

  @DF-UKS Final Energy:  -157.81306934417660

   => Energetics <=

    Nuclear Repulsion Energy =            125.3946117445320141
    One-Electron Energy =                -458.7488903314755362
    Two-Electron Energy =                 195.8483525655786650
    DFT Exchange-Correlation Energy =     -20.3071433228117471
    Empirical Dispersion Energy =           0.0000000000000000
    VV10 Nonlocal Energy =                  0.0000000000000000
    Total Energy =                       -157.8130693441765970

  UHF NO Occupations:
  HONO-2 :    9 Ap 1.9996009
  HONO-1 :   10 Ap 1.9989805
  HONO-0 :   11 Ap 1.0000000
  LUNO+0 :   12 Ap 0.0010195
  LUNO+1 :   13 Ap 0.0003991
  LUNO+2 :    7App 0.0001981
  LUNO+3 :   14 Ap 0.0001970

Computation Completed

Properties will be evaluated at   0.000000,   0.000000,   0.000000 [a0]

Properties computed using the SCF density matrix

  Nuclear Dipole Moment: [e a0]
     X:     0.8272      Y:    -0.0033      Z:     0.0000

  Electronic Dipole Moment: [e a0]
     X:    -0.7493      Y:     0.0033      Z:     0.0000

  Dipole Moment: [e a0]
     X:     0.0779      Y:    -0.0000      Z:     0.0000     Total:     0.0779

  Dipole Moment: [D]
     X:     0.1980      Y:    -0.0001      Z:     0.0000     Total:     0.1980

*** tstop() called on n091 at Fri Nov  5 15:44:52 2021
Module time:
	user time   =     493.24 seconds =       8.22 minutes
	system time =       4.49 seconds =       0.07 minutes
	total time  =        125 seconds =       2.08 minutes
Total time:
	user time   =     493.24 seconds =       8.22 minutes
	system time =       4.49 seconds =       0.07 minutes
	total time  =        125 seconds =       2.08 minutes
Grab this energy -157.8130693441766
    Psi4 stopped on: Friday, 05 November 2021 03:44PM
    Psi4 wall time for execution: 0:02:05.18

*** Psi4 exiting successfully. Buy a developer a beer!
