                               Psi4 1.4a2.dev629

  ==> Input File <==

--------------------------------------------------------------------------
import os
memory 14 GB

molecule {
 C   -0.3233317845    0.0000052128   -0.0049975366
 C    0.0606209999   -1.4069524741   -2.4307787401
 C    0.0610187013    2.8017456247    0.0062769151
 C    0.0616646215   -1.3947850696    2.4219737245
 H    2.0862651640   -1.6488539758   -2.8538536849
 H   -0.7689495626   -0.3993239741   -4.0316201647
 H   -0.7638482883   -3.2993664285   -2.3480031841
 H    2.0867811198    3.2880639262    0.0157931627
 H   -0.7724130434    3.6728774798    1.6839219445
 H   -0.7588850116    3.6875996128   -1.6690199478
 H    2.0876088539   -1.6393394284    2.8410314699
 H   -0.7672863525   -3.2845964178    2.3499645748
 H   -0.7618532942   -0.3770984014    4.0193114667
units bohr
0 2
}

basis {

assign 6-31g_2dfp_

[ 6-31g_2dfp_ ]

spherical

!----------------------------------------------------------------------
! Basis Set Exchange
! Version v0.8.13
! https://www.basissetexchange.org
!----------------------------------------------------------------------
!   Basis set: 6-31G(2df,p)
! Description: 6-31G(2df,p)
!        Role: orbital
!     Version: 0  (Data from the original Basis Set Exchange)
!----------------------------------------------------------------------

****
H     0
S    3   1.00
     18.7311370              0.03349460
      2.8253937              0.23472695
      0.6401217              0.81375733
S    1   1.00
      0.1612778              1.00000000
P    1   1.00
      1.5000000              1.0000000
P    1   1.00
      0.3750000              1.0000000
****
B     0
S    6   1.00
   2068.8823000              0.0018663
    310.6495700              0.0142515
     70.6830330              0.0695516
     19.8610800              0.2325729
      6.2993048              0.4670787
      2.1270270              0.3634314
SP   3   1.00
      4.7279710             -0.1303938              0.0745976
      1.1903377             -0.1307889              0.3078467
      0.3594117              1.1309444              0.7434568
SP   1   1.00
      0.1267512              1.0000000              1.0000000
D    1   1.00
      0.8020000              1.0000000
D    1   1.00
      0.2005000              1.0000000
F    1   1.00
      0.5000000              1.0000000
****
C     0
S    6   1.00
   3047.5249000              0.0018347
    457.3695100              0.0140373
    103.9486900              0.0688426
     29.2101550              0.2321844
      9.2866630              0.4679413
      3.1639270              0.3623120
SP   3   1.00
      7.8682724             -0.1193324              0.0689991
      1.8812885             -0.1608542              0.3164240
      0.5442493              1.1434564              0.7443083
SP   1   1.00
      0.1687144              1.0000000              1.0000000
D    1   1.00
      1.2520000              1.0000000
D    1   1.00
      0.3130000              1.0000000
F    1   1.00
      0.8000000              1.0000000
****
N     0
S    6   1.00
   4173.5110000              0.0018348
    627.4579000              0.0139950
    142.9021000              0.0685870
     40.2343300              0.2322410
     12.8202100              0.4690700
      4.3904370              0.3604550
SP   3   1.00
     11.6263580             -0.1149610              0.0675800
      2.7162800             -0.1691180              0.3239070
      0.7722180              1.1458520              0.7408950
SP   1   1.00
      0.2120313              1.0000000              1.0000000
D    1   1.00
      1.8260000              1.0000000
D    1   1.00
      0.4565000              1.0000000
F    1   1.00
      1.0000000              1.0000000
****
O     0
S    6   1.00
   5484.6717000              0.0018311
    825.2349500              0.0139501
    188.0469600              0.0684451
     52.9645000              0.2327143
     16.8975700              0.4701930
      5.7996353              0.3585209
SP   3   1.00
     15.5396160             -0.1107775              0.0708743
      3.5999336             -0.1480263              0.3397528
      1.0137618              1.1307670              0.7271586
SP   1   1.00
      0.2700058              1.0000000              1.0000000
D    1   1.00
      2.5840000              1.0000000
D    1   1.00
      0.6460000              1.0000000
F    1   1.00
      1.4000000              1.0000000
****
F     0
S    6   1.00
   7001.7130900              0.0018196169
   1051.3660900              0.0139160796
    239.2856900              0.0684053245
     67.3974453              0.233185760
     21.5199573              0.471267439
      7.40310130             0.356618546
SP   3   1.00
     20.8479528             -0.108506975            0.0716287243
      4.80830834            -0.146451658            0.3459121030
      1.34406986             1.128688580            0.7224699570
SP   1   1.00
      0.358151393            1.0000000              1.0000000
D    1   1.00
      3.5000000              1.0000000
D    1   1.00
      0.8750000              1.0000000
F    1   1.00
      1.8500000              1.0000000
****
Al     0
S    6   1.00
  13983.1000000              0.00194267
   2098.7500000              0.0148599
    477.7050000              0.0728494
    134.3600000              0.2468300
     42.8709000              0.4872580
     14.5189000              0.3234960
SP   6   1.00
    239.6680000             -0.00292619             0.00460285
     57.4419000             -0.0374080              0.0331990
     18.2859000             -0.1144870              0.1362820
      6.5991400              0.1156350              0.3304760
      2.4904900              0.6125950              0.4491460
      0.9445400              0.3937990              0.2657040
SP   3   1.00
      1.2779000             -0.2276060             -0.0175130
      0.3975900              0.00144583             0.2445330
      0.1600950              1.0927900              0.8049340
SP   1   1.00
      0.0556577              1.0000000              1.0000000
D    1   1.00
      0.6500000              1.0000000
D    1   1.00
      0.1625000              1.0000000
F    1   1.00
      0.2500000              1.0000000
****
Si     0
S    6   1.00
  16115.9000000              0.00195948
   2425.5800000              0.01492880
    553.8670000              0.07284780
    156.3400000              0.24613000
     50.0683000              0.48591400
     17.0178000              0.32500200
SP   6   1.00
    292.7180000             -0.00278094             0.00443826
     69.8731000             -0.03571460             0.03266790
     22.3363000             -0.11498500             0.13472100
      8.1503900              0.09356340             0.32867800
      3.1345800              0.60301700             0.44964000
      1.2254300              0.41895900             0.26137200
SP   3   1.00
      1.7273800             -0.24463000            -0.01779510
      0.5729220              0.00431572             0.25353900
      0.2221920              1.09818000             0.80066900
SP   1   1.00
      0.0778369              1.00000000             1.00000000
D    1   1.00
      0.9000000              1.0000000
D    1   1.00
      0.2250000              1.0000000
F    1   1.00
      0.3200000              1.0000000
****
P     0
S    6   1.00
  19413.3000000              0.0018516
   2909.4200000              0.0142062
    661.3640000              0.0699995
    185.7590000              0.2400790
     59.1943000              0.4847620
     20.0310000              0.3352000
SP   6   1.00
    339.4780000             -0.00278217             0.00456462
     81.0101000             -0.0360499              0.03369360
     25.8780000             -0.1166310              0.13975500
      9.4522100              0.0968328              0.33936200
      3.6656600              0.6144180              0.45092100
      1.4674600              0.4037980              0.23858600
SP   3   1.00
      2.1562300             -0.2529230             -0.01776530
      0.7489970              0.0328517              0.27405800
      0.2831450              1.0812500              0.78542100
SP   1   1.00
      0.0998317              1.0000000              1.00000000
D    1   1.00
      1.1000000              1.0000000
D    1   1.00
      0.2750000              1.0000000
F    1   1.00
      0.4500000              1.0000000
****
S     0
S    6   1.00
  21917.1000000              0.0018690
   3301.4900000              0.0142300
    754.1460000              0.0696960
    212.7110000              0.2384870
     67.9896000              0.4833070
     23.0515000              0.3380740
SP   6   1.00
    423.7350000             -0.0023767              0.0040610
    100.7100000             -0.0316930              0.0306810
     32.1599000             -0.1133170              0.1304520
     11.8079000              0.0560900              0.3272050
      4.6311000              0.5922550              0.4528510
      1.8702500              0.4550060              0.2560420
SP   3   1.00
      2.6158400             -0.2503740             -0.0145110
      0.9221670              0.0669570              0.3102630
      0.3412870              1.0545100              0.7544830
SP   1   1.00
      0.1171670              1.0000000              1.0000000
D    1   1.00
      1.3000000              1.0000000
D    1   1.00
      0.3250000              1.0000000
F    1   1.00
      0.5500000              1.0000000
****
Cl     0
S    6   1.00
  25180.1000000              0.0018330
   3780.3500000              0.0140340
    860.4740000              0.0690970
    242.1450000              0.2374520
     77.3349000              0.4830340
     26.2470000              0.3398560
SP   6   1.00
    491.7650000             -0.0022974              0.0039894
    116.9840000             -0.0307140              0.0303180
     37.4153000             -0.1125280              0.1298800
     13.7834000              0.0450160              0.3279510
      5.4521500              0.5893530              0.4535270
      2.2258800              0.4652060              0.2521540
SP   3   1.00
      3.1864900             -0.2518300             -0.0142990
      1.1442700              0.0615890              0.3235720
      0.4203770              1.0601800              0.7435070
SP   1   1.00
      0.1426570              1.0000000              1.0000000
D    1   1.00
      1.5000000              1.0000000
D    1   1.00
      0.3750000              1.0000000
F    1   1.00
      0.7000000              1.0000000
****
}

set {
reference uhf
freeze_core true
e_convergence 10
d_convergence 10
dft_spherical_points 1202
dft_radial_points 99
}

e = energy('b3lyp')

print_out('Grab this energy {0}'.format(e))
--------------------------------------------------------------------------

    Molecular point group: c1

    Geometry (in Bohr), charge = 0, multiplicity = 2:

       Center              X                  Y                   Z               Mass
    ------------   -----------------  -----------------  -----------------  -----------------
         C           -0.323334196529     0.000003081677    -0.003548044690    12.000000000000
         C            0.060618587871    -1.406954605223    -2.429329248190    12.000000000000
         C            0.061016289271     2.801743493577     0.007726407010    12.000000000000
         C            0.061662209471    -1.394787200723     2.423423216410    12.000000000000
         H            2.086262751971    -1.648856106923    -2.852404192990     1.007825032230
         H           -0.768951974629    -0.399326105223    -4.030170672790     1.007825032230
         H           -0.763850700329    -3.299368559623    -2.346553692190     1.007825032230
         H            2.086778707771     3.288061795077     0.017242654610     1.007825032230
         H           -0.772415455429     3.672875348677     1.685371436410     1.007825032230
         H           -0.758887423629     3.687597481677    -1.667570455890     1.007825032230
         H            2.087606441871    -1.639341559523     2.842480961810     1.007825032230
         H           -0.767288764529    -3.284598548923     2.351414066710     1.007825032230
         H           -0.761855706229    -0.377100532523     4.020760958610     1.007825032230

  Charge       = 0
  Multiplicity = 2
  Basis Set: ANONYMOUSDF993981
    Blend: 6-31G_2DFP_
  Basis Set: (ANONYMOUSDF993981 AUX)
    Blend: DEF2-UNIVERSAL-JKFIT

    Orbital Energies [Eh]
    ---------------------

    Alpha Occupied:

       1A    -10.180341     2A    -10.167287     3A    -10.167016
       4A    -10.166743     5A     -0.797769     6A     -0.686406
       7A     -0.685965     8A     -0.530776     9A     -0.441126
      10A     -0.434936    11A     -0.434406    12A     -0.382743
      13A     -0.382453    14A     -0.363611    15A     -0.338271
      16A     -0.337724    17A     -0.168961

    Alpha Virtual:

      18A      0.076072    19A      0.133916    20A      0.134396
      21A      0.142490    22A      0.142766    23A      0.154880
      24A      0.178554    25A      0.179002    26A      0.203544
      27A      0.214807    28A      0.275817    29A      0.276156
      30A      0.399055    31A      0.399338    32A      0.403414
      33A      0.423967    34A      0.424237    35A      0.456595
      36A      0.494985    37A      0.495785    38A      0.512159
      39A      0.514000    40A      0.578554    41A      0.579054
      42A      0.591615    43A      0.591661    44A      0.602572
      45A      0.624767    46A      0.631771    47A      0.636029
      48A      0.636469    49A      0.663196    50A      0.663631
      51A      0.683611    52A      0.684097    53A      0.734993
      54A      0.824580    55A      0.826223    56A      0.853913
      57A      0.914783    58A      0.915268    59A      0.943936
      60A      0.944623    61A      0.961142    62A      0.961659
      63A      1.003481    64A      1.126958    65A      1.129284
      66A      1.142217    67A      1.162779    68A      1.163753
      69A      1.223332    70A      1.273973    71A      1.275014
      72A      1.279351    73A      1.324270    74A      1.324441
      75A      1.355976    76A      1.365299    77A      1.366748
      78A      1.392449    79A      1.403284    80A      1.404893
      81A      1.416628    82A      1.417617    83A      1.427925
      84A      1.491408    85A      1.499088    86A      1.542476
      87A      1.543191    88A      1.572628    89A      1.576368
      90A      1.669821    91A      1.738343    92A      1.740457
      93A      1.768348    94A      1.830890    95A      1.831913
      96A      1.971721    97A      2.017601    98A      2.018287
      99A      2.020469   100A      2.050135   101A      2.055237
     102A      2.738220   103A      2.738751   104A      2.790914
     105A      2.811440   106A      2.889850   107A      2.890047
     108A      2.894947   109A      2.929318   110A      2.929669
     111A      2.958987   112A      2.963492   113A      2.965290
     114A      3.034010   115A      3.070276   116A      3.072264
     117A      3.084381   118A      3.168029   119A      3.169576
     120A      3.180559   121A      3.284599   122A      3.286015
     123A      3.326216   124A      3.328117   125A      3.375667
     126A      3.489644   127A      3.490610   128A      3.514019
     129A      3.525310   130A      3.567203   131A      3.569443
     132A      3.575375   133A      3.666275   134A      3.666507
     135A      3.679657   136A      3.693655   137A      3.694553
     138A      3.775936   139A      3.777576   140A      3.789290
     141A      3.910804   142A      3.913649   143A      4.034477
     144A      4.110017   145A      4.112753   146A      4.146455
     147A      4.149759   148A      4.173231   149A      4.201363
     150A      4.202673   151A      4.204714   152A      4.210961
     153A      4.315926   154A      4.315977   155A      4.358998
     156A      4.424258   157A      4.424535   158A      4.443539
     159A      4.516018   160A      4.517687   161A      4.577197
     162A      4.579342   163A      4.617535   164A      4.709433
     165A      4.773289   166A      4.775902   167A      4.836940
     168A      4.962860   169A      5.001972   170A      5.003946
     171A      5.228027   172A      5.246662   173A      5.246980
     174A      5.354795   175A      5.356202   176A      5.479329

    Beta Occupied:

       1A    -10.168043     2A    -10.167775     3A    -10.167507
       4A    -10.166518     5A     -0.781094     6A     -0.684212
       7A     -0.683764     8A     -0.511747     9A     -0.431316
      10A     -0.430769    11A     -0.421823    12A     -0.376838
      13A     -0.376529    14A     -0.362594    15A     -0.333398
      16A     -0.332843

    Beta Virtual:

      17A     -0.025743    18A      0.077081    19A      0.134796
      20A      0.135296    21A      0.144367    22A      0.144631
      23A      0.163339    24A      0.182216    25A      0.182683
      26A      0.215035    27A      0.218927    28A      0.282153
      29A      0.282516    30A      0.400278    31A      0.400510
      32A      0.419800    33A      0.426763    34A      0.427064
      35A      0.468505    36A      0.497243    37A      0.498052
      38A      0.513907    39A      0.556329    40A      0.584134
      41A      0.584577    42A      0.597780    43A      0.597852
      44A      0.609992    45A      0.628148    46A      0.631929
      47A      0.639297    48A      0.639771    49A      0.666733
      50A      0.667219    51A      0.686195    52A      0.686784
      53A      0.757516    54A      0.829738    55A      0.831401
      56A      0.855267    57A      0.922740    58A      0.923252
      59A      0.945893    60A      0.953440    61A      0.966396
      62A      0.967014    63A      1.008718    64A      1.130994
      65A      1.133305    66A      1.155589    67A      1.167821
      68A      1.168862    69A      1.232302    70A      1.279566
      71A      1.280615    72A      1.285104    73A      1.329244
      74A      1.329446    75A      1.365387    76A      1.370437
      77A      1.372089    78A      1.393517    79A      1.406784
      80A      1.408330    81A      1.421673    82A      1.422663
      83A      1.428198    84A      1.492473    85A      1.509517
      86A      1.546780    87A      1.547699    88A      1.580648
      89A      1.584094    90A      1.674667    91A      1.744109
      92A      1.746216    93A      1.779127    94A      1.834728
      95A      1.835786    96A      1.972584    97A      2.023952
      98A      2.026933    99A      2.039642   100A      2.056943
     101A      2.061864   102A      2.746511   103A      2.747132
     104A      2.811805   105A      2.816097   106A      2.902574
     107A      2.902701   108A      2.924652   109A      2.931892
     110A      2.932061   111A      2.960054   112A      2.968065
     113A      2.969800   114A      3.041945   115A      3.080028
     116A      3.082204   117A      3.086336   118A      3.183888
     119A      3.185202   120A      3.188241   121A      3.289466
     122A      3.290749   123A      3.330014   124A      3.331931
     125A      3.383483   126A      3.492377   127A      3.493330
     128A      3.512399   129A      3.528359   130A      3.574775
     131A      3.580765   132A      3.583018   133A      3.670995
     134A      3.671274   135A      3.692954   136A      3.725331
     137A      3.726138   138A      3.780481   139A      3.782160
     140A      3.817758   141A      3.920621   142A      3.923466
     143A      4.045365   144A      4.116837   145A      4.119560
     146A      4.153720   147A      4.156914   148A      4.187292
     149A      4.207279   150A      4.210483   151A      4.210802
     152A      4.215464   153A      4.323351   154A      4.323433
     155A      4.362360   156A      4.432464   157A      4.432715
     158A      4.446470   159A      4.523904   160A      4.525375
     161A      4.587719   162A      4.590024   163A      4.624728
     164A      4.719778   165A      4.780205   166A      4.782891
     167A      4.839860   168A      4.967653   169A      5.006013
     170A      5.007985   171A      5.233741   172A      5.248442
     173A      5.248770   174A      5.361257   175A      5.362701
     176A      5.481650

    Final Occupation by Irrep:
              A
    DOCC [    16 ]
    SOCC [     1 ]

  @DF-UKS Final Energy:  -157.81306516825643

   => Energetics <=

    Nuclear Repulsion Energy =            125.3948304302003720
    One-Electron Energy =                -458.7493177770588204
    Two-Electron Energy =                 195.8485670174168547
    DFT Exchange-Correlation Energy =     -20.3071448388148532
    Empirical Dispersion Energy =           0.0000000000000000
    VV10 Nonlocal Energy =                  0.0000000000000000
    Total Energy =                       -157.8130651682564292

  UHF NO Occupations:
  HONO-2 :   15  A 1.9996009
  HONO-1 :   16  A 1.9989804
  HONO-0 :   17  A 1.0000000
  LUNO+0 :   18  A 0.0010196
  LUNO+1 :   19  A 0.0003991
  LUNO+2 :   20  A 0.0001979
  LUNO+3 :   21  A 0.0001972

Computation Completed

Properties will be evaluated at   0.000000,   0.000000,   0.000000 [a0]

Properties computed using the SCF density matrix

  Nuclear Dipole Moment: [e a0]
     X:     0.8272      Y:    -0.0000      Z:     0.0102

  Electronic Dipole Moment: [e a0]
     X:    -0.7493      Y:     0.0000      Z:    -0.0110

  Dipole Moment: [e a0]
     X:     0.0779      Y:    -0.0000      Z:    -0.0007     Total:     0.0779

  Dipole Moment: [D]
     X:     0.1980      Y:    -0.0000      Z:    -0.0019     Total:     0.1980

*** tstop() called on n089 at Fri Nov  5 15:45:16 2021
Module time:
	user time   =     645.30 seconds =      10.75 minutes
	system time =       5.72 seconds =       0.10 minutes
	total time  =        164 seconds =       2.73 minutes
Total time:
	user time   =     645.30 seconds =      10.75 minutes
	system time =       5.72 seconds =       0.10 minutes
	total time  =        164 seconds =       2.73 minutes
Grab this energy -157.81306516825643
    Psi4 stopped on: Friday, 05 November 2021 03:45PM
    Psi4 wall time for execution: 0:02:43.49

*** Psi4 exiting successfully. Buy a developer a beer!
