                               Psi4 1.4a2.dev629

  ==> Input File <==

--------------------------------------------------------------------------
import os
memory 14 GB

molecule {
 C   -0.3233414382   -0.0000045156   -0.0019976045
 C    0.0610059125   -1.4007034311   -2.4256361745
 C    0.0610174276    2.8017574309   -0.0019527887
 C    0.0612733375   -1.4010542951    2.4271262656
 H    2.0871301329   -1.6417081519   -2.8442342932
 H   -0.7663261392   -0.3893010037   -4.0232083108
 H   -0.7637682350   -3.2935512408   -2.3501884054
 H    2.0867906578    3.2881095415   -0.0056769818
 H   -0.7649384272    3.6701991361    1.6762609765
 H   -0.7663400002    3.6903136924   -1.6766892413
 H    2.0867392545   -1.6464868335    2.8506511358
 H   -0.7673646807   -3.2904487826    2.3477887363
 H   -0.7644856789   -0.3871458602    4.0277566860
units bohr
0 2
}

basis {

assign 6-31g_2dfp_

[ 6-31g_2dfp_ ]

spherical

!----------------------------------------------------------------------
! Basis Set Exchange
! Version v0.8.13
! https://www.basissetexchange.org
!----------------------------------------------------------------------
!   Basis set: 6-31G(2df,p)
! Description: 6-31G(2df,p)
!        Role: orbital
!     Version: 0  (Data from the original Basis Set Exchange)
!----------------------------------------------------------------------

****
H     0
S    3   1.00
     18.7311370              0.03349460
      2.8253937              0.23472695
      0.6401217              0.81375733
S    1   1.00
      0.1612778              1.00000000
P    1   1.00
      1.5000000              1.0000000
P    1   1.00
      0.3750000              1.0000000
****
B     0
S    6   1.00
   2068.8823000              0.0018663
    310.6495700              0.0142515
     70.6830330              0.0695516
     19.8610800              0.2325729
      6.2993048              0.4670787
      2.1270270              0.3634314
SP   3   1.00
      4.7279710             -0.1303938              0.0745976
      1.1903377             -0.1307889              0.3078467
      0.3594117              1.1309444              0.7434568
SP   1   1.00
      0.1267512              1.0000000              1.0000000
D    1   1.00
      0.8020000              1.0000000
D    1   1.00
      0.2005000              1.0000000
F    1   1.00
      0.5000000              1.0000000
****
C     0
S    6   1.00
   3047.5249000              0.0018347
    457.3695100              0.0140373
    103.9486900              0.0688426
     29.2101550              0.2321844
      9.2866630              0.4679413
      3.1639270              0.3623120
SP   3   1.00
      7.8682724             -0.1193324              0.0689991
      1.8812885             -0.1608542              0.3164240
      0.5442493              1.1434564              0.7443083
SP   1   1.00
      0.1687144              1.0000000              1.0000000
D    1   1.00
      1.2520000              1.0000000
D    1   1.00
      0.3130000              1.0000000
F    1   1.00
      0.8000000              1.0000000
****
N     0
S    6   1.00
   4173.5110000              0.0018348
    627.4579000              0.0139950
    142.9021000              0.0685870
     40.2343300              0.2322410
     12.8202100              0.4690700
      4.3904370              0.3604550
SP   3   1.00
     11.6263580             -0.1149610              0.0675800
      2.7162800             -0.1691180              0.3239070
      0.7722180              1.1458520              0.7408950
SP   1   1.00
      0.2120313              1.0000000              1.0000000
D    1   1.00
      1.8260000              1.0000000
D    1   1.00
      0.4565000              1.0000000
F    1   1.00
      1.0000000              1.0000000
****
O     0
S    6   1.00
   5484.6717000              0.0018311
    825.2349500              0.0139501
    188.0469600              0.0684451
     52.9645000              0.2327143
     16.8975700              0.4701930
      5.7996353              0.3585209
SP   3   1.00
     15.5396160             -0.1107775              0.0708743
      3.5999336             -0.1480263              0.3397528
      1.0137618              1.1307670              0.7271586
SP   1   1.00
      0.2700058              1.0000000              1.0000000
D    1   1.00
      2.5840000              1.0000000
D    1   1.00
      0.6460000              1.0000000
F    1   1.00
      1.4000000              1.0000000
****
F     0
S    6   1.00
   7001.7130900              0.0018196169
   1051.3660900              0.0139160796
    239.2856900              0.0684053245
     67.3974453              0.233185760
     21.5199573              0.471267439
      7.40310130             0.356618546
SP   3   1.00
     20.8479528             -0.108506975            0.0716287243
      4.80830834            -0.146451658            0.3459121030
      1.34406986             1.128688580            0.7224699570
SP   1   1.00
      0.358151393            1.0000000              1.0000000
D    1   1.00
      3.5000000              1.0000000
D    1   1.00
      0.8750000              1.0000000
F    1   1.00
      1.8500000              1.0000000
****
Al     0
S    6   1.00
  13983.1000000              0.00194267
   2098.7500000              0.0148599
    477.7050000              0.0728494
    134.3600000              0.2468300
     42.8709000              0.4872580
     14.5189000              0.3234960
SP   6   1.00
    239.6680000             -0.00292619             0.00460285
     57.4419000             -0.0374080              0.0331990
     18.2859000             -0.1144870              0.1362820
      6.5991400              0.1156350              0.3304760
      2.4904900              0.6125950              0.4491460
      0.9445400              0.3937990              0.2657040
SP   3   1.00
      1.2779000             -0.2276060             -0.0175130
      0.3975900              0.00144583             0.2445330
      0.1600950              1.0927900              0.8049340
SP   1   1.00
      0.0556577              1.0000000              1.0000000
D    1   1.00
      0.6500000              1.0000000
D    1   1.00
      0.1625000              1.0000000
F    1   1.00
      0.2500000              1.0000000
****
Si     0
S    6   1.00
  16115.9000000              0.00195948
   2425.5800000              0.01492880
    553.8670000              0.07284780
    156.3400000              0.24613000
     50.0683000              0.48591400
     17.0178000              0.32500200
SP   6   1.00
    292.7180000             -0.00278094             0.00443826
     69.8731000             -0.03571460             0.03266790
     22.3363000             -0.11498500             0.13472100
      8.1503900              0.09356340             0.32867800
      3.1345800              0.60301700             0.44964000
      1.2254300              0.41895900             0.26137200
SP   3   1.00
      1.7273800             -0.24463000            -0.01779510
      0.5729220              0.00431572             0.25353900
      0.2221920              1.09818000             0.80066900
SP   1   1.00
      0.0778369              1.00000000             1.00000000
D    1   1.00
      0.9000000              1.0000000
D    1   1.00
      0.2250000              1.0000000
F    1   1.00
      0.3200000              1.0000000
****
P     0
S    6   1.00
  19413.3000000              0.0018516
   2909.4200000              0.0142062
    661.3640000              0.0699995
    185.7590000              0.2400790
     59.1943000              0.4847620
     20.0310000              0.3352000
SP   6   1.00
    339.4780000             -0.00278217             0.00456462
     81.0101000             -0.0360499              0.03369360
     25.8780000             -0.1166310              0.13975500
      9.4522100              0.0968328              0.33936200
      3.6656600              0.6144180              0.45092100
      1.4674600              0.4037980              0.23858600
SP   3   1.00
      2.1562300             -0.2529230             -0.01776530
      0.7489970              0.0328517              0.27405800
      0.2831450              1.0812500              0.78542100
SP   1   1.00
      0.0998317              1.0000000              1.00000000
D    1   1.00
      1.1000000              1.0000000
D    1   1.00
      0.2750000              1.0000000
F    1   1.00
      0.4500000              1.0000000
****
S     0
S    6   1.00
  21917.1000000              0.0018690
   3301.4900000              0.0142300
    754.1460000              0.0696960
    212.7110000              0.2384870
     67.9896000              0.4833070
     23.0515000              0.3380740
SP   6   1.00
    423.7350000             -0.0023767              0.0040610
    100.7100000             -0.0316930              0.0306810
     32.1599000             -0.1133170              0.1304520
     11.8079000              0.0560900              0.3272050
      4.6311000              0.5922550              0.4528510
      1.8702500              0.4550060              0.2560420
SP   3   1.00
      2.6158400             -0.2503740             -0.0145110
      0.9221670              0.0669570              0.3102630
      0.3412870              1.0545100              0.7544830
SP   1   1.00
      0.1171670              1.0000000              1.0000000
D    1   1.00
      1.3000000              1.0000000
D    1   1.00
      0.3250000              1.0000000
F    1   1.00
      0.5500000              1.0000000
****
Cl     0
S    6   1.00
  25180.1000000              0.0018330
   3780.3500000              0.0140340
    860.4740000              0.0690970
    242.1450000              0.2374520
     77.3349000              0.4830340
     26.2470000              0.3398560
SP   6   1.00
    491.7650000             -0.0022974              0.0039894
    116.9840000             -0.0307140              0.0303180
     37.4153000             -0.1125280              0.1298800
     13.7834000              0.0450160              0.3279510
      5.4521500              0.5893530              0.4535270
      2.2258800              0.4652060              0.2521540
SP   3   1.00
      3.1864900             -0.2518300             -0.0142990
      1.1442700              0.0615890              0.3235720
      0.4203770              1.0601800              0.7435070
SP   1   1.00
      0.1426570              1.0000000              1.0000000
D    1   1.00
      1.5000000              1.0000000
D    1   1.00
      0.3750000              1.0000000
F    1   1.00
      0.7000000              1.0000000
****
}

set {
reference uhf
freeze_core true
e_convergence 10
d_convergence 10
dft_spherical_points 1202
dft_radial_points 99
}

e = energy('b3lyp')

print_out('Grab this energy {0}'.format(e))
--------------------------------------------------------------------------

    Molecular point group: c1

    Geometry (in Bohr), charge = 0, multiplicity = 2:

       Center              X                  Y                   Z               Mass
    ------------   -----------------  -----------------  -----------------  -----------------
         C           -0.323340518357    -0.000003159624    -0.001523732595    12.000000000000
         C            0.061006832343    -1.400702075124    -2.425162302595    12.000000000000
         C            0.061018347443     2.801758786876    -0.001478916795    12.000000000000
         C            0.061274257343    -1.401052939124     2.427600137505    12.000000000000
         H            2.087131052743    -1.641706795924    -2.843760421295     1.007825032230
         H           -0.766325219357    -0.389299647724    -4.022734438895     1.007825032230
         H           -0.763767315157    -3.293549884824    -2.349714533495     1.007825032230
         H            2.086791577643     3.288110897476    -0.005203109895     1.007825032230
         H           -0.764937507357     3.670200492076     1.676734848405     1.007825032230
         H           -0.766339080357     3.690315048376    -1.676215369395     1.007825032230
         H            2.086740174343    -1.646485477524     2.851125007705     1.007825032230
         H           -0.767363760857    -3.290447426624     2.348262608205     1.007825032230
         H           -0.764484759057    -0.387144504224     4.028230557905     1.007825032230

  Charge       = 0
  Multiplicity = 2
  Basis Set: ANONYMOUS245C67D9
    Blend: 6-31G_2DFP_
  Basis Set: (ANONYMOUS245C67D9 AUX)
    Blend: DEF2-UNIVERSAL-JKFIT

    Orbital Energies [Eh]
    ---------------------

    Alpha Occupied:

       1A    -10.180342     2A    -10.167175     3A    -10.167015
       4A    -10.166855     5A     -0.797767     6A     -0.686309
       7A     -0.686065     8A     -0.530775     9A     -0.441130
      10A     -0.434741    11A     -0.434601    12A     -0.382633
      13A     -0.382563    14A     -0.363611    15A     -0.338063
      16A     -0.337932    17A     -0.168961

    Alpha Virtual:

      18A      0.076073    19A      0.134122    20A      0.134185
      21A      0.142566    22A      0.142688    23A      0.154880
      24A      0.178739    25A      0.178819    26A      0.203530
      27A      0.214821    28A      0.275716    29A      0.276253
      30A      0.399189    31A      0.399261    32A      0.403351
      33A      0.424044    34A      0.424154    35A      0.456592
      36A      0.495331    37A      0.495449    38A      0.512159
      39A      0.513980    40A      0.578528    41A      0.579104
      42A      0.591339    43A      0.591926    44A      0.602575
      45A      0.624683    46A      0.631853    47A      0.636213
      48A      0.636291    49A      0.663378    50A      0.663444
      51A      0.683824    52A      0.683883    53A      0.734993
      54A      0.825191    55A      0.825622    56A      0.853916
      57A      0.914881    58A      0.915157    59A      0.944018
      60A      0.944702    61A      0.960607    62A      0.961985
      63A      1.003477    64A      1.127883    65A      1.128315
      66A      1.142216    67A      1.163170    68A      1.163386
      69A      1.223326    70A      1.274341    71A      1.274651
      72A      1.279344    73A      1.324352    74A      1.324359
      75A      1.355979    76A      1.365884    77A      1.366209
      78A      1.392464    79A      1.403719    80A      1.404341
      81A      1.416738    82A      1.417528    83A      1.427915
      84A      1.491495    85A      1.499082    86A      1.542557
      87A      1.543104    88A      1.574436    89A      1.574453
      90A      1.669838    91A      1.739051    92A      1.739799
      93A      1.768314    94A      1.830907    95A      1.831891
      96A      1.971729    97A      2.018033    98A      2.019043
      99A      2.019328   100A      2.051835   101A      2.053446
     102A      2.738205   103A      2.738760   104A      2.790926
     105A      2.811418   106A      2.889673   107A      2.890206
     108A      2.894986   109A      2.929477   110A      2.929520
     111A      2.958996   112A      2.964224   113A      2.964527
     114A      3.034014   115A      3.071153   116A      3.071416
     117A      3.084345   118A      3.168583   119A      3.168989
     120A      3.180583   121A      3.285258   122A      3.285346
     123A      3.326846   124A      3.327502   125A      3.375617
     126A      3.489980   127A      3.490298   128A      3.513938
     129A      3.525397   130A      3.568038   131A      3.568661
     132A      3.575245   133A      3.666197   134A      3.666536
     135A      3.679625   136A      3.693699   137A      3.694563
     138A      3.775582   139A      3.778063   140A      3.789151
     141A      3.911981   142A      3.912515   143A      4.034456
     144A      4.110098   145A      4.112619   146A      4.147229
     147A      4.148987   148A      4.173269   149A      4.202615
     150A      4.203030   151A      4.203130   152A      4.210871
     153A      4.315151   154A      4.316724   155A      4.359012
     156A      4.424203   157A      4.424712   158A      4.443456
     159A      4.516419   160A      4.517248   161A      4.577925
     162A      4.578588   163A      4.617538   164A      4.709432
     165A      4.773523   166A      4.775658   167A      4.836965
     168A      4.962885   169A      5.002603   170A      5.003310
     171A      5.228036   172A      5.246349   173A      5.247288
     174A      5.354783   175A      5.356221   176A      5.479356

    Beta Occupied:

       1A    -10.167933     2A    -10.167774     3A    -10.167617
       4A    -10.166520     5A     -0.781092     6A     -0.684104
       7A     -0.683875     8A     -0.511747     9A     -0.431106
      10A     -0.430985    11A     -0.421819    12A     -0.376714
      13A     -0.376653    14A     -0.362594    15A     -0.333182
      16A     -0.333059

    Beta Virtual:

      17A     -0.025743    18A      0.077082    19A      0.135020
      20A      0.135067    21A      0.144435    22A      0.144561
      23A      0.163339    24A      0.182428    25A      0.182471
      26A      0.214985    27A      0.218978    28A      0.282074
      29A      0.282591    30A      0.400363    31A      0.400433
      32A      0.419789    33A      0.426854    34A      0.426968
      35A      0.468500    36A      0.497594    37A      0.497707
      38A      0.513895    39A      0.556324    40A      0.584076
      41A      0.584655    42A      0.597533    43A      0.598092
      44A      0.609996    45A      0.628005    46A      0.632065
      47A      0.639479    48A      0.639596    49A      0.666940
      50A      0.667009    51A      0.686438    52A      0.686539
      53A      0.757515    54A      0.830338    55A      0.830812
      56A      0.855269    57A      0.922886    58A      0.923093
      59A      0.945936    60A      0.953546    61A      0.965971
      62A      0.967238    63A      1.008717    64A      1.131836
      65A      1.132416    66A      1.155596    67A      1.168315
      68A      1.168389    69A      1.232298    70A      1.279938
      71A      1.280246    72A      1.285098    73A      1.329332
      74A      1.329358    75A      1.365394    76A      1.371155
      77A      1.371421    78A      1.393526    79A      1.407161
      80A      1.407837    81A      1.421790    82A      1.422570
      83A      1.428185    84A      1.492544    85A      1.509525
      86A      1.546964    87A      1.547513    88A      1.582310
      89A      1.582324    90A      1.674685    91A      1.744804
      92A      1.745569    93A      1.779093    94A      1.834766
      95A      1.835745    96A      1.972590    97A      2.025385
      98A      2.025505    99A      2.039693   100A      2.058522
     101A      2.060187   102A      2.746558   103A      2.747081
     104A      2.811822   105A      2.816068   106A      2.902437
     107A      2.902850   108A      2.924658   109A      2.931971
     110A      2.931986   111A      2.960062   112A      2.968787
     113A      2.969055   114A      3.041949   115A      3.081071
     116A      3.081316   117A      3.086162   118A      3.184304
     119A      3.184776   120A      3.188258   121A      3.290031
     122A      3.290168   123A      3.330669   124A      3.331291
     125A      3.383434   126A      3.492728   127A      3.493009
     128A      3.512330   129A      3.528426   130A      3.574917
     131A      3.581423   132A      3.582125   133A      3.671069
     134A      3.671193   135A      3.692920   136A      3.725632
     137A      3.725866   138A      3.780155   139A      3.782545
     140A      3.817697   141A      3.921814   142A      3.922314
     143A      4.045343   144A      4.117027   145A      4.119324
     146A      4.154414   147A      4.156223   148A      4.187320
     149A      4.208941   150A      4.209064   151A      4.210607
     152A      4.215354   153A      4.322564   154A      4.324184
     155A      4.362382   156A      4.432465   157A      4.432881
     158A      4.446341   159A      4.524219   160A      4.525026
     161A      4.588527   162A      4.589185   163A      4.624733
     164A      4.719774   165A      4.780519   166A      4.782569
     167A      4.839887   168A      4.967678   169A      5.006633
     170A      5.007358   171A      5.233752   172A      5.248126
     173A      5.249080   174A      5.361242   175A      5.362723
     176A      5.481677

    Final Occupation by Irrep:
              A
    DOCC [    16 ]
    SOCC [     1 ]

  @DF-UKS Final Energy:  -157.81306337432017

   => Energetics <=

    Nuclear Repulsion Energy =            125.3946339164329231
    One-Electron Energy =                -458.7489155345028280
    Two-Electron Energy =                 195.8483615995676814
    DFT Exchange-Correlation Energy =     -20.3071433558179635
    Empirical Dispersion Energy =           0.0000000000000000
    VV10 Nonlocal Energy =                  0.0000000000000000
    Total Energy =                       -157.8130633743201656

  UHF NO Occupations:
  HONO-2 :   15  A 1.9996009
  HONO-1 :   16  A 1.9989804
  HONO-0 :   17  A 1.0000000
  LUNO+0 :   18  A 0.0010196
  LUNO+1 :   19  A 0.0003991
  LUNO+2 :   20  A 0.0001979
  LUNO+3 :   21  A 0.0001972

Computation Completed

Properties will be evaluated at   0.000000,   0.000000,   0.000000 [a0]

Properties computed using the SCF density matrix

  Nuclear Dipole Moment: [e a0]
     X:     0.8272      Y:    -0.0000      Z:     0.0033

  Electronic Dipole Moment: [e a0]
     X:    -0.7493      Y:    -0.0000      Z:    -0.0034

  Dipole Moment: [e a0]
     X:     0.0779      Y:    -0.0000      Z:    -0.0000     Total:     0.0779

  Dipole Moment: [D]
     X:     0.1980      Y:    -0.0000      Z:    -0.0001     Total:     0.1980

*** tstop() called on n082 at Fri Nov  5 15:26:38 2021
Module time:
	user time   =     495.59 seconds =       8.26 minutes
	system time =       4.65 seconds =       0.08 minutes
	total time  =        126 seconds =       2.10 minutes
Total time:
	user time   =     495.59 seconds =       8.26 minutes
	system time =       4.65 seconds =       0.08 minutes
	total time  =        126 seconds =       2.10 minutes
Grab this energy -157.81306337432017
    Psi4 stopped on: Friday, 05 November 2021 03:26PM
    Psi4 wall time for execution: 0:02:05.87

*** Psi4 exiting successfully. Buy a developer a beer!
