                               Psi4 1.4a2.dev629

  ==> Input File <==

--------------------------------------------------------------------------
import os
memory 14 GB

molecule {
 C   -0.3233387825   -0.0051218119    0.0000000000
 C    0.0611493491   -1.4019278143   -2.4271139105
 C    0.0610005043    2.7994331456    0.0000000000
 C    0.0611493491   -1.4019278143    2.4271139105
 H    2.0870953950   -1.6431671339   -2.8472358620
 H   -0.7647728151   -0.3875108955   -4.0258978336
 H   -0.7662751696   -3.2910074973   -2.3478293440
 H    2.0864754490    3.2893929296   -0.0000000000
 H   -0.7655692830    3.6817490526    1.6759512894
 H   -0.7655692830    3.6817490526   -1.6759512894
 H    2.0870953950   -1.6431671339    2.8472358620
 H   -0.7662751696   -3.2910074973    2.3478293440
 H   -0.7647728151   -0.3875108955    4.0258978336
units bohr
0 2
}

basis {

assign 6-31g_2dfp_

[ 6-31g_2dfp_ ]

spherical

!----------------------------------------------------------------------
! Basis Set Exchange
! Version v0.8.13
! https://www.basissetexchange.org
!----------------------------------------------------------------------
!   Basis set: 6-31G(2df,p)
! Description: 6-31G(2df,p)
!        Role: orbital
!     Version: 0  (Data from the original Basis Set Exchange)
!----------------------------------------------------------------------

****
H     0
S    3   1.00
     18.7311370              0.03349460
      2.8253937              0.23472695
      0.6401217              0.81375733
S    1   1.00
      0.1612778              1.00000000
P    1   1.00
      1.5000000              1.0000000
P    1   1.00
      0.3750000              1.0000000
****
B     0
S    6   1.00
   2068.8823000              0.0018663
    310.6495700              0.0142515
     70.6830330              0.0695516
     19.8610800              0.2325729
      6.2993048              0.4670787
      2.1270270              0.3634314
SP   3   1.00
      4.7279710             -0.1303938              0.0745976
      1.1903377             -0.1307889              0.3078467
      0.3594117              1.1309444              0.7434568
SP   1   1.00
      0.1267512              1.0000000              1.0000000
D    1   1.00
      0.8020000              1.0000000
D    1   1.00
      0.2005000              1.0000000
F    1   1.00
      0.5000000              1.0000000
****
C     0
S    6   1.00
   3047.5249000              0.0018347
    457.3695100              0.0140373
    103.9486900              0.0688426
     29.2101550              0.2321844
      9.2866630              0.4679413
      3.1639270              0.3623120
SP   3   1.00
      7.8682724             -0.1193324              0.0689991
      1.8812885             -0.1608542              0.3164240
      0.5442493              1.1434564              0.7443083
SP   1   1.00
      0.1687144              1.0000000              1.0000000
D    1   1.00
      1.2520000              1.0000000
D    1   1.00
      0.3130000              1.0000000
F    1   1.00
      0.8000000              1.0000000
****
N     0
S    6   1.00
   4173.5110000              0.0018348
    627.4579000              0.0139950
    142.9021000              0.0685870
     40.2343300              0.2322410
     12.8202100              0.4690700
      4.3904370              0.3604550
SP   3   1.00
     11.6263580             -0.1149610              0.0675800
      2.7162800             -0.1691180              0.3239070
      0.7722180              1.1458520              0.7408950
SP   1   1.00
      0.2120313              1.0000000              1.0000000
D    1   1.00
      1.8260000              1.0000000
D    1   1.00
      0.4565000              1.0000000
F    1   1.00
      1.0000000              1.0000000
****
O     0
S    6   1.00
   5484.6717000              0.0018311
    825.2349500              0.0139501
    188.0469600              0.0684451
     52.9645000              0.2327143
     16.8975700              0.4701930
      5.7996353              0.3585209
SP   3   1.00
     15.5396160             -0.1107775              0.0708743
      3.5999336             -0.1480263              0.3397528
      1.0137618              1.1307670              0.7271586
SP   1   1.00
      0.2700058              1.0000000              1.0000000
D    1   1.00
      2.5840000              1.0000000
D    1   1.00
      0.6460000              1.0000000
F    1   1.00
      1.4000000              1.0000000
****
F     0
S    6   1.00
   7001.7130900              0.0018196169
   1051.3660900              0.0139160796
    239.2856900              0.0684053245
     67.3974453              0.233185760
     21.5199573              0.471267439
      7.40310130             0.356618546
SP   3   1.00
     20.8479528             -0.108506975            0.0716287243
      4.80830834            -0.146451658            0.3459121030
      1.34406986             1.128688580            0.7224699570
SP   1   1.00
      0.358151393            1.0000000              1.0000000
D    1   1.00
      3.5000000              1.0000000
D    1   1.00
      0.8750000              1.0000000
F    1   1.00
      1.8500000              1.0000000
****
Al     0
S    6   1.00
  13983.1000000              0.00194267
   2098.7500000              0.0148599
    477.7050000              0.0728494
    134.3600000              0.2468300
     42.8709000              0.4872580
     14.5189000              0.3234960
SP   6   1.00
    239.6680000             -0.00292619             0.00460285
     57.4419000             -0.0374080              0.0331990
     18.2859000             -0.1144870              0.1362820
      6.5991400              0.1156350              0.3304760
      2.4904900              0.6125950              0.4491460
      0.9445400              0.3937990              0.2657040
SP   3   1.00
      1.2779000             -0.2276060             -0.0175130
      0.3975900              0.00144583             0.2445330
      0.1600950              1.0927900              0.8049340
SP   1   1.00
      0.0556577              1.0000000              1.0000000
D    1   1.00
      0.6500000              1.0000000
D    1   1.00
      0.1625000              1.0000000
F    1   1.00
      0.2500000              1.0000000
****
Si     0
S    6   1.00
  16115.9000000              0.00195948
   2425.5800000              0.01492880
    553.8670000              0.07284780
    156.3400000              0.24613000
     50.0683000              0.48591400
     17.0178000              0.32500200
SP   6   1.00
    292.7180000             -0.00278094             0.00443826
     69.8731000             -0.03571460             0.03266790
     22.3363000             -0.11498500             0.13472100
      8.1503900              0.09356340             0.32867800
      3.1345800              0.60301700             0.44964000
      1.2254300              0.41895900             0.26137200
SP   3   1.00
      1.7273800             -0.24463000            -0.01779510
      0.5729220              0.00431572             0.25353900
      0.2221920              1.09818000             0.80066900
SP   1   1.00
      0.0778369              1.00000000             1.00000000
D    1   1.00
      0.9000000              1.0000000
D    1   1.00
      0.2250000              1.0000000
F    1   1.00
      0.3200000              1.0000000
****
P     0
S    6   1.00
  19413.3000000              0.0018516
   2909.4200000              0.0142062
    661.3640000              0.0699995
    185.7590000              0.2400790
     59.1943000              0.4847620
     20.0310000              0.3352000
SP   6   1.00
    339.4780000             -0.00278217             0.00456462
     81.0101000             -0.0360499              0.03369360
     25.8780000             -0.1166310              0.13975500
      9.4522100              0.0968328              0.33936200
      3.6656600              0.6144180              0.45092100
      1.4674600              0.4037980              0.23858600
SP   3   1.00
      2.1562300             -0.2529230             -0.01776530
      0.7489970              0.0328517              0.27405800
      0.2831450              1.0812500              0.78542100
SP   1   1.00
      0.0998317              1.0000000              1.00000000
D    1   1.00
      1.1000000              1.0000000
D    1   1.00
      0.2750000              1.0000000
F    1   1.00
      0.4500000              1.0000000
****
S     0
S    6   1.00
  21917.1000000              0.0018690
   3301.4900000              0.0142300
    754.1460000              0.0696960
    212.7110000              0.2384870
     67.9896000              0.4833070
     23.0515000              0.3380740
SP   6   1.00
    423.7350000             -0.0023767              0.0040610
    100.7100000             -0.0316930              0.0306810
     32.1599000             -0.1133170              0.1304520
     11.8079000              0.0560900              0.3272050
      4.6311000              0.5922550              0.4528510
      1.8702500              0.4550060              0.2560420
SP   3   1.00
      2.6158400             -0.2503740             -0.0145110
      0.9221670              0.0669570              0.3102630
      0.3412870              1.0545100              0.7544830
SP   1   1.00
      0.1171670              1.0000000              1.0000000
D    1   1.00
      1.3000000              1.0000000
D    1   1.00
      0.3250000              1.0000000
F    1   1.00
      0.5500000              1.0000000
****
Cl     0
S    6   1.00
  25180.1000000              0.0018330
   3780.3500000              0.0140340
    860.4740000              0.0690970
    242.1450000              0.2374520
     77.3349000              0.4830340
     26.2470000              0.3398560
SP   6   1.00
    491.7650000             -0.0022974              0.0039894
    116.9840000             -0.0307140              0.0303180
     37.4153000             -0.1125280              0.1298800
     13.7834000              0.0450160              0.3279510
      5.4521500              0.5893530              0.4535270
      2.2258800              0.4652060              0.2521540
SP   3   1.00
      3.1864900             -0.2518300             -0.0142990
      1.1442700              0.0615890              0.3235720
      0.4203770              1.0601800              0.7435070
SP   1   1.00
      0.1426570              1.0000000              1.0000000
D    1   1.00
      1.5000000              1.0000000
D    1   1.00
      0.3750000              1.0000000
F    1   1.00
      0.7000000              1.0000000
****
}

set {
reference uhf
freeze_core true
e_convergence 10
d_convergence 10
dft_spherical_points 1202
dft_radial_points 99
}

e = energy('b3lyp')

print_out('Grab this energy {0}'.format(e))
--------------------------------------------------------------------------

    Molecular point group: cs

    Geometry (in Bohr), charge = 0, multiplicity = 2:

       Center              X                  Y                   Z               Mass
    ------------   -----------------  -----------------  -----------------  -----------------
         C           -0.323338860481    -0.003283082598     0.000000000000    12.000000000000
         C            0.061149271119    -1.400089084998    -2.427113910500    12.000000000000
         C            0.061000426319     2.801271874902     0.000000000000    12.000000000000
         C            0.061149271119    -1.400089084998     2.427113910500    12.000000000000
         H            2.087095317019    -1.641328404598    -2.847235862000     1.007825032230
         H           -0.764772893081    -0.385672166198    -4.025897833600     1.007825032230
         H           -0.766275247581    -3.289168767998    -2.347829344000     1.007825032230
         H            2.086475371019     3.291231658902     0.000000000000     1.007825032230
         H           -0.765569360981     3.683587781902     1.675951289400     1.007825032230
         H           -0.765569360981     3.683587781902    -1.675951289400     1.007825032230
         H            2.087095317019    -1.641328404598     2.847235862000     1.007825032230
         H           -0.766275247581    -3.289168767998     2.347829344000     1.007825032230
         H           -0.764772893081    -0.385672166198     4.025897833600     1.007825032230

  Charge       = 0
  Multiplicity = 2
  Basis Set: ANONYMOUSE5811DCD
    Blend: 6-31G_2DFP_
  Basis Set: (ANONYMOUSE5811DCD AUX)
    Blend: DEF2-UNIVERSAL-JKFIT

    Orbital Energies [Eh]
    ---------------------

    Alpha Occupied:

       1Ap   -10.180342     2Ap   -10.167094     1App  -10.166992
       3Ap   -10.166959     4Ap    -0.797768     2App   -0.686399
       5Ap    -0.685974     6Ap    -0.530775     7Ap    -0.441129
       8Ap    -0.434963     3App   -0.434376     4App   -0.382807
       9Ap    -0.382392     5App   -0.363611     6App   -0.338308
      10Ap    -0.337687    11Ap    -0.168961

    Alpha Virtual:

      12Ap     0.076073    13Ap     0.134152     7App    0.134161
      14Ap     0.142516     8App    0.142739    15Ap     0.154879
      16Ap     0.178689     9App    0.178866    17Ap     0.203546
      10App    0.214803    18Ap     0.275922    11App    0.276047
      19Ap     0.399113    12App    0.399346    20Ap     0.403344
      13App    0.424054    21Ap     0.424142    22Ap     0.456593
      23Ap     0.495363    14App    0.495416    15App    0.512160
      24Ap     0.513978    25Ap     0.578656    16App    0.578979
      26Ap     0.591579    17App    0.591693    27Ap     0.602572
      28Ap     0.624758    18App    0.631767    19App    0.636239
      29Ap     0.636268    20App    0.663284    30Ap     0.663539
      21App    0.683823    31Ap     0.683880    32Ap     0.734993
      33Ap     0.825246    22App    0.825569    23App    0.853916
      24App    0.914896    34Ap     0.915146    25App    0.944126
      35Ap     0.944621    36Ap     0.961094    26App    0.961492
      37Ap     1.003451    38Ap     1.127846    27App    1.128289
      39Ap     1.142321    40Ap     1.163154    28App    1.163371
      41Ap     1.223334    29App    1.273726    42Ap     1.275224
      43Ap     1.279396    44Ap     1.324329    30App    1.324387
      45Ap     1.355989    46Ap     1.365946    31App    1.366170
      32App    1.392457    47Ap     1.403819    33App    1.404276
      34App    1.416629    48Ap     1.417579    35App    1.427915
      36App    1.491492    49Ap     1.499081    37App    1.542760
      50Ap     1.542895    38App    1.574235    51Ap     1.574661
      52Ap     1.669823    53Ap     1.739086    39App    1.739759
      54Ap     1.768304    55Ap     1.830636    40App    1.832154
      41App    1.971739    42App    2.017940    56Ap     2.018303
      57Ap     2.020168    43App    2.052493    58Ap     2.052792
      59Ap     2.738128    44App    2.738847    60Ap     2.790923
      45App    2.811423    61Ap     2.889461    46App    2.890440
      62Ap     2.894944    63Ap     2.929161    47App    2.929829
      48App    2.958994    49App    2.964153    64Ap     2.964602
      65Ap     3.034003    66Ap     3.070655    50App    3.071919
      51App    3.084354    52App    3.168533    67Ap     3.169025
      68Ap     3.180594    69Ap     3.285027    53App    3.285605
      54App    3.326589    70Ap     3.327724    71Ap     3.375612
      72Ap     3.489956    55App    3.490347    56App    3.513996
      73Ap     3.525343    57App    3.568068    74Ap     3.568719
      58App    3.575155    75Ap     3.665965    59App    3.666764
      76Ap     3.679659    77Ap     3.694049    60App    3.694214
      78Ap     3.776207    61App    3.777376    79Ap     3.789154
      62App    3.911941    80Ap     3.912524    81Ap     4.034437
      82Ap     4.111202    63App    4.111522    83Ap     4.147462
      64App    4.148808    84Ap     4.173243    85Ap     4.202589
      65App    4.203098    86Ap     4.203129    66App    4.210859
      67App    4.315803    87Ap     4.316126    68App    4.358959
      69App    4.423413    88Ap     4.425325    70App    4.443605
      71App    4.516330    89Ap     4.517366    72App    4.578108
      90Ap     4.578222    91Ap     4.617733    92Ap     4.709451
      93Ap     4.773730    73App    4.775446    74App    4.836922
      94Ap     4.962719    95Ap     5.002645    75App    5.003406
      96Ap     5.228038    76App    5.246636    97Ap     5.246988
      98Ap     5.355003    77App    5.356000    78App    5.479341

    Beta Occupied:

       1Ap   -10.167851     1App  -10.167745     2Ap   -10.167728
       3Ap   -10.166520     4Ap    -0.781093     2App   -0.684195
       5Ap    -0.683783     6Ap    -0.511747     7Ap    -0.431339
       3App   -0.430748     8Ap    -0.421820     4App   -0.376871
       9Ap    -0.376498     5App   -0.362594     6App   -0.333441
      10Ap    -0.332801

    Beta Virtual:

      11Ap    -0.025742    12Ap     0.077081    13Ap     0.135046
       7App    0.135046    14Ap     0.144380     8App    0.144616
      15Ap     0.163338    16Ap     0.182361     9App    0.182538
      10App    0.215033    17Ap     0.218929    18Ap     0.282296
      11App    0.282369    19Ap     0.400282    12App    0.400515
      20Ap     0.419791    13App    0.426875    21Ap     0.426943
      22Ap     0.468501    23Ap     0.497627    14App    0.497673
      15App    0.513896    24Ap     0.556323    25Ap     0.584189
      16App    0.584547    26Ap     0.597748    17App    0.597882
      27Ap     0.609997    28Ap     0.628132    18App    0.631927
      29Ap     0.639536    19App    0.639540    20App    0.666848
      30Ap     0.667103    21App    0.686445    31Ap     0.686529
      32Ap     0.757517    33Ap     0.830413    22App    0.830739
      23App    0.855270    24App    0.922838    34Ap     0.923146
      25App    0.945963    35Ap     0.953548    36Ap     0.966398
      26App    0.966802    37Ap     1.008691    38Ap     1.131937
      27App    1.132297    39Ap     1.155656    40Ap     1.168253
      28App    1.168419    41Ap     1.232305    29App    1.279373
      42Ap     1.280782    43Ap     1.285140    44Ap     1.329317
      30App    1.329378    45Ap     1.365405    46Ap     1.371209
      31App    1.371392    32App    1.393514    47Ap     1.407282
      33App    1.407744    34App    1.421704    48Ap     1.422605
      35App    1.428185    36App    1.492541    49Ap     1.509524
      37App    1.547167    50Ap     1.547303    38App    1.582127
      51Ap     1.582513    52Ap     1.674670    53Ap     1.744840
      39App    1.745528    54Ap     1.779083    55Ap     1.834488
      40App    1.836013    41App    1.972598    42App    2.024348
      56Ap     2.026559    57Ap     2.039684    43App    2.059194
      58Ap     2.059520    59Ap     2.746456    44App    2.747190
      45App    2.811835    60Ap     2.816059    61Ap     2.902218
      46App    2.903060    62Ap     2.924649    63Ap     2.931573
      47App    2.932380    48App    2.960056    49App    2.968684
      64Ap     2.969160    65Ap     3.041938    66Ap     3.080646
      50App    3.081744    51App    3.086173    52App    3.184363
      67Ap     3.184688    68Ap     3.188284    69Ap     3.289840
      53App    3.290389    54App    3.330399    70Ap     3.331523
      71Ap     3.383430    72Ap     3.492700    55App    3.493063
      56App    3.512365    73Ap     3.528388    57App    3.574987
      58App    3.581461    74Ap     3.582034    75Ap     3.670611
      59App    3.671616    76Ap     3.692961    60App    3.725733
      77Ap     3.725781    78Ap     3.780808    61App    3.781849
      79Ap     3.817671    62App    3.921807    80Ap     3.922297
      81Ap     4.045323    82Ap     4.118168    63App    4.118191
      83Ap     4.154596    64App    4.156085    84Ap     4.187305
      85Ap     4.208999    65App    4.209014    86Ap     4.210645
      66App    4.215330    67App    4.323277    87Ap     4.323530
      68App    4.362322    69App    4.431592    88Ap     4.433516
      70App    4.446552    71App    4.524173    89Ap     4.525104
      72App    4.588697    90Ap     4.588821    91Ap     4.624939
      92Ap     4.719797    93Ap     4.780667    73App    4.782416
      74App    4.839839    94Ap     4.967510    95Ap     5.006689
      75App    5.007445    96Ap     5.233754    76App    5.248422
      97Ap     5.248770    98Ap     5.361479    77App    5.362485
      78App    5.481663

    Final Occupation by Irrep:
             Ap   App
    DOCC [    10,    6 ]
    SOCC [     1,    0 ]

  @DF-UKS Final Energy:  -157.81306727799875

   => Energetics <=

    Nuclear Repulsion Energy =            125.3946323701197088
    One-Electron Energy =                -458.7489242597752082
    Two-Electron Energy =                 195.8483669619873240
    DFT Exchange-Correlation Energy =     -20.3071423503305901
    Empirical Dispersion Energy =           0.0000000000000000
    VV10 Nonlocal Energy =                  0.0000000000000000
    Total Energy =                       -157.8130672779987549

  UHF NO Occupations:
  HONO-2 :    9 Ap 1.9996009
  HONO-1 :   10 Ap 1.9989805
  HONO-0 :   11 Ap 1.0000000
  LUNO+0 :   12 Ap 0.0010195
  LUNO+1 :   13 Ap 0.0003991
  LUNO+2 :   14 Ap 0.0001982
  LUNO+3 :    7App 0.0001969

Computation Completed

Properties will be evaluated at   0.000000,   0.000000,   0.000000 [a0]

Properties computed using the SCF density matrix

  Nuclear Dipole Moment: [e a0]
     X:     0.8272      Y:     0.0129      Z:     0.0000

  Electronic Dipole Moment: [e a0]
     X:    -0.7493      Y:    -0.0142      Z:     0.0000

  Dipole Moment: [e a0]
     X:     0.0779      Y:    -0.0013      Z:     0.0000     Total:     0.0779

  Dipole Moment: [D]
     X:     0.1980      Y:    -0.0033      Z:     0.0000     Total:     0.1981

*** tstop() called on n082 at Fri Nov  5 12:56:09 2021
Module time:
	user time   =     497.95 seconds =       8.30 minutes
	system time =       4.53 seconds =       0.08 minutes
	total time  =        127 seconds =       2.12 minutes
Total time:
	user time   =     497.95 seconds =       8.30 minutes
	system time =       4.53 seconds =       0.08 minutes
	total time  =        127 seconds =       2.12 minutes
Grab this energy -157.81306727799875
    Psi4 stopped on: Friday, 05 November 2021 12:56PM
    Psi4 wall time for execution: 0:02:06.35

*** Psi4 exiting successfully. Buy a developer a beer!
