                               Psi4 1.4a2.dev629

  ==> Input File <==

--------------------------------------------------------------------------
import os
memory 14 GB

molecule {
 C   -0.3233404222    0.0002702571    0.0000000000
 C    0.0617448580   -1.4003605774   -2.4253141206
 C    0.0598094941    2.8041259738    0.0000000000
 C    0.0617448580   -1.4003605774    2.4253141206
 H    2.0848348038   -1.6441141315   -2.8481054545
 H   -0.7632940282   -0.3870387618   -4.0260419930
 H   -0.7656397341   -3.2938036494   -2.3487770280
 H    2.0909987107    3.2869222846    0.0000000000
 H   -0.7676837291    3.6796457055    1.6735254975
 H   -0.7676837291    3.6796457055   -1.6735254975
 H    2.0848348038   -1.6441141315    2.8481054545
 H   -0.7656397341   -3.2938036494    2.3487770280
 H   -0.7632940282   -0.3870387618    4.0260419930
units bohr
0 2
}

basis {

assign 6-31g_2dfp_

[ 6-31g_2dfp_ ]

spherical

!----------------------------------------------------------------------
! Basis Set Exchange
! Version v0.8.13
! https://www.basissetexchange.org
!----------------------------------------------------------------------
!   Basis set: 6-31G(2df,p)
! Description: 6-31G(2df,p)
!        Role: orbital
!     Version: 0  (Data from the original Basis Set Exchange)
!----------------------------------------------------------------------

****
H     0
S    3   1.00
     18.7311370              0.03349460
      2.8253937              0.23472695
      0.6401217              0.81375733
S    1   1.00
      0.1612778              1.00000000
P    1   1.00
      1.5000000              1.0000000
P    1   1.00
      0.3750000              1.0000000
****
B     0
S    6   1.00
   2068.8823000              0.0018663
    310.6495700              0.0142515
     70.6830330              0.0695516
     19.8610800              0.2325729
      6.2993048              0.4670787
      2.1270270              0.3634314
SP   3   1.00
      4.7279710             -0.1303938              0.0745976
      1.1903377             -0.1307889              0.3078467
      0.3594117              1.1309444              0.7434568
SP   1   1.00
      0.1267512              1.0000000              1.0000000
D    1   1.00
      0.8020000              1.0000000
D    1   1.00
      0.2005000              1.0000000
F    1   1.00
      0.5000000              1.0000000
****
C     0
S    6   1.00
   3047.5249000              0.0018347
    457.3695100              0.0140373
    103.9486900              0.0688426
     29.2101550              0.2321844
      9.2866630              0.4679413
      3.1639270              0.3623120
SP   3   1.00
      7.8682724             -0.1193324              0.0689991
      1.8812885             -0.1608542              0.3164240
      0.5442493              1.1434564              0.7443083
SP   1   1.00
      0.1687144              1.0000000              1.0000000
D    1   1.00
      1.2520000              1.0000000
D    1   1.00
      0.3130000              1.0000000
F    1   1.00
      0.8000000              1.0000000
****
N     0
S    6   1.00
   4173.5110000              0.0018348
    627.4579000              0.0139950
    142.9021000              0.0685870
     40.2343300              0.2322410
     12.8202100              0.4690700
      4.3904370              0.3604550
SP   3   1.00
     11.6263580             -0.1149610              0.0675800
      2.7162800             -0.1691180              0.3239070
      0.7722180              1.1458520              0.7408950
SP   1   1.00
      0.2120313              1.0000000              1.0000000
D    1   1.00
      1.8260000              1.0000000
D    1   1.00
      0.4565000              1.0000000
F    1   1.00
      1.0000000              1.0000000
****
O     0
S    6   1.00
   5484.6717000              0.0018311
    825.2349500              0.0139501
    188.0469600              0.0684451
     52.9645000              0.2327143
     16.8975700              0.4701930
      5.7996353              0.3585209
SP   3   1.00
     15.5396160             -0.1107775              0.0708743
      3.5999336             -0.1480263              0.3397528
      1.0137618              1.1307670              0.7271586
SP   1   1.00
      0.2700058              1.0000000              1.0000000
D    1   1.00
      2.5840000              1.0000000
D    1   1.00
      0.6460000              1.0000000
F    1   1.00
      1.4000000              1.0000000
****
F     0
S    6   1.00
   7001.7130900              0.0018196169
   1051.3660900              0.0139160796
    239.2856900              0.0684053245
     67.3974453              0.233185760
     21.5199573              0.471267439
      7.40310130             0.356618546
SP   3   1.00
     20.8479528             -0.108506975            0.0716287243
      4.80830834            -0.146451658            0.3459121030
      1.34406986             1.128688580            0.7224699570
SP   1   1.00
      0.358151393            1.0000000              1.0000000
D    1   1.00
      3.5000000              1.0000000
D    1   1.00
      0.8750000              1.0000000
F    1   1.00
      1.8500000              1.0000000
****
Al     0
S    6   1.00
  13983.1000000              0.00194267
   2098.7500000              0.0148599
    477.7050000              0.0728494
    134.3600000              0.2468300
     42.8709000              0.4872580
     14.5189000              0.3234960
SP   6   1.00
    239.6680000             -0.00292619             0.00460285
     57.4419000             -0.0374080              0.0331990
     18.2859000             -0.1144870              0.1362820
      6.5991400              0.1156350              0.3304760
      2.4904900              0.6125950              0.4491460
      0.9445400              0.3937990              0.2657040
SP   3   1.00
      1.2779000             -0.2276060             -0.0175130
      0.3975900              0.00144583             0.2445330
      0.1600950              1.0927900              0.8049340
SP   1   1.00
      0.0556577              1.0000000              1.0000000
D    1   1.00
      0.6500000              1.0000000
D    1   1.00
      0.1625000              1.0000000
F    1   1.00
      0.2500000              1.0000000
****
Si     0
S    6   1.00
  16115.9000000              0.00195948
   2425.5800000              0.01492880
    553.8670000              0.07284780
    156.3400000              0.24613000
     50.0683000              0.48591400
     17.0178000              0.32500200
SP   6   1.00
    292.7180000             -0.00278094             0.00443826
     69.8731000             -0.03571460             0.03266790
     22.3363000             -0.11498500             0.13472100
      8.1503900              0.09356340             0.32867800
      3.1345800              0.60301700             0.44964000
      1.2254300              0.41895900             0.26137200
SP   3   1.00
      1.7273800             -0.24463000            -0.01779510
      0.5729220              0.00431572             0.25353900
      0.2221920              1.09818000             0.80066900
SP   1   1.00
      0.0778369              1.00000000             1.00000000
D    1   1.00
      0.9000000              1.0000000
D    1   1.00
      0.2250000              1.0000000
F    1   1.00
      0.3200000              1.0000000
****
P     0
S    6   1.00
  19413.3000000              0.0018516
   2909.4200000              0.0142062
    661.3640000              0.0699995
    185.7590000              0.2400790
     59.1943000              0.4847620
     20.0310000              0.3352000
SP   6   1.00
    339.4780000             -0.00278217             0.00456462
     81.0101000             -0.0360499              0.03369360
     25.8780000             -0.1166310              0.13975500
      9.4522100              0.0968328              0.33936200
      3.6656600              0.6144180              0.45092100
      1.4674600              0.4037980              0.23858600
SP   3   1.00
      2.1562300             -0.2529230             -0.01776530
      0.7489970              0.0328517              0.27405800
      0.2831450              1.0812500              0.78542100
SP   1   1.00
      0.0998317              1.0000000              1.00000000
D    1   1.00
      1.1000000              1.0000000
D    1   1.00
      0.2750000              1.0000000
F    1   1.00
      0.4500000              1.0000000
****
S     0
S    6   1.00
  21917.1000000              0.0018690
   3301.4900000              0.0142300
    754.1460000              0.0696960
    212.7110000              0.2384870
     67.9896000              0.4833070
     23.0515000              0.3380740
SP   6   1.00
    423.7350000             -0.0023767              0.0040610
    100.7100000             -0.0316930              0.0306810
     32.1599000             -0.1133170              0.1304520
     11.8079000              0.0560900              0.3272050
      4.6311000              0.5922550              0.4528510
      1.8702500              0.4550060              0.2560420
SP   3   1.00
      2.6158400             -0.2503740             -0.0145110
      0.9221670              0.0669570              0.3102630
      0.3412870              1.0545100              0.7544830
SP   1   1.00
      0.1171670              1.0000000              1.0000000
D    1   1.00
      1.3000000              1.0000000
D    1   1.00
      0.3250000              1.0000000
F    1   1.00
      0.5500000              1.0000000
****
Cl     0
S    6   1.00
  25180.1000000              0.0018330
   3780.3500000              0.0140340
    860.4740000              0.0690970
    242.1450000              0.2374520
     77.3349000              0.4830340
     26.2470000              0.3398560
SP   6   1.00
    491.7650000             -0.0022974              0.0039894
    116.9840000             -0.0307140              0.0303180
     37.4153000             -0.1125280              0.1298800
     13.7834000              0.0450160              0.3279510
      5.4521500              0.5893530              0.4535270
      2.2258800              0.4652060              0.2521540
SP   3   1.00
      3.1864900             -0.2518300             -0.0142990
      1.1442700              0.0615890              0.3235720
      0.4203770              1.0601800              0.7435070
SP   1   1.00
      0.1426570              1.0000000              1.0000000
D    1   1.00
      1.5000000              1.0000000
D    1   1.00
      0.3750000              1.0000000
F    1   1.00
      0.7000000              1.0000000
****
}

set {
reference uhf
freeze_core true
e_convergence 10
d_convergence 10
dft_spherical_points 1202
dft_radial_points 99
}

e = energy('b3lyp')

print_out('Grab this energy {0}'.format(e))
--------------------------------------------------------------------------

    Molecular point group: cs

    Geometry (in Bohr), charge = 0, multiplicity = 2:

       Center              X                  Y                   Z               Mass
    ------------   -----------------  -----------------  -----------------  -----------------
         C           -0.323340185823    -0.000437159664     0.000000000000    12.000000000000
         C            0.061745094377    -1.401067994164    -2.425314120600    12.000000000000
         C            0.059809730477     2.803418557036     0.000000000000    12.000000000000
         C            0.061745094377    -1.401067994164     2.425314120600    12.000000000000
         H            2.084835040177    -1.644821548264    -2.848105454500     1.007825032230
         H           -0.763293791823    -0.387746178564    -4.026041993000     1.007825032230
         H           -0.765639497723    -3.294511066164    -2.348777028000     1.007825032230
         H            2.090998947077     3.286214867836     0.000000000000     1.007825032230
         H           -0.767683492723     3.678938288736     1.673525497500     1.007825032230
         H           -0.767683492723     3.678938288736    -1.673525497500     1.007825032230
         H            2.084835040177    -1.644821548264     2.848105454500     1.007825032230
         H           -0.765639497723    -3.294511066164     2.348777028000     1.007825032230
         H           -0.763293791823    -0.387746178564     4.026041993000     1.007825032230

  Charge       = 0
  Multiplicity = 2
  Basis Set: ANONYMOUS14872B53
    Blend: 6-31G_2DFP_
  Basis Set: (ANONYMOUS14872B53 AUX)
    Blend: DEF2-UNIVERSAL-JKFIT

    Orbital Energies [Eh]
    ---------------------

    Alpha Occupied:

       1Ap   -10.180342     1App  -10.167038     2Ap   -10.167025
       3Ap   -10.166981     4Ap    -0.797766     5Ap    -0.686211
       2App   -0.686164     6Ap    -0.530778     7Ap    -0.441127
       3App   -0.434776     8Ap    -0.434563     9Ap    -0.382665
       4App   -0.382531     5App   -0.363612     6App   -0.338174
      10Ap    -0.337823    11Ap    -0.168961

    Alpha Virtual:

      12Ap     0.076071    13Ap     0.134003     7App    0.134303
      14Ap     0.142500     8App    0.142754    15Ap     0.154881
      16Ap     0.178777     9App    0.178781    17Ap     0.203546
      10App    0.214804    18Ap     0.275838    11App    0.276134
      12App    0.399207    19Ap     0.399246    20Ap     0.403347
      21Ap     0.423968    13App    0.424226    22Ap     0.456593
      14App    0.495267    23Ap     0.495512    15App    0.512160
      24Ap     0.513980    25Ap     0.578601    16App    0.579034
      26Ap     0.591535    17App    0.591721    27Ap     0.602580
      28Ap     0.624765    18App    0.631738    29Ap     0.635978
      19App    0.636554    30Ap     0.662985    20App    0.663846
      21App    0.683658    31Ap     0.684052    32Ap     0.734995
      22App    0.825327    33Ap     0.825481    23App    0.853921
      34Ap     0.914798    24App    0.915252    25App    0.944125
      35Ap     0.944614    36Ap     0.961206    26App    0.961383
      37Ap     1.003452    38Ap     1.127971    27App    1.128241
      39Ap     1.142206    40Ap     1.162873    28App    1.163683
      41Ap     1.223325    42Ap     1.273974    29App    1.274942
      43Ap     1.279423    44Ap     1.324253    30App    1.324461
      45Ap     1.355970    46Ap     1.365876    31App    1.366225
      32App    1.392452    47Ap     1.403798    33App    1.404343
      34App    1.416725    48Ap     1.417479    35App    1.427913
      36App    1.491485    49Ap     1.499075    50Ap     1.542313
      37App    1.543362    51Ap     1.574406    38App    1.574483
      52Ap     1.669811    53Ap     1.739343    39App    1.739446
      54Ap     1.768360    40App    1.830090    55Ap     1.832724
      41App    1.971725    56Ap     2.017565    57Ap     2.018811
      42App    2.020028    58Ap     2.051019    43App    2.054271
      59Ap     2.738194    44App    2.738773    60Ap     2.790926
      45App    2.811426    61Ap     2.889877    46App    2.890026
      62Ap     2.894946    63Ap     2.929421    47App    2.929573
      48App    2.958996    64Ap     2.963959    49App    2.964791
      65Ap     3.034015    50App    3.071161    66Ap     3.071406
      51App    3.084359    67Ap     3.168742    52App    3.168760
      68Ap     3.180648    53App    3.285000    69Ap     3.285632
      54App    3.327145    70Ap     3.327173    71Ap     3.375623
      72Ap     3.490001    55App    3.490301    56App    3.514015
      73Ap     3.525319    57App    3.568349    74Ap     3.568453
      58App    3.575167    75Ap     3.666346    59App    3.666430
      76Ap     3.679596    60App    3.693838    77Ap     3.694451
      78Ap     3.776621    61App    3.776987    79Ap     3.789134
      80Ap     3.911580    62App    3.912879    81Ap     4.034450
      82Ap     4.110737    63App    4.111967    64App    4.147818
      83Ap     4.148353    84Ap     4.173228    85Ap     4.201843
      65App    4.202568    86Ap     4.204304    66App    4.210984
      87Ap     4.314421    67App    4.317541    68App    4.358979
      88Ap     4.423858    69App    4.425003    70App    4.443516
      89Ap     4.515484    71App    4.518202    72App    4.578177
      90Ap     4.578384    91Ap     4.617538    92Ap     4.709452
      93Ap     4.774454    73App    4.774724    74App    4.836893
      94Ap     4.962840    95Ap     5.002943    75App    5.002976
      96Ap     5.228014    97Ap     5.244543    76App    5.249073
      98Ap     5.354271    77App    5.356792    78App    5.479372

    Beta Occupied:

       1App  -10.167792     1Ap   -10.167781     2Ap   -10.167751
       3Ap   -10.166519     4Ap    -0.781091     5Ap    -0.684024
       2App   -0.683956     6Ap    -0.511749     3App   -0.431142
       7Ap    -0.430946     8Ap    -0.421818     9Ap    -0.376748
       4App   -0.376618     5App   -0.362596     6App   -0.333305
      10Ap    -0.332938

    Beta Virtual:

      11Ap    -0.025743    12Ap     0.077080    13Ap     0.134884
       7App    0.135204    14Ap     0.144414     8App    0.144582
      15Ap     0.163337    16Ap     0.182418     9App    0.182484
      10App    0.215033    17Ap     0.218929    18Ap     0.282198
      11App    0.282470    12App    0.400374    19Ap     0.400420
      20Ap     0.419791    21Ap     0.426779    13App    0.427038
      22Ap     0.468500    14App    0.497526    23Ap     0.497773
      15App    0.513895    24Ap     0.556325    25Ap     0.584161
      16App    0.584573    26Ap     0.597693    17App    0.597924
      27Ap     0.610002    28Ap     0.628139    18App    0.631911
      29Ap     0.639269    19App    0.639818    30Ap     0.666576
      20App    0.667384    21App    0.686324    31Ap     0.686656
      32Ap     0.757518    22App    0.830487    33Ap     0.830657
      23App    0.855276    34Ap     0.922781    24App    0.923211
      25App    0.945962    35Ap     0.953544    36Ap     0.966479
      26App    0.966721    37Ap     1.008692    38Ap     1.132070
      27App    1.132204    39Ap     1.155565    40Ap     1.167907
      28App    1.168810    41Ap     1.232298    42Ap     1.279552
      29App    1.280555    43Ap     1.285180    44Ap     1.329258
      30App    1.329434    45Ap     1.365384    46Ap     1.371194
      31App    1.371391    32App    1.393511    47Ap     1.407173
      33App    1.407903    34App    1.421736    48Ap     1.422565
      35App    1.428184    36App    1.492533    49Ap     1.509519
      50Ap     1.546724    37App    1.547764    51Ap     1.582261
      38App    1.582373    52Ap     1.674657    53Ap     1.745115
      39App    1.745203    54Ap     1.779134    40App    1.833948
      55Ap     1.836578    41App    1.972585    56Ap     2.024403
      42App    2.026474    57Ap     2.039705    58Ap     2.057776
      43App    2.060943    59Ap     2.746517    44App    2.747121
      45App    2.811838    60Ap     2.816061    46App    2.902641
      61Ap     2.902644    62Ap     2.924648    63Ap     2.931885
      47App    2.932067    48App    2.960058    64Ap     2.968481
      49App    2.969362    65Ap     3.041950    50App    3.081165
      66Ap     3.081217    51App    3.086182    52App    3.184418
      67Ap     3.184462    68Ap     3.188453    53App    3.289761
      69Ap     3.290467    54App    3.330917    70Ap     3.331010
      71Ap     3.383441    72Ap     3.492672    55App    3.493090
      56App    3.512386    73Ap     3.528365    57App    3.574980
      58App    3.581703    74Ap     3.581819    75Ap     3.671066
      59App    3.671196    76Ap     3.692921    60App    3.725455
      77Ap     3.726077    78Ap     3.781044    61App    3.781622
      79Ap     3.817674    80Ap     3.921469    62App    3.922623
      81Ap     4.045337    82Ap     4.117469    63App    4.118862
      64App    4.154983    83Ap     4.155622    84Ap     4.187263
      65App    4.208451    85Ap     4.208764    86Ap     4.211350
      66App    4.215465    87Ap     4.321831    67App    4.325010
      68App    4.362342    88Ap     4.432106    69App    4.433159
      70App    4.446423    89Ap     4.523278    71App    4.525989
      72App    4.588783    90Ap     4.588982    91Ap     4.624731
      92Ap     4.719796    93Ap     4.781389    73App    4.781696
      74App    4.839810    94Ap     4.967635    95Ap     5.006988
      75App    5.007011    96Ap     5.233728    97Ap     5.246346
      76App    5.250838    98Ap     5.360721    77App    5.363303
      78App    5.481693

    Final Occupation by Irrep:
             Ap   App
    DOCC [    10,    6 ]
    SOCC [     1,    0 ]

  @DF-UKS Final Energy:  -157.81306122037839

   => Energetics <=

    Nuclear Repulsion Energy =            125.3946118286359592
    One-Electron Energy =                -458.7488640986271093
    Two-Electron Energy =                 195.8483363194099525
    DFT Exchange-Correlation Energy =     -20.3071452697971857
    Empirical Dispersion Energy =           0.0000000000000000
    VV10 Nonlocal Energy =                  0.0000000000000000
    Total Energy =                       -157.8130612203783869

  UHF NO Occupations:
  HONO-2 :    9 Ap 1.9996009
  HONO-1 :   10 Ap 1.9989805
  HONO-0 :   11 Ap 1.0000000
  LUNO+0 :   12 Ap 0.0010195
  LUNO+1 :   13 Ap 0.0003991
  LUNO+2 :   14 Ap 0.0001979
  LUNO+3 :    7App 0.0001972

Computation Completed

Properties will be evaluated at   0.000000,   0.000000,   0.000000 [a0]

Properties computed using the SCF density matrix

  Nuclear Dipole Moment: [e a0]
     X:     0.8272      Y:    -0.0050      Z:     0.0000

  Electronic Dipole Moment: [e a0]
     X:    -0.7493      Y:     0.0057      Z:     0.0000

  Dipole Moment: [e a0]
     X:     0.0779      Y:     0.0007      Z:     0.0000     Total:     0.0779

  Dipole Moment: [D]
     X:     0.1980      Y:     0.0018      Z:     0.0000     Total:     0.1981

*** tstop() called on n062 at Fri Nov  5 12:57:08 2021
Module time:
	user time   =     548.33 seconds =       9.14 minutes
	system time =      12.05 seconds =       0.20 minutes
	total time  =        141 seconds =       2.35 minutes
Total time:
	user time   =     548.33 seconds =       9.14 minutes
	system time =      12.05 seconds =       0.20 minutes
	total time  =        141 seconds =       2.35 minutes
Grab this energy -157.8130612203784
    Psi4 stopped on: Friday, 05 November 2021 12:57PM
    Psi4 wall time for execution: 0:02:21.05

*** Psi4 exiting successfully. Buy a developer a beer!
