                               Psi4 1.4a2.dev629

  ==> Input File <==

--------------------------------------------------------------------------
import os
memory 14 GB

molecule {
 C   -0.3230400353   -0.0000020438   -0.0000000190
 C    0.0610002003   -1.3974652030   -2.4220637986
 C    0.0608806687    2.7963146211    0.0007967193
 C    0.0610002740   -1.3988451513    2.4212670659
 H    2.0866438301   -1.6394318642   -2.8425225930
 H   -0.7645665380   -0.3869005005   -4.0244347354
 H   -0.7660748450   -3.2855723335   -2.3406524568
 H    2.0865052804    3.2815109972    0.0015815884
 H   -0.7648073972    3.6786867491    1.6771206042
 H   -0.7661521039    3.6698213387   -1.6751016595
 H    2.0866440184   -1.6421716294    2.8409418535
 H   -0.7647296428   -3.2917532715    2.3473201009
 H   -0.7659115864   -0.3842160226    4.0157473300
units bohr
0 2
}

basis {

assign 6-31g_2dfp_

[ 6-31g_2dfp_ ]

spherical

!----------------------------------------------------------------------
! Basis Set Exchange
! Version v0.8.13
! https://www.basissetexchange.org
!----------------------------------------------------------------------
!   Basis set: 6-31G(2df,p)
! Description: 6-31G(2df,p)
!        Role: orbital
!     Version: 0  (Data from the original Basis Set Exchange)
!----------------------------------------------------------------------

****
H     0
S    3   1.00
     18.7311370              0.03349460
      2.8253937              0.23472695
      0.6401217              0.81375733
S    1   1.00
      0.1612778              1.00000000
P    1   1.00
      1.5000000              1.0000000
P    1   1.00
      0.3750000              1.0000000
****
B     0
S    6   1.00
   2068.8823000              0.0018663
    310.6495700              0.0142515
     70.6830330              0.0695516
     19.8610800              0.2325729
      6.2993048              0.4670787
      2.1270270              0.3634314
SP   3   1.00
      4.7279710             -0.1303938              0.0745976
      1.1903377             -0.1307889              0.3078467
      0.3594117              1.1309444              0.7434568
SP   1   1.00
      0.1267512              1.0000000              1.0000000
D    1   1.00
      0.8020000              1.0000000
D    1   1.00
      0.2005000              1.0000000
F    1   1.00
      0.5000000              1.0000000
****
C     0
S    6   1.00
   3047.5249000              0.0018347
    457.3695100              0.0140373
    103.9486900              0.0688426
     29.2101550              0.2321844
      9.2866630              0.4679413
      3.1639270              0.3623120
SP   3   1.00
      7.8682724             -0.1193324              0.0689991
      1.8812885             -0.1608542              0.3164240
      0.5442493              1.1434564              0.7443083
SP   1   1.00
      0.1687144              1.0000000              1.0000000
D    1   1.00
      1.2520000              1.0000000
D    1   1.00
      0.3130000              1.0000000
F    1   1.00
      0.8000000              1.0000000
****
N     0
S    6   1.00
   4173.5110000              0.0018348
    627.4579000              0.0139950
    142.9021000              0.0685870
     40.2343300              0.2322410
     12.8202100              0.4690700
      4.3904370              0.3604550
SP   3   1.00
     11.6263580             -0.1149610              0.0675800
      2.7162800             -0.1691180              0.3239070
      0.7722180              1.1458520              0.7408950
SP   1   1.00
      0.2120313              1.0000000              1.0000000
D    1   1.00
      1.8260000              1.0000000
D    1   1.00
      0.4565000              1.0000000
F    1   1.00
      1.0000000              1.0000000
****
O     0
S    6   1.00
   5484.6717000              0.0018311
    825.2349500              0.0139501
    188.0469600              0.0684451
     52.9645000              0.2327143
     16.8975700              0.4701930
      5.7996353              0.3585209
SP   3   1.00
     15.5396160             -0.1107775              0.0708743
      3.5999336             -0.1480263              0.3397528
      1.0137618              1.1307670              0.7271586
SP   1   1.00
      0.2700058              1.0000000              1.0000000
D    1   1.00
      2.5840000              1.0000000
D    1   1.00
      0.6460000              1.0000000
F    1   1.00
      1.4000000              1.0000000
****
F     0
S    6   1.00
   7001.7130900              0.0018196169
   1051.3660900              0.0139160796
    239.2856900              0.0684053245
     67.3974453              0.233185760
     21.5199573              0.471267439
      7.40310130             0.356618546
SP   3   1.00
     20.8479528             -0.108506975            0.0716287243
      4.80830834            -0.146451658            0.3459121030
      1.34406986             1.128688580            0.7224699570
SP   1   1.00
      0.358151393            1.0000000              1.0000000
D    1   1.00
      3.5000000              1.0000000
D    1   1.00
      0.8750000              1.0000000
F    1   1.00
      1.8500000              1.0000000
****
Al     0
S    6   1.00
  13983.1000000              0.00194267
   2098.7500000              0.0148599
    477.7050000              0.0728494
    134.3600000              0.2468300
     42.8709000              0.4872580
     14.5189000              0.3234960
SP   6   1.00
    239.6680000             -0.00292619             0.00460285
     57.4419000             -0.0374080              0.0331990
     18.2859000             -0.1144870              0.1362820
      6.5991400              0.1156350              0.3304760
      2.4904900              0.6125950              0.4491460
      0.9445400              0.3937990              0.2657040
SP   3   1.00
      1.2779000             -0.2276060             -0.0175130
      0.3975900              0.00144583             0.2445330
      0.1600950              1.0927900              0.8049340
SP   1   1.00
      0.0556577              1.0000000              1.0000000
D    1   1.00
      0.6500000              1.0000000
D    1   1.00
      0.1625000              1.0000000
F    1   1.00
      0.2500000              1.0000000
****
Si     0
S    6   1.00
  16115.9000000              0.00195948
   2425.5800000              0.01492880
    553.8670000              0.07284780
    156.3400000              0.24613000
     50.0683000              0.48591400
     17.0178000              0.32500200
SP   6   1.00
    292.7180000             -0.00278094             0.00443826
     69.8731000             -0.03571460             0.03266790
     22.3363000             -0.11498500             0.13472100
      8.1503900              0.09356340             0.32867800
      3.1345800              0.60301700             0.44964000
      1.2254300              0.41895900             0.26137200
SP   3   1.00
      1.7273800             -0.24463000            -0.01779510
      0.5729220              0.00431572             0.25353900
      0.2221920              1.09818000             0.80066900
SP   1   1.00
      0.0778369              1.00000000             1.00000000
D    1   1.00
      0.9000000              1.0000000
D    1   1.00
      0.2250000              1.0000000
F    1   1.00
      0.3200000              1.0000000
****
P     0
S    6   1.00
  19413.3000000              0.0018516
   2909.4200000              0.0142062
    661.3640000              0.0699995
    185.7590000              0.2400790
     59.1943000              0.4847620
     20.0310000              0.3352000
SP   6   1.00
    339.4780000             -0.00278217             0.00456462
     81.0101000             -0.0360499              0.03369360
     25.8780000             -0.1166310              0.13975500
      9.4522100              0.0968328              0.33936200
      3.6656600              0.6144180              0.45092100
      1.4674600              0.4037980              0.23858600
SP   3   1.00
      2.1562300             -0.2529230             -0.01776530
      0.7489970              0.0328517              0.27405800
      0.2831450              1.0812500              0.78542100
SP   1   1.00
      0.0998317              1.0000000              1.00000000
D    1   1.00
      1.1000000              1.0000000
D    1   1.00
      0.2750000              1.0000000
F    1   1.00
      0.4500000              1.0000000
****
S     0
S    6   1.00
  21917.1000000              0.0018690
   3301.4900000              0.0142300
    754.1460000              0.0696960
    212.7110000              0.2384870
     67.9896000              0.4833070
     23.0515000              0.3380740
SP   6   1.00
    423.7350000             -0.0023767              0.0040610
    100.7100000             -0.0316930              0.0306810
     32.1599000             -0.1133170              0.1304520
     11.8079000              0.0560900              0.3272050
      4.6311000              0.5922550              0.4528510
      1.8702500              0.4550060              0.2560420
SP   3   1.00
      2.6158400             -0.2503740             -0.0145110
      0.9221670              0.0669570              0.3102630
      0.3412870              1.0545100              0.7544830
SP   1   1.00
      0.1171670              1.0000000              1.0000000
D    1   1.00
      1.3000000              1.0000000
D    1   1.00
      0.3250000              1.0000000
F    1   1.00
      0.5500000              1.0000000
****
Cl     0
S    6   1.00
  25180.1000000              0.0018330
   3780.3500000              0.0140340
    860.4740000              0.0690970
    242.1450000              0.2374520
     77.3349000              0.4830340
     26.2470000              0.3398560
SP   6   1.00
    491.7650000             -0.0022974              0.0039894
    116.9840000             -0.0307140              0.0303180
     37.4153000             -0.1125280              0.1298800
     13.7834000              0.0450160              0.3279510
      5.4521500              0.5893530              0.4535270
      2.2258800              0.4652060              0.2521540
SP   3   1.00
      3.1864900             -0.2518300             -0.0142990
      1.1442700              0.0615890              0.3235720
      0.4203770              1.0601800              0.7435070
SP   1   1.00
      0.1426570              1.0000000              1.0000000
D    1   1.00
      1.5000000              1.0000000
D    1   1.00
      0.3750000              1.0000000
F    1   1.00
      0.7000000              1.0000000
****
}

set {
reference uhf
freeze_core true
e_convergence 10
d_convergence 10
dft_spherical_points 1202
dft_radial_points 99
}

e = energy('b3lyp')

print_out('Grab this energy {0}'.format(e))
--------------------------------------------------------------------------

    Molecular point group: c1

    Geometry (in Bohr), charge = 0, multiplicity = 2:

       Center              X                  Y                   Z               Mass
    ------------   -----------------  -----------------  -----------------  -----------------
         C           -0.323017132868    -0.000002042602    -0.000000012758    12.000000000000
         C            0.061023102732    -1.397465201802    -2.422063792358    12.000000000000
         C            0.060903571132     2.796314622298     0.000796725542    12.000000000000
         C            0.061023176432    -1.398845150102     2.421267072142    12.000000000000
         H            2.086666732532    -1.639431863002    -2.842522586758     1.007825032230
         H           -0.764543635568    -0.386900499302    -4.024434729158     1.007825032230
         H           -0.766051942568    -3.285572332302    -2.340652450558     1.007825032230
         H            2.086528182832     3.281510998398     0.001581594642     1.007825032230
         H           -0.764784494768     3.678686750298     1.677120610442     1.007825032230
         H           -0.766129201468     3.669821339898    -1.675101653258     1.007825032230
         H            2.086666920832    -1.642171628202     2.840941859742     1.007825032230
         H           -0.764706740368    -3.291753270302     2.347320107142     1.007825032230
         H           -0.765888683968    -0.384216021402     4.015747336242     1.007825032230

  Charge       = 0
  Multiplicity = 2
  Basis Set: ANONYMOUS068F6539
    Blend: 6-31G_2DFP_
  Basis Set: (ANONYMOUS068F6539 AUX)
    Blend: DEF2-UNIVERSAL-JKFIT

    Orbital Energies [Eh]
    ---------------------

    Alpha Occupied:

       1A    -10.179569     2A    -10.166669     3A    -10.166668
       4A    -10.166623     5A     -0.798817     6A     -0.686489
       7A     -0.686489     8A     -0.530774     9A     -0.441721
      10A     -0.435154    11A     -0.435153    12A     -0.382673
      13A     -0.382672    14A     -0.363491    15A     -0.338186
      16A     -0.338186    17A     -0.168636

    Alpha Virtual:

      18A      0.076043    19A      0.134192    20A      0.134193
      21A      0.142832    22A      0.142832    23A      0.154942
      24A      0.178955    25A      0.178955    26A      0.204622
      27A      0.215166    28A      0.276504    29A      0.276506
      30A      0.399201    31A      0.399205    32A      0.403134
      33A      0.423825    34A      0.423826    35A      0.457176
      36A      0.495618    37A      0.495619    38A      0.512497
      39A      0.514382    40A      0.579492    41A      0.579501
      42A      0.592180    43A      0.592181    44A      0.603033
      45A      0.625093    46A      0.632208    47A      0.637065
      48A      0.637068    49A      0.663885    50A      0.663885
      51A      0.684308    52A      0.684309    53A      0.734786
      54A      0.825250    55A      0.825253    56A      0.854917
      57A      0.915752    58A      0.915758    59A      0.943985
      60A      0.945489    61A      0.962247    62A      0.962263
      63A      1.004598    64A      1.128995    65A      1.129007
      66A      1.142567    67A      1.164029    68A      1.164042
      69A      1.224232    70A      1.275402    71A      1.275405
      72A      1.279863    73A      1.324689    74A      1.324691
      75A      1.356149    76A      1.367878    77A      1.367882
      78A      1.393974    79A      1.403737    80A      1.403739
      81A      1.417503    82A      1.417510    83A      1.429323
      84A      1.492716    85A      1.499663    86A      1.543563
      87A      1.543565    88A      1.575601    89A      1.575602
      90A      1.669772    91A      1.740043    92A      1.740054
      93A      1.769839    94A      1.832588    95A      1.832589
      96A      1.973117    97A      2.020169    98A      2.020172
      99A      2.020617   100A      2.057145   101A      2.057145
     102A      2.739079   103A      2.739080   104A      2.792074
     105A      2.814158   106A      2.891085   107A      2.891091
     108A      2.896451   109A      2.929679   110A      2.929688
     111A      2.959236   112A      2.964062   113A      2.964076
     114A      3.033972   115A      3.072243   116A      3.072257
     117A      3.085933   118A      3.169630   119A      3.169637
     120A      3.182484   121A      3.285799   122A      3.285799
     123A      3.327609   124A      3.327615   125A      3.374225
     126A      3.491919   127A      3.491939   128A      3.514713
     129A      3.527728   130A      3.568326   131A      3.568346
     132A      3.577285   133A      3.666342   134A      3.666351
     135A      3.681625   136A      3.695562   137A      3.695578
     138A      3.781292   139A      3.781318   140A      3.789794
     141A      3.914323   142A      3.914329   143A      4.036308
     144A      4.114193   145A      4.114196   146A      4.148895
     147A      4.148904   148A      4.174444   149A      4.204073
     150A      4.205426   151A      4.205429   152A      4.212433
     153A      4.317494   154A      4.317514   155A      4.361477
     156A      4.426528   157A      4.426530   158A      4.445875
     159A      4.519846   160A      4.519847   161A      4.581833
     162A      4.581845   163A      4.624901   164A      4.714216
     165A      4.781022   166A      4.781030   167A      4.840858
     168A      4.965957   169A      5.004564   170A      5.004576
     171A      5.229061   172A      5.248233   173A      5.248234
     174A      5.358120   175A      5.358133   176A      5.485114

    Beta Occupied:

       1A    -10.167424     2A    -10.167423     3A    -10.167394
       4A    -10.165773     5A     -0.782119     6A     -0.684272
       7A     -0.684271     8A     -0.511845     9A     -0.431505
      10A     -0.431505    11A     -0.422323    12A     -0.376721
      13A     -0.376720    14A     -0.362464    15A     -0.333314
      16A     -0.333314

    Beta Virtual:

      17A     -0.025712    18A      0.077064    19A      0.135076
      20A      0.135077    21A      0.144731    22A      0.144731
      23A      0.163446    24A      0.182652    25A      0.182653
      26A      0.215342    27A      0.219884    28A      0.282782
      29A      0.282785    30A      0.400403    31A      0.400407
      32A      0.419484    33A      0.426627    34A      0.426627
      35A      0.469439    36A      0.497892    37A      0.497893
      38A      0.514248    39A      0.556648    40A      0.585050
      41A      0.585058    42A      0.598298    43A      0.598299
      44A      0.610499    45A      0.628470    46A      0.632432
      47A      0.640424    48A      0.640428    49A      0.667406
      50A      0.667407    51A      0.687023    52A      0.687025
      53A      0.757131    54A      0.830437    55A      0.830439
      56A      0.856307    57A      0.923736    58A      0.923743
      59A      0.947277    60A      0.952874    61A      0.967578
      62A      0.967594    63A      1.009763    64A      1.133022
      65A      1.133033    66A      1.155960    67A      1.169106
      68A      1.169119    69A      1.233343    70A      1.281035
      71A      1.281039    72A      1.285550    73A      1.329677
      74A      1.329679    75A      1.365593    76A      1.373110
      77A      1.373114    78A      1.395041    79A      1.407182
      80A      1.407185    81A      1.422602    82A      1.422608
      83A      1.429625    84A      1.493764    85A      1.510171
      86A      1.547915    87A      1.547916    88A      1.583540
      89A      1.583541    90A      1.674625    91A      1.745808
      92A      1.745819    93A      1.780644    94A      1.836461
      95A      1.836462    96A      1.973982    97A      2.026585
      98A      2.026588    99A      2.042056   100A      2.063883
     101A      2.063884   102A      2.747319   103A      2.747320
     104A      2.814561   105A      2.817204   106A      2.903540
     107A      2.903545   108A      2.926221   109A      2.932334
     110A      2.932343   111A      2.960314   112A      2.968668
     113A      2.968682   114A      3.041994   115A      3.082240
     116A      3.082252   117A      3.087766   118A      3.185276
     119A      3.185280   120A      3.190106   121A      3.290772
     122A      3.290773   123A      3.331341   124A      3.331346
     125A      3.382027   126A      3.494644   127A      3.494664
     128A      3.513086   129A      3.530707   130A      3.577169
     131A      3.581662   132A      3.581683   133A      3.670987
     134A      3.670998   135A      3.694898   136A      3.727020
     137A      3.727036   138A      3.785857   139A      3.785882
     140A      3.818206   141A      3.924145   142A      3.924152
     143A      4.047131   144A      4.120727   145A      4.120728
     146A      4.156297   147A      4.156307   148A      4.188618
     149A      4.211362   150A      4.211365   151A      4.212096
     152A      4.216985   153A      4.324966   154A      4.324986
     155A      4.364820   156A      4.434850   157A      4.434853
     158A      4.448769   159A      4.527763   160A      4.527765
     161A      4.592453   162A      4.592465   163A      4.632073
     164A      4.724642   165A      4.787979   166A      4.787986
     167A      4.843776   168A      4.970773   169A      5.008642
     170A      5.008655   171A      5.234815   172A      5.250029
     173A      5.250030   174A      5.364655   175A      5.364668
     176A      5.487457

    Final Occupation by Irrep:
              A
    DOCC [    16 ]
    SOCC [     1 ]

  @DF-UKS Final Energy:  -157.81303754683015

   => Energetics <=

    Nuclear Repulsion Energy =            125.5761452540221086
    One-Electron Energy =                -459.1062481765479788
    Two-Electron Energy =                 196.0280164675576486
    DFT Exchange-Correlation Energy =     -20.3109510918619094
    Empirical Dispersion Energy =           0.0000000000000000
    VV10 Nonlocal Energy =                  0.0000000000000000
    Total Energy =                       -157.8130375468301452

  UHF NO Occupations:
  HONO-2 :   15  A 1.9995992
  HONO-1 :   16  A 1.9989874
  HONO-0 :   17  A 1.0000000
  LUNO+0 :   18  A 0.0010126
  LUNO+1 :   19  A 0.0004008
  LUNO+2 :   20  A 0.0001954
  LUNO+3 :   21  A 0.0001954

Computation Completed

Properties will be evaluated at   0.000000,   0.000000,   0.000000 [a0]

Properties computed using the SCF density matrix

  Nuclear Dipole Moment: [e a0]
     X:     0.8274      Y:    -0.0000      Z:     0.0000

  Electronic Dipole Moment: [e a0]
     X:    -0.7503      Y:     0.0000      Z:    -0.0000

  Dipole Moment: [e a0]
     X:     0.0770      Y:    -0.0000      Z:    -0.0000     Total:     0.0770

  Dipole Moment: [D]
     X:     0.1958      Y:    -0.0000      Z:    -0.0000     Total:     0.1958

*** tstop() called on n091 at Fri Nov  5 15:29:02 2021
Module time:
	user time   =     591.54 seconds =       9.86 minutes
	system time =       5.52 seconds =       0.09 minutes
	total time  =        150 seconds =       2.50 minutes
Total time:
	user time   =     591.54 seconds =       9.86 minutes
	system time =       5.52 seconds =       0.09 minutes
	total time  =        150 seconds =       2.50 minutes
Grab this energy -157.81303754683015
    Psi4 stopped on: Friday, 05 November 2021 03:29PM
    Psi4 wall time for execution: 0:02:30.02

*** Psi4 exiting successfully. Buy a developer a beer!
