                               Psi4 1.4a2.dev629

  ==> Input File <==

--------------------------------------------------------------------------
import os
memory 14 GB

molecule {
 C   -0.3233384782    0.0019949418   -0.0053433504
 C    0.0610892419   -1.3997649450   -2.4275668935
 C    0.0608656365    2.8009096920   -0.0011097468
 C    0.0613444479   -1.4006761946    2.4269303687
 H    2.0870295878   -1.6423465846   -2.8504999757
 H   -0.7672169811   -0.3903145193   -4.0284404218
 H   -0.7641655795   -3.2908884974   -2.3435370847
 H    2.0870196910    3.2835120740    0.0009943421
 H   -0.7643020454    3.6813273095    1.6764648284
 H   -0.7659754511    3.6796143068   -1.6750044869
 H    2.0866130899   -1.6420036544    2.8519055211
 H   -0.7650956348   -3.2899668913    2.3447476520
 H   -0.7664754017   -0.3914213510    4.0304592476
units bohr
0 2
}

basis {

assign 6-31g_2dfp_

[ 6-31g_2dfp_ ]

spherical

!----------------------------------------------------------------------
! Basis Set Exchange
! Version v0.8.13
! https://www.basissetexchange.org
!----------------------------------------------------------------------
!   Basis set: 6-31G(2df,p)
! Description: 6-31G(2df,p)
!        Role: orbital
!     Version: 0  (Data from the original Basis Set Exchange)
!----------------------------------------------------------------------

****
H     0
S    3   1.00
     18.7311370              0.03349460
      2.8253937              0.23472695
      0.6401217              0.81375733
S    1   1.00
      0.1612778              1.00000000
P    1   1.00
      1.5000000              1.0000000
P    1   1.00
      0.3750000              1.0000000
****
B     0
S    6   1.00
   2068.8823000              0.0018663
    310.6495700              0.0142515
     70.6830330              0.0695516
     19.8610800              0.2325729
      6.2993048              0.4670787
      2.1270270              0.3634314
SP   3   1.00
      4.7279710             -0.1303938              0.0745976
      1.1903377             -0.1307889              0.3078467
      0.3594117              1.1309444              0.7434568
SP   1   1.00
      0.1267512              1.0000000              1.0000000
D    1   1.00
      0.8020000              1.0000000
D    1   1.00
      0.2005000              1.0000000
F    1   1.00
      0.5000000              1.0000000
****
C     0
S    6   1.00
   3047.5249000              0.0018347
    457.3695100              0.0140373
    103.9486900              0.0688426
     29.2101550              0.2321844
      9.2866630              0.4679413
      3.1639270              0.3623120
SP   3   1.00
      7.8682724             -0.1193324              0.0689991
      1.8812885             -0.1608542              0.3164240
      0.5442493              1.1434564              0.7443083
SP   1   1.00
      0.1687144              1.0000000              1.0000000
D    1   1.00
      1.2520000              1.0000000
D    1   1.00
      0.3130000              1.0000000
F    1   1.00
      0.8000000              1.0000000
****
N     0
S    6   1.00
   4173.5110000              0.0018348
    627.4579000              0.0139950
    142.9021000              0.0685870
     40.2343300              0.2322410
     12.8202100              0.4690700
      4.3904370              0.3604550
SP   3   1.00
     11.6263580             -0.1149610              0.0675800
      2.7162800             -0.1691180              0.3239070
      0.7722180              1.1458520              0.7408950
SP   1   1.00
      0.2120313              1.0000000              1.0000000
D    1   1.00
      1.8260000              1.0000000
D    1   1.00
      0.4565000              1.0000000
F    1   1.00
      1.0000000              1.0000000
****
O     0
S    6   1.00
   5484.6717000              0.0018311
    825.2349500              0.0139501
    188.0469600              0.0684451
     52.9645000              0.2327143
     16.8975700              0.4701930
      5.7996353              0.3585209
SP   3   1.00
     15.5396160             -0.1107775              0.0708743
      3.5999336             -0.1480263              0.3397528
      1.0137618              1.1307670              0.7271586
SP   1   1.00
      0.2700058              1.0000000              1.0000000
D    1   1.00
      2.5840000              1.0000000
D    1   1.00
      0.6460000              1.0000000
F    1   1.00
      1.4000000              1.0000000
****
F     0
S    6   1.00
   7001.7130900              0.0018196169
   1051.3660900              0.0139160796
    239.2856900              0.0684053245
     67.3974453              0.233185760
     21.5199573              0.471267439
      7.40310130             0.356618546
SP   3   1.00
     20.8479528             -0.108506975            0.0716287243
      4.80830834            -0.146451658            0.3459121030
      1.34406986             1.128688580            0.7224699570
SP   1   1.00
      0.358151393            1.0000000              1.0000000
D    1   1.00
      3.5000000              1.0000000
D    1   1.00
      0.8750000              1.0000000
F    1   1.00
      1.8500000              1.0000000
****
Al     0
S    6   1.00
  13983.1000000              0.00194267
   2098.7500000              0.0148599
    477.7050000              0.0728494
    134.3600000              0.2468300
     42.8709000              0.4872580
     14.5189000              0.3234960
SP   6   1.00
    239.6680000             -0.00292619             0.00460285
     57.4419000             -0.0374080              0.0331990
     18.2859000             -0.1144870              0.1362820
      6.5991400              0.1156350              0.3304760
      2.4904900              0.6125950              0.4491460
      0.9445400              0.3937990              0.2657040
SP   3   1.00
      1.2779000             -0.2276060             -0.0175130
      0.3975900              0.00144583             0.2445330
      0.1600950              1.0927900              0.8049340
SP   1   1.00
      0.0556577              1.0000000              1.0000000
D    1   1.00
      0.6500000              1.0000000
D    1   1.00
      0.1625000              1.0000000
F    1   1.00
      0.2500000              1.0000000
****
Si     0
S    6   1.00
  16115.9000000              0.00195948
   2425.5800000              0.01492880
    553.8670000              0.07284780
    156.3400000              0.24613000
     50.0683000              0.48591400
     17.0178000              0.32500200
SP   6   1.00
    292.7180000             -0.00278094             0.00443826
     69.8731000             -0.03571460             0.03266790
     22.3363000             -0.11498500             0.13472100
      8.1503900              0.09356340             0.32867800
      3.1345800              0.60301700             0.44964000
      1.2254300              0.41895900             0.26137200
SP   3   1.00
      1.7273800             -0.24463000            -0.01779510
      0.5729220              0.00431572             0.25353900
      0.2221920              1.09818000             0.80066900
SP   1   1.00
      0.0778369              1.00000000             1.00000000
D    1   1.00
      0.9000000              1.0000000
D    1   1.00
      0.2250000              1.0000000
F    1   1.00
      0.3200000              1.0000000
****
P     0
S    6   1.00
  19413.3000000              0.0018516
   2909.4200000              0.0142062
    661.3640000              0.0699995
    185.7590000              0.2400790
     59.1943000              0.4847620
     20.0310000              0.3352000
SP   6   1.00
    339.4780000             -0.00278217             0.00456462
     81.0101000             -0.0360499              0.03369360
     25.8780000             -0.1166310              0.13975500
      9.4522100              0.0968328              0.33936200
      3.6656600              0.6144180              0.45092100
      1.4674600              0.4037980              0.23858600
SP   3   1.00
      2.1562300             -0.2529230             -0.01776530
      0.7489970              0.0328517              0.27405800
      0.2831450              1.0812500              0.78542100
SP   1   1.00
      0.0998317              1.0000000              1.00000000
D    1   1.00
      1.1000000              1.0000000
D    1   1.00
      0.2750000              1.0000000
F    1   1.00
      0.4500000              1.0000000
****
S     0
S    6   1.00
  21917.1000000              0.0018690
   3301.4900000              0.0142300
    754.1460000              0.0696960
    212.7110000              0.2384870
     67.9896000              0.4833070
     23.0515000              0.3380740
SP   6   1.00
    423.7350000             -0.0023767              0.0040610
    100.7100000             -0.0316930              0.0306810
     32.1599000             -0.1133170              0.1304520
     11.8079000              0.0560900              0.3272050
      4.6311000              0.5922550              0.4528510
      1.8702500              0.4550060              0.2560420
SP   3   1.00
      2.6158400             -0.2503740             -0.0145110
      0.9221670              0.0669570              0.3102630
      0.3412870              1.0545100              0.7544830
SP   1   1.00
      0.1171670              1.0000000              1.0000000
D    1   1.00
      1.3000000              1.0000000
D    1   1.00
      0.3250000              1.0000000
F    1   1.00
      0.5500000              1.0000000
****
Cl     0
S    6   1.00
  25180.1000000              0.0018330
   3780.3500000              0.0140340
    860.4740000              0.0690970
    242.1450000              0.2374520
     77.3349000              0.4830340
     26.2470000              0.3398560
SP   6   1.00
    491.7650000             -0.0022974              0.0039894
    116.9840000             -0.0307140              0.0303180
     37.4153000             -0.1125280              0.1298800
     13.7834000              0.0450160              0.3279510
      5.4521500              0.5893530              0.4535270
      2.2258800              0.4652060              0.2521540
SP   3   1.00
      3.1864900             -0.2518300             -0.0142990
      1.1442700              0.0615890              0.3235720
      0.4203770              1.0601800              0.7435070
SP   1   1.00
      0.1426570              1.0000000              1.0000000
D    1   1.00
      1.5000000              1.0000000
D    1   1.00
      0.3750000              1.0000000
F    1   1.00
      0.7000000              1.0000000
****
}

set {
reference uhf
freeze_core true
e_convergence 10
d_convergence 10
dft_spherical_points 1202
dft_radial_points 99
}

e = energy('b3lyp')

print_out('Grab this energy {0}'.format(e))
--------------------------------------------------------------------------

    Molecular point group: c1

    Geometry (in Bohr), charge = 0, multiplicity = 2:

       Center              X                  Y                   Z               Mass
    ------------   -----------------  -----------------  -----------------  -----------------
         C           -0.323338638629     0.001520884433    -0.003977838141    12.000000000000
         C            0.061089081471    -1.400239002367    -2.426201381241    12.000000000000
         C            0.060865476071     2.800435634633     0.000255765459    12.000000000000
         C            0.061344287471    -1.401150251967     2.428295880959    12.000000000000
         H            2.087029427371    -1.642820641967    -2.849134463441     1.007825032230
         H           -0.767217141529    -0.390788576667    -4.027074909541     1.007825032230
         H           -0.764165739929    -3.291362554767    -2.342171572441     1.007825032230
         H            2.087019530571     3.283038016633     0.002359854359     1.007825032230
         H           -0.764302205829     3.680853252133     1.677830340659     1.007825032230
         H           -0.765975611529     3.679140249433    -1.673638974641     1.007825032230
         H            2.086612929471    -1.642477711767     2.853271033359     1.007825032230
         H           -0.765095795229    -3.290440948667     2.346113164259     1.007825032230
         H           -0.766475562129    -0.391895408367     4.031824759859     1.007825032230

  Charge       = 0
  Multiplicity = 2
  Basis Set: ANONYMOUSDDF14DC1
    Blend: 6-31G_2DFP_
  Basis Set: (ANONYMOUSDDF14DC1 AUX)
    Blend: DEF2-UNIVERSAL-JKFIT

    Orbital Energies [Eh]
    ---------------------

    Alpha Occupied:

       1A    -10.180341     2A    -10.167138     3A    -10.167074
       4A    -10.166831     5A     -0.797770     6A     -0.686412
       7A     -0.685961     8A     -0.530775     9A     -0.441135
      10A     -0.434897    11A     -0.434438    12A     -0.382721
      13A     -0.382480    14A     -0.363609    15A     -0.338522
      16A     -0.337472    17A     -0.168960

    Alpha Virtual:

      18A      0.076072    19A      0.134122    20A      0.134189
      21A      0.142438    22A      0.142812    23A      0.154880
      24A      0.178738    25A      0.178819    26A      0.203544
      27A      0.214804    28A      0.275591    29A      0.276379
      30A      0.399096    31A      0.399354    32A      0.403352
      33A      0.424044    34A      0.424152    35A      0.456593
      36A      0.495312    37A      0.495466    38A      0.512159
      39A      0.513978    40A      0.578470    41A      0.579157
      42A      0.591348    43A      0.591932    44A      0.602578
      45A      0.624748    46A      0.631775    47A      0.636095
      48A      0.636423    49A      0.663338    50A      0.663487
      51A      0.683794    52A      0.683911    53A      0.734993
      54A      0.825166    55A      0.825645    56A      0.853916
      57A      0.914842    58A      0.915189    59A      0.944123
      60A      0.944618    61A      0.960592    62A      0.962000
      63A      1.003463    64A      1.127766    65A      1.128395
      66A      1.142264    67A      1.162876    68A      1.163676
      69A      1.223330    70A      1.274000    71A      1.274980
      72A      1.279346    73A      1.324264    74A      1.324448
      75A      1.355997    76A      1.365742    77A      1.366367
      78A      1.392440    79A      1.403739    80A      1.404359
      81A      1.416601    82A      1.417629    83A      1.427925
      84A      1.491491    85A      1.499078    86A      1.542558
      87A      1.543107    88A      1.574423    89A      1.574468
      90A      1.669829    91A      1.739009    92A      1.739840
      93A      1.768308    94A      1.830838    95A      1.831953
      96A      1.971732    97A      2.017992    98A      2.018663
      99A      2.019746   100A      2.051688   101A      2.053607
     102A      2.738113   103A      2.738855   104A      2.790931
     105A      2.811413   106A      2.889326   107A      2.890539
     108A      2.894989   109A      2.929110   110A      2.929886
     111A      2.958990   112A      2.964160   113A      2.964598
     114A      3.034002   115A      3.070769   116A      3.071811
     117A      3.084349   118A      3.168522   119A      3.168996
     120A      3.180653   121A      3.285010   122A      3.285613
     123A      3.326651   124A      3.327656   125A      3.375607
     126A      3.489565   127A      3.490705   128A      3.514033
     129A      3.525315   130A      3.567902   131A      3.568807
     132A      3.575239   133A      3.666007   134A      3.666712
     135A      3.679638   136A      3.693686   137A      3.694590
     138A      3.775356   139A      3.778224   140A      3.789210
     141A      3.911702   142A      3.912765   143A      4.034430
     144A      4.110050   145A      4.112661   146A      4.146826
     147A      4.149376   148A      4.173302   149A      4.202185
     150A      4.202889   151A      4.203705   152A      4.210892
     153A      4.314962   154A      4.316933   155A      4.359032
     156A      4.424181   157A      4.424716   158A      4.443459
     159A      4.516391   160A      4.517274   161A      4.577625
     162A      4.578596   163A      4.617829   164A      4.709466
     165A      4.773441   166A      4.775770   167A      4.836942
     168A      4.962820   169A      5.002530   170A      5.003431
     171A      5.228038   172A      5.246356   173A      5.247285
     174A      5.354594   175A      5.356410   176A      5.479355

    Beta Occupied:

       1A    -10.167892     2A    -10.167838     3A    -10.167593
       4A    -10.166519     5A     -0.781095     6A     -0.684201
       7A     -0.683778     8A     -0.511747     9A     -0.431262
      10A     -0.430832    11A     -0.421815    12A     -0.376766
      13A     -0.376606    14A     -0.362592    15A     -0.333654
      16A     -0.332586

    Beta Virtual:

      17A     -0.025742    18A      0.077081    19A      0.135022
      20A      0.135068    21A      0.144319    22A      0.144674
      23A      0.163339    24A      0.182420    25A      0.182479
      26A      0.215034    27A      0.218927    28A      0.281970
      29A      0.282695    30A      0.400272    31A      0.400524
      32A      0.419790    33A      0.426856    34A      0.426965
      35A      0.468500    36A      0.497574    37A      0.497726
      38A      0.513895    39A      0.556320    40A      0.584007
      41A      0.584724    42A      0.597541    43A      0.598097
      44A      0.610001    45A      0.628123    46A      0.631931
      47A      0.639365    48A      0.639727    49A      0.666906
      50A      0.667046    51A      0.686416    52A      0.686560
      53A      0.757516    54A      0.830317    55A      0.830832
      56A      0.855269    57A      0.922817    58A      0.923154
      59A      0.945961    60A      0.953541    61A      0.965953
      62A      0.967257    63A      1.008704    64A      1.131760
      65A      1.132478    66A      1.155625    67A      1.167968
      68A      1.168727    69A      1.232302    70A      1.279648
      71A      1.280528    72A      1.285099    73A      1.329264
      74A      1.329427    75A      1.365412    76A      1.371043
      77A      1.371553    78A      1.393501    79A      1.407167
      80A      1.407856    81A      1.421660    82A      1.422668
      83A      1.428197    84A      1.492539    85A      1.509522
      86A      1.546963    87A      1.547517    88A      1.582311
      89A      1.582323    90A      1.674676    91A      1.744762
      92A      1.745611    93A      1.779087    94A      1.834689
      95A      1.835813    96A      1.972591    97A      2.024883
      98A      2.026001    99A      2.039690   100A      2.058392
     101A      2.060338   102A      2.746442   103A      2.747199
     104A      2.811826   105A      2.816064   106A      2.902126
     107A      2.903148   108A      2.924658   109A      2.931540
     110A      2.932422   111A      2.960054   112A      2.968716
     113A      2.969128   114A      3.041937   115A      3.080754
     116A      3.081643   117A      3.086165   118A      3.184137
     119A      3.184779   120A      3.188438   121A      3.289844
     122A      3.290377   123A      3.330466   124A      3.331451
     125A      3.383426   126A      3.492285   127A      3.493437
     128A      3.512405   129A      3.528367   130A      3.574900
     131A      3.581426   132A      3.582153   133A      3.670895
     134A      3.671352   135A      3.692931   136A      3.725577
     137A      3.725933   138A      3.779928   139A      3.782732
     140A      3.817720   141A      3.921533   142A      3.922573
     143A      4.045317   144A      4.116986   145A      4.119360
     146A      4.154033   147A      4.156593   148A      4.187352
     149A      4.208518   150A      4.209251   151A      4.210843
     152A      4.215375   153A      4.322339   154A      4.324429
     155A      4.362400   156A      4.432439   157A      4.432881
     158A      4.446352   159A      4.524173   160A      4.525071
     161A      4.588207   162A      4.589190   163A      4.625047
     164A      4.719813   165A      4.780417   166A      4.782701
     167A      4.839861   168A      4.967612   169A      5.006573
     170A      5.007470   171A      5.233753   172A      5.248132
     173A      5.249077   174A      5.361042   175A      5.362923
     176A      5.481676

    Final Occupation by Irrep:
              A
    DOCC [    16 ]
    SOCC [     1 ]

  @DF-UKS Final Energy:  -157.81306056002015

   => Energetics <=

    Nuclear Repulsion Energy =            125.3947096996694484
    One-Electron Energy =                -458.7490581293536138
    Two-Electron Energy =                 195.8484343331927562
    DFT Exchange-Correlation Energy =     -20.3071464635287704
    Empirical Dispersion Energy =           0.0000000000000000
    VV10 Nonlocal Energy =                  0.0000000000000000
    Total Energy =                       -157.8130605600201477

  UHF NO Occupations:
  HONO-2 :   15  A 1.9996009
  HONO-1 :   16  A 1.9989804
  HONO-0 :   17  A 1.0000000
  LUNO+0 :   18  A 0.0010196
  LUNO+1 :   19  A 0.0003991
  LUNO+2 :   20  A 0.0001987
  LUNO+3 :   21  A 0.0001964

Computation Completed

Properties will be evaluated at   0.000000,   0.000000,   0.000000 [a0]

Properties computed using the SCF density matrix

  Nuclear Dipole Moment: [e a0]
     X:     0.8272      Y:    -0.0034      Z:     0.0096

  Electronic Dipole Moment: [e a0]
     X:    -0.7493      Y:     0.0034      Z:    -0.0108

  Dipole Moment: [e a0]
     X:     0.0779      Y:     0.0000      Z:    -0.0012     Total:     0.0779

  Dipole Moment: [D]
     X:     0.1980      Y:     0.0001      Z:    -0.0031     Total:     0.1981

*** tstop() called on n079 at Fri Nov  5 13:58:08 2021
Module time:
	user time   =     495.11 seconds =       8.25 minutes
	system time =       4.58 seconds =       0.08 minutes
	total time  =        126 seconds =       2.10 minutes
Total time:
	user time   =     495.11 seconds =       8.25 minutes
	system time =       4.58 seconds =       0.08 minutes
	total time  =        126 seconds =       2.10 minutes
Grab this energy -157.81306056002015
    Psi4 stopped on: Friday, 05 November 2021 01:58PM
    Psi4 wall time for execution: 0:02:05.68

*** Psi4 exiting successfully. Buy a developer a beer!
