                               Psi4 1.4a2.dev629

  ==> Input File <==

--------------------------------------------------------------------------
import os
memory 14 GB

molecule {
 C   -0.3215612937   -0.0000018660    0.0000000178
 C    0.0616982577   -1.4021339820   -2.4253573873
 C    0.0615783225    2.8015012552   -0.0015998175
 C    0.0616980537   -1.3993629457    2.4269570340
 H    2.0866015934   -1.6465777379   -2.8529717719
 H   -0.7656132706   -0.3858263343   -4.0230609030
 H   -0.7661761760   -3.2906400212   -2.3461187382
 H    2.0864622436    3.2941328497    0.0006176638
 H   -0.7658543608    3.6769593539    1.6773639160
 H   -0.7662535507    3.6770898392   -1.6767572725
 H    2.0866015597   -1.6476475887    2.8523541588
 H   -0.7657769016   -3.2911002004    2.3457024309
 H   -0.7660123539   -0.3864169355    4.0228706691
units bohr
0 2
}

basis {

assign 6-31g_2dfp_

[ 6-31g_2dfp_ ]

spherical

!----------------------------------------------------------------------
! Basis Set Exchange
! Version v0.8.13
! https://www.basissetexchange.org
!----------------------------------------------------------------------
!   Basis set: 6-31G(2df,p)
! Description: 6-31G(2df,p)
!        Role: orbital
!     Version: 0  (Data from the original Basis Set Exchange)
!----------------------------------------------------------------------

****
H     0
S    3   1.00
     18.7311370              0.03349460
      2.8253937              0.23472695
      0.6401217              0.81375733
S    1   1.00
      0.1612778              1.00000000
P    1   1.00
      1.5000000              1.0000000
P    1   1.00
      0.3750000              1.0000000
****
B     0
S    6   1.00
   2068.8823000              0.0018663
    310.6495700              0.0142515
     70.6830330              0.0695516
     19.8610800              0.2325729
      6.2993048              0.4670787
      2.1270270              0.3634314
SP   3   1.00
      4.7279710             -0.1303938              0.0745976
      1.1903377             -0.1307889              0.3078467
      0.3594117              1.1309444              0.7434568
SP   1   1.00
      0.1267512              1.0000000              1.0000000
D    1   1.00
      0.8020000              1.0000000
D    1   1.00
      0.2005000              1.0000000
F    1   1.00
      0.5000000              1.0000000
****
C     0
S    6   1.00
   3047.5249000              0.0018347
    457.3695100              0.0140373
    103.9486900              0.0688426
     29.2101550              0.2321844
      9.2866630              0.4679413
      3.1639270              0.3623120
SP   3   1.00
      7.8682724             -0.1193324              0.0689991
      1.8812885             -0.1608542              0.3164240
      0.5442493              1.1434564              0.7443083
SP   1   1.00
      0.1687144              1.0000000              1.0000000
D    1   1.00
      1.2520000              1.0000000
D    1   1.00
      0.3130000              1.0000000
F    1   1.00
      0.8000000              1.0000000
****
N     0
S    6   1.00
   4173.5110000              0.0018348
    627.4579000              0.0139950
    142.9021000              0.0685870
     40.2343300              0.2322410
     12.8202100              0.4690700
      4.3904370              0.3604550
SP   3   1.00
     11.6263580             -0.1149610              0.0675800
      2.7162800             -0.1691180              0.3239070
      0.7722180              1.1458520              0.7408950
SP   1   1.00
      0.2120313              1.0000000              1.0000000
D    1   1.00
      1.8260000              1.0000000
D    1   1.00
      0.4565000              1.0000000
F    1   1.00
      1.0000000              1.0000000
****
O     0
S    6   1.00
   5484.6717000              0.0018311
    825.2349500              0.0139501
    188.0469600              0.0684451
     52.9645000              0.2327143
     16.8975700              0.4701930
      5.7996353              0.3585209
SP   3   1.00
     15.5396160             -0.1107775              0.0708743
      3.5999336             -0.1480263              0.3397528
      1.0137618              1.1307670              0.7271586
SP   1   1.00
      0.2700058              1.0000000              1.0000000
D    1   1.00
      2.5840000              1.0000000
D    1   1.00
      0.6460000              1.0000000
F    1   1.00
      1.4000000              1.0000000
****
F     0
S    6   1.00
   7001.7130900              0.0018196169
   1051.3660900              0.0139160796
    239.2856900              0.0684053245
     67.3974453              0.233185760
     21.5199573              0.471267439
      7.40310130             0.356618546
SP   3   1.00
     20.8479528             -0.108506975            0.0716287243
      4.80830834            -0.146451658            0.3459121030
      1.34406986             1.128688580            0.7224699570
SP   1   1.00
      0.358151393            1.0000000              1.0000000
D    1   1.00
      3.5000000              1.0000000
D    1   1.00
      0.8750000              1.0000000
F    1   1.00
      1.8500000              1.0000000
****
Al     0
S    6   1.00
  13983.1000000              0.00194267
   2098.7500000              0.0148599
    477.7050000              0.0728494
    134.3600000              0.2468300
     42.8709000              0.4872580
     14.5189000              0.3234960
SP   6   1.00
    239.6680000             -0.00292619             0.00460285
     57.4419000             -0.0374080              0.0331990
     18.2859000             -0.1144870              0.1362820
      6.5991400              0.1156350              0.3304760
      2.4904900              0.6125950              0.4491460
      0.9445400              0.3937990              0.2657040
SP   3   1.00
      1.2779000             -0.2276060             -0.0175130
      0.3975900              0.00144583             0.2445330
      0.1600950              1.0927900              0.8049340
SP   1   1.00
      0.0556577              1.0000000              1.0000000
D    1   1.00
      0.6500000              1.0000000
D    1   1.00
      0.1625000              1.0000000
F    1   1.00
      0.2500000              1.0000000
****
Si     0
S    6   1.00
  16115.9000000              0.00195948
   2425.5800000              0.01492880
    553.8670000              0.07284780
    156.3400000              0.24613000
     50.0683000              0.48591400
     17.0178000              0.32500200
SP   6   1.00
    292.7180000             -0.00278094             0.00443826
     69.8731000             -0.03571460             0.03266790
     22.3363000             -0.11498500             0.13472100
      8.1503900              0.09356340             0.32867800
      3.1345800              0.60301700             0.44964000
      1.2254300              0.41895900             0.26137200
SP   3   1.00
      1.7273800             -0.24463000            -0.01779510
      0.5729220              0.00431572             0.25353900
      0.2221920              1.09818000             0.80066900
SP   1   1.00
      0.0778369              1.00000000             1.00000000
D    1   1.00
      0.9000000              1.0000000
D    1   1.00
      0.2250000              1.0000000
F    1   1.00
      0.3200000              1.0000000
****
P     0
S    6   1.00
  19413.3000000              0.0018516
   2909.4200000              0.0142062
    661.3640000              0.0699995
    185.7590000              0.2400790
     59.1943000              0.4847620
     20.0310000              0.3352000
SP   6   1.00
    339.4780000             -0.00278217             0.00456462
     81.0101000             -0.0360499              0.03369360
     25.8780000             -0.1166310              0.13975500
      9.4522100              0.0968328              0.33936200
      3.6656600              0.6144180              0.45092100
      1.4674600              0.4037980              0.23858600
SP   3   1.00
      2.1562300             -0.2529230             -0.01776530
      0.7489970              0.0328517              0.27405800
      0.2831450              1.0812500              0.78542100
SP   1   1.00
      0.0998317              1.0000000              1.00000000
D    1   1.00
      1.1000000              1.0000000
D    1   1.00
      0.2750000              1.0000000
F    1   1.00
      0.4500000              1.0000000
****
S     0
S    6   1.00
  21917.1000000              0.0018690
   3301.4900000              0.0142300
    754.1460000              0.0696960
    212.7110000              0.2384870
     67.9896000              0.4833070
     23.0515000              0.3380740
SP   6   1.00
    423.7350000             -0.0023767              0.0040610
    100.7100000             -0.0316930              0.0306810
     32.1599000             -0.1133170              0.1304520
     11.8079000              0.0560900              0.3272050
      4.6311000              0.5922550              0.4528510
      1.8702500              0.4550060              0.2560420
SP   3   1.00
      2.6158400             -0.2503740             -0.0145110
      0.9221670              0.0669570              0.3102630
      0.3412870              1.0545100              0.7544830
SP   1   1.00
      0.1171670              1.0000000              1.0000000
D    1   1.00
      1.3000000              1.0000000
D    1   1.00
      0.3250000              1.0000000
F    1   1.00
      0.5500000              1.0000000
****
Cl     0
S    6   1.00
  25180.1000000              0.0018330
   3780.3500000              0.0140340
    860.4740000              0.0690970
    242.1450000              0.2374520
     77.3349000              0.4830340
     26.2470000              0.3398560
SP   6   1.00
    491.7650000             -0.0022974              0.0039894
    116.9840000             -0.0307140              0.0303180
     37.4153000             -0.1125280              0.1298800
     13.7834000              0.0450160              0.3279510
      5.4521500              0.5893530              0.4535270
      2.2258800              0.4652060              0.2521540
SP   3   1.00
      3.1864900             -0.2518300             -0.0142990
      1.1442700              0.0615890              0.3235720
      0.4203770              1.0601800              0.7435070
SP   1   1.00
      0.1426570              1.0000000              1.0000000
D    1   1.00
      1.5000000              1.0000000
D    1   1.00
      0.3750000              1.0000000
F    1   1.00
      0.7000000              1.0000000
****
}

set {
reference uhf
freeze_core true
e_convergence 10
d_convergence 10
dft_spherical_points 1202
dft_radial_points 99
}

e = energy('b3lyp')

print_out('Grab this energy {0}'.format(e))
--------------------------------------------------------------------------

    Molecular point group: c1

    Geometry (in Bohr), charge = 0, multiplicity = 2:

       Center              X                  Y                   Z               Mass
    ------------   -----------------  -----------------  -----------------  -----------------
         C           -0.322226428977    -0.000001910739     0.000000047269    12.000000000000
         C            0.061033122423    -1.402134026739    -2.425357357831    12.000000000000
         C            0.060913187223     2.801501210461    -0.001599788031    12.000000000000
         C            0.061032918423    -1.399362990439     2.426957063469    12.000000000000
         H            2.085936458123    -1.646577782639    -2.852971742431     1.007825032230
         H           -0.766278405877    -0.385826379039    -4.023060873531     1.007825032230
         H           -0.766841311277    -3.290640065939    -2.346118708731     1.007825032230
         H            2.085797108323     3.294132804961     0.000617693269     1.007825032230
         H           -0.766519496077     3.676959309161     1.677363945469     1.007825032230
         H           -0.766918685977     3.677089794461    -1.676757243031     1.007825032230
         H            2.085936424423    -1.647647633439     2.852354188269     1.007825032230
         H           -0.766442036877    -3.291100245139     2.345702460369     1.007825032230
         H           -0.766677489177    -0.386416980239     4.022870698569     1.007825032230

  Charge       = 0
  Multiplicity = 2
  Basis Set: ANONYMOUS96A68CC4
    Blend: 6-31G_2DFP_
  Basis Set: (ANONYMOUS96A68CC4 AUX)
    Blend: DEF2-UNIVERSAL-JKFIT

    Orbital Energies [Eh]
    ---------------------

    Alpha Occupied:

       1A    -10.180329     2A    -10.166984     3A    -10.166984
       4A    -10.166938     5A     -0.797831     6A     -0.686225
       7A     -0.686224     8A     -0.530788     9A     -0.440954
      10A     -0.434884    11A     -0.434883    12A     -0.382448
      13A     -0.382446    14A     -0.363749    15A     -0.338021
      16A     -0.338021    17A     -0.169050

    Alpha Virtual:

      18A      0.076108    19A      0.134106    20A      0.134107
      21A      0.142696    22A      0.142696    23A      0.155084
      24A      0.178743    25A      0.178743    26A      0.203677
      27A      0.215026    28A      0.276023    29A      0.276025
      30A      0.399454    31A      0.399458    32A      0.403269
      33A      0.423945    34A      0.423945    35A      0.456829
      36A      0.495365    37A      0.495366    38A      0.511966
      39A      0.514043    40A      0.578960    41A      0.578968
      42A      0.591450    43A      0.591452    44A      0.602339
      45A      0.624815    46A      0.632040    47A      0.636335
      48A      0.636339    49A      0.663689    50A      0.663689
      51A      0.683769    52A      0.683770    53A      0.735076
      54A      0.825304    55A      0.825307    56A      0.854261
      57A      0.915171    58A      0.915177    59A      0.943813
      60A      0.944352    61A      0.961001    62A      0.961017
      63A      1.004178    64A      1.128560    65A      1.128573
      66A      1.141613    67A      1.163811    68A      1.163823
      69A      1.223253    70A      1.274462    71A      1.274465
      72A      1.279582    73A      1.324624    74A      1.324626
      75A      1.355568    76A      1.366386    77A      1.366390
      78A      1.392269    79A      1.403767    80A      1.403769
      81A      1.416961    82A      1.416967    83A      1.428519
      84A      1.492050    85A      1.498812    86A      1.542889
      87A      1.542891    88A      1.573837    89A      1.573839
      90A      1.669892    91A      1.739280    92A      1.739292
      93A      1.768180    94A      1.831672    95A      1.831672
      96A      1.971833    97A      2.018087    98A      2.019898
      99A      2.019901   100A      2.053110   101A      2.053110
     102A      2.738072   103A      2.738073   104A      2.791145
     105A      2.811949   106A      2.890107   107A      2.890113
     108A      2.895189   109A      2.929948   110A      2.929956
     111A      2.959059   112A      2.964426   113A      2.964440
     114A      3.034477   115A      3.070798   116A      3.070811
     117A      3.083998   118A      3.168714   119A      3.168721
     120A      3.180748   121A      3.284913   122A      3.284913
     123A      3.328264   124A      3.328270   125A      3.375325
     126A      3.489664   127A      3.489684   128A      3.514198
     129A      3.525520   130A      3.568915   131A      3.568936
     132A      3.576017   133A      3.666328   134A      3.666336
     135A      3.680738   136A      3.693599   137A      3.693615
     138A      3.777954   139A      3.777980   140A      3.787805
     141A      3.912332   142A      3.912338   143A      4.033349
     144A      4.111484   145A      4.111488   146A      4.147898
     147A      4.147906   148A      4.173175   149A      4.202279
     150A      4.203849   151A      4.203853   152A      4.211345
     153A      4.316273   154A      4.316293   155A      4.360115
     156A      4.423945   157A      4.423948   158A      4.444436
     159A      4.517661   160A      4.517662   161A      4.579253
     162A      4.579266   163A      4.618006   164A      4.709777
     165A      4.774948   166A      4.774956   167A      4.835899
     168A      4.963383   169A      5.002828   170A      5.002840
     171A      5.228408   172A      5.246752   173A      5.246752
     174A      5.356073   175A      5.356086   176A      5.479610

    Beta Occupied:

       1A    -10.167738     2A    -10.167738     3A    -10.167713
       4A    -10.166512     5A     -0.781159     6A     -0.684025
       7A     -0.684025     8A     -0.511756     9A     -0.431246
      10A     -0.431245    11A     -0.421658    12A     -0.376522
      13A     -0.376521    14A     -0.362726    15A     -0.333147
      16A     -0.333147

    Beta Virtual:

      17A     -0.025908    18A      0.077113    19A      0.135010
      20A      0.135011    21A      0.144576    22A      0.144577
      23A      0.163593    24A      0.182407    25A      0.182408
      26A      0.215251    27A      0.219028    28A      0.282360
      29A      0.282363    30A      0.400628    31A      0.400632
      32A      0.419737    33A      0.426750    34A      0.426751
      35A      0.468815    36A      0.497640    37A      0.497641
      38A      0.513712    39A      0.556297    40A      0.584532
      41A      0.584541    42A      0.597602    43A      0.597603
      44A      0.609782    45A      0.628188    46A      0.632206
      47A      0.639615    48A      0.639619    49A      0.667275
      50A      0.667276    51A      0.686385    52A      0.686386
      53A      0.757564    54A      0.830489    55A      0.830491
      56A      0.855617    57A      0.923188    58A      0.923195
      59A      0.946186    60A      0.952825    61A      0.966281
      62A      0.966297    63A      1.009447    64A      1.132591
      65A      1.132602    66A      1.154778    67A      1.168876
      68A      1.168888    69A      1.232324    70A      1.280077
      71A      1.280081    72A      1.285403    73A      1.329653
      74A      1.329655    75A      1.364922    76A      1.371621
      77A      1.371625    78A      1.393344    79A      1.407247
      80A      1.407250    81A      1.421959    82A      1.421965
      83A      1.428791    84A      1.493109    85A      1.509210
      86A      1.547292    87A      1.547292    88A      1.581720
      89A      1.581721    90A      1.674742    91A      1.745044
      92A      1.745055    93A      1.778975    94A      1.835524
      95A      1.835525    96A      1.972701    97A      2.026331
      98A      2.026334    99A      2.039478   100A      2.059809
     101A      2.059809   102A      2.746418   103A      2.746419
     104A      2.812322   105A      2.816329   106A      2.902727
     107A      2.902733   108A      2.924888   109A      2.932443
     110A      2.932452   111A      2.960124   112A      2.969008
     113A      2.969022   114A      3.042403   115A      3.080697
     116A      3.080708   117A      3.085816   118A      3.184461
     119A      3.184465   120A      3.188440   121A      3.289688
     122A      3.289688   123A      3.332044   124A      3.332049
     125A      3.383117   126A      3.492461   127A      3.492481
     128A      3.512579   129A      3.528520   130A      3.575865
     131A      3.582194   132A      3.582215   133A      3.670986
     134A      3.670997   135A      3.693976   136A      3.725390
     137A      3.725406   138A      3.782544   139A      3.782570
     140A      3.816376   141A      3.922100   142A      3.922107
     143A      4.044289   144A      4.118392   145A      4.118394
     146A      4.155025   147A      4.155034   148A      4.187203
     149A      4.209752   150A      4.209755   151A      4.210289
     152A      4.215850   153A      4.323730   154A      4.323750
     155A      4.363499   156A      4.432167   157A      4.432170
     158A      4.447294   159A      4.525439   160A      4.525440
     161A      4.589877   162A      4.589890   163A      4.625122
     164A      4.720226   165A      4.781888   166A      4.781896
     167A      4.838818   168A      4.968175   169A      5.006883
     170A      5.006896   171A      5.234109   172A      5.248540
     173A      5.248540   174A      5.362555   175A      5.362568
     176A      5.481937

    Final Occupation by Irrep:
              A
    DOCC [    16 ]
    SOCC [     1 ]

  @DF-UKS Final Energy:  -157.81307647969911

   => Energetics <=

    Nuclear Repulsion Energy =            125.4062198180462104
    One-Electron Energy =                -458.7715560466583042
    Two-Electron Energy =                 195.8597459383642274
    DFT Exchange-Correlation Energy =     -20.3074861894512644
    Empirical Dispersion Energy =           0.0000000000000000
    VV10 Nonlocal Energy =                  0.0000000000000000
    Total Energy =                       -157.8130764796991059

  UHF NO Occupations:
  HONO-2 :   15  A 1.9995995
  HONO-1 :   16  A 1.9989824
  HONO-0 :   17  A 1.0000000
  LUNO+0 :   18  A 0.0010176
  LUNO+1 :   19  A 0.0004005
  LUNO+2 :   20  A 0.0001972
  LUNO+3 :   21  A 0.0001972

Computation Completed

Properties will be evaluated at   0.000000,   0.000000,   0.000000 [a0]

Properties computed using the SCF density matrix

  Nuclear Dipole Moment: [e a0]
     X:     0.8225      Y:    -0.0000      Z:     0.0000

  Electronic Dipole Moment: [e a0]
     X:    -0.7450      Y:     0.0000      Z:    -0.0000

  Dipole Moment: [e a0]
     X:     0.0775      Y:    -0.0000      Z:     0.0000     Total:     0.0775

  Dipole Moment: [D]
     X:     0.1970      Y:    -0.0000      Z:     0.0000     Total:     0.1970

*** tstop() called on n033 at Fri Nov  5 12:51:05 2021
Module time:
	user time   =     594.20 seconds =       9.90 minutes
	system time =      11.67 seconds =       0.19 minutes
	total time  =        152 seconds =       2.53 minutes
Total time:
	user time   =     594.20 seconds =       9.90 minutes
	system time =      11.67 seconds =       0.19 minutes
	total time  =        152 seconds =       2.53 minutes
Grab this energy -157.8130764796991
    Psi4 stopped on: Friday, 05 November 2021 12:51PM
    Psi4 wall time for execution: 0:02:32.39

*** Psi4 exiting successfully. Buy a developer a beer!
