                               Psi4 1.4a2.dev629

  ==> Input File <==

--------------------------------------------------------------------------
import os
memory 14 GB

molecule {
 C   -0.3233392621   -0.0000019624    0.0000101470
 C    0.0619547676   -1.4006590060   -2.4266224968
 C    0.0610208106    2.8017597481   -0.0006199286
 C    0.0603285251   -1.4010958792    2.4261390155
 H    2.0839483106   -1.6423669914   -2.8423591317
 H   -0.7669667022   -0.3892132664   -4.0274346700
 H   -0.7679566700   -3.2935272557   -2.3522193900
 H    2.0867974609    3.2881043269    0.0020891580
 H   -0.7664734755    3.6816278905    1.6760922074
 H   -0.7648193430    3.6788805312   -1.6769079828
 H    2.0899173230   -1.6458303897    2.8525366557
 H   -0.7631779567   -3.2904653878    2.3457666201
 H   -0.7638416650   -0.3872366719    4.0235297962
units bohr
0 2
}

basis {

assign 6-31g_2dfp_

[ 6-31g_2dfp_ ]

spherical

!----------------------------------------------------------------------
! Basis Set Exchange
! Version v0.8.13
! https://www.basissetexchange.org
!----------------------------------------------------------------------
!   Basis set: 6-31G(2df,p)
! Description: 6-31G(2df,p)
!        Role: orbital
!     Version: 0  (Data from the original Basis Set Exchange)
!----------------------------------------------------------------------

****
H     0
S    3   1.00
     18.7311370              0.03349460
      2.8253937              0.23472695
      0.6401217              0.81375733
S    1   1.00
      0.1612778              1.00000000
P    1   1.00
      1.5000000              1.0000000
P    1   1.00
      0.3750000              1.0000000
****
B     0
S    6   1.00
   2068.8823000              0.0018663
    310.6495700              0.0142515
     70.6830330              0.0695516
     19.8610800              0.2325729
      6.2993048              0.4670787
      2.1270270              0.3634314
SP   3   1.00
      4.7279710             -0.1303938              0.0745976
      1.1903377             -0.1307889              0.3078467
      0.3594117              1.1309444              0.7434568
SP   1   1.00
      0.1267512              1.0000000              1.0000000
D    1   1.00
      0.8020000              1.0000000
D    1   1.00
      0.2005000              1.0000000
F    1   1.00
      0.5000000              1.0000000
****
C     0
S    6   1.00
   3047.5249000              0.0018347
    457.3695100              0.0140373
    103.9486900              0.0688426
     29.2101550              0.2321844
      9.2866630              0.4679413
      3.1639270              0.3623120
SP   3   1.00
      7.8682724             -0.1193324              0.0689991
      1.8812885             -0.1608542              0.3164240
      0.5442493              1.1434564              0.7443083
SP   1   1.00
      0.1687144              1.0000000              1.0000000
D    1   1.00
      1.2520000              1.0000000
D    1   1.00
      0.3130000              1.0000000
F    1   1.00
      0.8000000              1.0000000
****
N     0
S    6   1.00
   4173.5110000              0.0018348
    627.4579000              0.0139950
    142.9021000              0.0685870
     40.2343300              0.2322410
     12.8202100              0.4690700
      4.3904370              0.3604550
SP   3   1.00
     11.6263580             -0.1149610              0.0675800
      2.7162800             -0.1691180              0.3239070
      0.7722180              1.1458520              0.7408950
SP   1   1.00
      0.2120313              1.0000000              1.0000000
D    1   1.00
      1.8260000              1.0000000
D    1   1.00
      0.4565000              1.0000000
F    1   1.00
      1.0000000              1.0000000
****
O     0
S    6   1.00
   5484.6717000              0.0018311
    825.2349500              0.0139501
    188.0469600              0.0684451
     52.9645000              0.2327143
     16.8975700              0.4701930
      5.7996353              0.3585209
SP   3   1.00
     15.5396160             -0.1107775              0.0708743
      3.5999336             -0.1480263              0.3397528
      1.0137618              1.1307670              0.7271586
SP   1   1.00
      0.2700058              1.0000000              1.0000000
D    1   1.00
      2.5840000              1.0000000
D    1   1.00
      0.6460000              1.0000000
F    1   1.00
      1.4000000              1.0000000
****
F     0
S    6   1.00
   7001.7130900              0.0018196169
   1051.3660900              0.0139160796
    239.2856900              0.0684053245
     67.3974453              0.233185760
     21.5199573              0.471267439
      7.40310130             0.356618546
SP   3   1.00
     20.8479528             -0.108506975            0.0716287243
      4.80830834            -0.146451658            0.3459121030
      1.34406986             1.128688580            0.7224699570
SP   1   1.00
      0.358151393            1.0000000              1.0000000
D    1   1.00
      3.5000000              1.0000000
D    1   1.00
      0.8750000              1.0000000
F    1   1.00
      1.8500000              1.0000000
****
Al     0
S    6   1.00
  13983.1000000              0.00194267
   2098.7500000              0.0148599
    477.7050000              0.0728494
    134.3600000              0.2468300
     42.8709000              0.4872580
     14.5189000              0.3234960
SP   6   1.00
    239.6680000             -0.00292619             0.00460285
     57.4419000             -0.0374080              0.0331990
     18.2859000             -0.1144870              0.1362820
      6.5991400              0.1156350              0.3304760
      2.4904900              0.6125950              0.4491460
      0.9445400              0.3937990              0.2657040
SP   3   1.00
      1.2779000             -0.2276060             -0.0175130
      0.3975900              0.00144583             0.2445330
      0.1600950              1.0927900              0.8049340
SP   1   1.00
      0.0556577              1.0000000              1.0000000
D    1   1.00
      0.6500000              1.0000000
D    1   1.00
      0.1625000              1.0000000
F    1   1.00
      0.2500000              1.0000000
****
Si     0
S    6   1.00
  16115.9000000              0.00195948
   2425.5800000              0.01492880
    553.8670000              0.07284780
    156.3400000              0.24613000
     50.0683000              0.48591400
     17.0178000              0.32500200
SP   6   1.00
    292.7180000             -0.00278094             0.00443826
     69.8731000             -0.03571460             0.03266790
     22.3363000             -0.11498500             0.13472100
      8.1503900              0.09356340             0.32867800
      3.1345800              0.60301700             0.44964000
      1.2254300              0.41895900             0.26137200
SP   3   1.00
      1.7273800             -0.24463000            -0.01779510
      0.5729220              0.00431572             0.25353900
      0.2221920              1.09818000             0.80066900
SP   1   1.00
      0.0778369              1.00000000             1.00000000
D    1   1.00
      0.9000000              1.0000000
D    1   1.00
      0.2250000              1.0000000
F    1   1.00
      0.3200000              1.0000000
****
P     0
S    6   1.00
  19413.3000000              0.0018516
   2909.4200000              0.0142062
    661.3640000              0.0699995
    185.7590000              0.2400790
     59.1943000              0.4847620
     20.0310000              0.3352000
SP   6   1.00
    339.4780000             -0.00278217             0.00456462
     81.0101000             -0.0360499              0.03369360
     25.8780000             -0.1166310              0.13975500
      9.4522100              0.0968328              0.33936200
      3.6656600              0.6144180              0.45092100
      1.4674600              0.4037980              0.23858600
SP   3   1.00
      2.1562300             -0.2529230             -0.01776530
      0.7489970              0.0328517              0.27405800
      0.2831450              1.0812500              0.78542100
SP   1   1.00
      0.0998317              1.0000000              1.00000000
D    1   1.00
      1.1000000              1.0000000
D    1   1.00
      0.2750000              1.0000000
F    1   1.00
      0.4500000              1.0000000
****
S     0
S    6   1.00
  21917.1000000              0.0018690
   3301.4900000              0.0142300
    754.1460000              0.0696960
    212.7110000              0.2384870
     67.9896000              0.4833070
     23.0515000              0.3380740
SP   6   1.00
    423.7350000             -0.0023767              0.0040610
    100.7100000             -0.0316930              0.0306810
     32.1599000             -0.1133170              0.1304520
     11.8079000              0.0560900              0.3272050
      4.6311000              0.5922550              0.4528510
      1.8702500              0.4550060              0.2560420
SP   3   1.00
      2.6158400             -0.2503740             -0.0145110
      0.9221670              0.0669570              0.3102630
      0.3412870              1.0545100              0.7544830
SP   1   1.00
      0.1171670              1.0000000              1.0000000
D    1   1.00
      1.3000000              1.0000000
D    1   1.00
      0.3250000              1.0000000
F    1   1.00
      0.5500000              1.0000000
****
Cl     0
S    6   1.00
  25180.1000000              0.0018330
   3780.3500000              0.0140340
    860.4740000              0.0690970
    242.1450000              0.2374520
     77.3349000              0.4830340
     26.2470000              0.3398560
SP   6   1.00
    491.7650000             -0.0022974              0.0039894
    116.9840000             -0.0307140              0.0303180
     37.4153000             -0.1125280              0.1298800
     13.7834000              0.0450160              0.3279510
      5.4521500              0.5893530              0.4535270
      2.2258800              0.4652060              0.2521540
SP   3   1.00
      3.1864900             -0.2518300             -0.0142990
      1.1442700              0.0615890              0.3235720
      0.4203770              1.0601800              0.7435070
SP   1   1.00
      0.1426570              1.0000000              1.0000000
D    1   1.00
      1.5000000              1.0000000
D    1   1.00
      0.3750000              1.0000000
F    1   1.00
      0.7000000              1.0000000
****
}

set {
reference uhf
freeze_core true
e_convergence 10
d_convergence 10
dft_spherical_points 1202
dft_radial_points 99
}

e = energy('b3lyp')

print_out('Grab this energy {0}'.format(e))
--------------------------------------------------------------------------

    Molecular point group: c1

    Geometry (in Bohr), charge = 0, multiplicity = 2:

       Center              X                  Y                   Z               Mass
    ------------   -----------------  -----------------  -----------------  -----------------
         C           -0.323340191631    -0.000002091692     0.000220717309    12.000000000000
         C            0.061953838069    -1.400659135292    -2.426411926491    12.000000000000
         C            0.061019881069     2.801759618808    -0.000409358291    12.000000000000
         C            0.060327595569    -1.401096008492     2.426349585809    12.000000000000
         H            2.083947381069    -1.642367120692    -2.842148561391     1.007825032230
         H           -0.766967631731    -0.389213395692    -4.027224099691     1.007825032230
         H           -0.767957599531    -3.293527384992    -2.352008819691     1.007825032230
         H            2.086796531369     3.288104197608     0.002299728309     1.007825032230
         H           -0.766474405031     3.681627761208     1.676302777709     1.007825032230
         H           -0.764820272531     3.678880401908    -1.676697412491     1.007825032230
         H            2.089916393469    -1.645830518992     2.852747226009     1.007825032230
         H           -0.763178886231    -3.290465517092     2.345977190409     1.007825032230
         H           -0.763842594531    -0.387236801192     4.023740366509     1.007825032230

  Charge       = 0
  Multiplicity = 2
  Basis Set: ANONYMOUSD6616538
    Blend: 6-31G_2DFP_
  Basis Set: (ANONYMOUSD6616538 AUX)
    Blend: DEF2-UNIVERSAL-JKFIT

    Orbital Energies [Eh]
    ---------------------

    Alpha Occupied:

       1A    -10.180342     2A    -10.167031     3A    -10.167030
       4A    -10.166985     5A     -0.797767     6A     -0.686191
       7A     -0.686184     8A     -0.530776     9A     -0.441130
      10A     -0.434858    11A     -0.434484    12A     -0.382973
      13A     -0.382222    14A     -0.363612    15A     -0.338067
      16A     -0.337930    17A     -0.168961

    Alpha Virtual:

      18A      0.076072    19A      0.134071    20A      0.134235
      21A      0.142358    22A      0.142895    23A      0.154881
      24A      0.178530    25A      0.179028    26A      0.203548
      27A      0.214802    28A      0.275951    29A      0.276019
      30A      0.398942    31A      0.399508    32A      0.403349
      33A      0.423946    34A      0.424247    35A      0.456595
      36A      0.495349    37A      0.495428    38A      0.512162
      39A      0.513981    40A      0.578768    41A      0.578849
      42A      0.591241    43A      0.591992    44A      0.602622
      45A      0.624761    46A      0.631736    47A      0.635943
      48A      0.636594    49A      0.663286    50A      0.663545
      51A      0.683590    52A      0.684114    53A      0.734995
      54A      0.825361    55A      0.825452    56A      0.853915
      57A      0.914686    58A      0.915363    59A      0.944111
      60A      0.944614    61A      0.961144    62A      0.961457
      63A      1.003447    64A      1.127804    65A      1.128406
      66A      1.142208    67A      1.163213    68A      1.163340
      69A      1.223326    70A      1.274454    71A      1.274534
      72A      1.279353    73A      1.324024    74A      1.324673
      75A      1.355962    76A      1.365753    77A      1.366368
      78A      1.392461    79A      1.403442    80A      1.404660
      81A      1.416467    82A      1.417733    83A      1.427922
      84A      1.491505    85A      1.499048    86A      1.542788
      87A      1.542871    88A      1.574129    89A      1.574798
      90A      1.669838    91A      1.738898    92A      1.739898
      93A      1.768359    94A      1.830774    95A      1.832023
      96A      1.971726    97A      2.018128    98A      2.018505
      99A      2.019770   100A      2.051813   101A      2.053480
     102A      2.738437   103A      2.738539   104A      2.790926
     105A      2.811424   106A      2.889496   107A      2.890362
     108A      2.894997   109A      2.929221   110A      2.929773
     111A      2.958990   112A      2.964305   113A      2.964460
     114A      3.034006   115A      3.070763   116A      3.071809
     117A      3.084352   118A      3.168680   119A      3.168893
     120A      3.180581   121A      3.285235   122A      3.285400
     123A      3.326442   124A      3.327887   125A      3.375617
     126A      3.489408   127A      3.490916   128A      3.514011
     129A      3.525331   130A      3.568278   131A      3.568385
     132A      3.575264   133A      3.665652   134A      3.667126
     135A      3.679666   136A      3.693474   137A      3.694753
     138A      3.776776   139A      3.776820   140A      3.789170
     141A      3.912019   142A      3.912435   143A      4.034451
     144A      4.111332   145A      4.111410   146A      4.148084
     147A      4.148135   148A      4.173236   149A      4.202537
     150A      4.202960   151A      4.203312   152A      4.210838
     153A      4.315718   154A      4.316188   155A      4.358944
     156A      4.424427   157A      4.424520   158A      4.443363
     159A      4.515172   160A      4.518526   161A      4.578057
     162A      4.578509   163A      4.617594   164A      4.709369
     165A      4.773529   166A      4.775736   167A      4.836899
     168A      4.962857   169A      5.001937   170A      5.003936
     171A      5.228103   172A      5.246244   173A      5.247384
     174A      5.355208   175A      5.355839   176A      5.479347

    Beta Occupied:

       1A    -10.167785     2A    -10.167781     3A    -10.167757
       4A    -10.166520     5A     -0.781092     6A     -0.683999
       7A     -0.683982     8A     -0.511747     9A     -0.431248
      10A     -0.430841    11A     -0.421825    12A     -0.377072
      13A     -0.376291    14A     -0.362595    15A     -0.333177
      16A     -0.333066

    Beta Virtual:

      17A     -0.025744    18A      0.077081    19A      0.134977
      20A      0.135110    21A      0.144256    22A      0.144740
      23A      0.163339    24A      0.182194    25A      0.182706
      26A      0.215032    27A      0.218930    28A      0.282306
      29A      0.282360    30A      0.400116    31A      0.400677
      32A      0.419792    33A      0.426753    34A      0.427063
      35A      0.468502    36A      0.497612    37A      0.497687
      38A      0.513897    39A      0.556326    40A      0.584309
      41A      0.584411    42A      0.597413    43A      0.598184
      44A      0.610038    45A      0.628138    46A      0.631908
      47A      0.639223    48A      0.639871    49A      0.666874
      50A      0.667084    51A      0.686238    52A      0.686735
      53A      0.757518    54A      0.830530    55A      0.830620
      56A      0.855268    57A      0.922685    58A      0.923308
      59A      0.945949    60A      0.953541    61A      0.966456
      62A      0.966756    63A      1.008688    64A      1.131914
      65A      1.132350    66A      1.155581    67A      1.168208
      68A      1.168497    69A      1.232298    70A      1.280033
      71A      1.280149    72A      1.285106    73A      1.328998
      74A      1.329677    75A      1.365361    76A      1.370988
      77A      1.371639    78A      1.393520    79A      1.406887
      80A      1.408143    81A      1.421534    82A      1.422758
      83A      1.428198    84A      1.492553    85A      1.509486
      86A      1.547110    87A      1.547380    88A      1.581853
      89A      1.582808    90A      1.674685    91A      1.744673
      92A      1.745652    93A      1.779133    94A      1.834634
      95A      1.835875    96A      1.972586    97A      2.024749
      98A      2.026144    99A      2.039687   100A      2.058541
     101A      2.060181   102A      2.746766   103A      2.746882
     104A      2.811835   105A      2.816061   106A      2.902189
     107A      2.903089   108A      2.924661   109A      2.931711
     110A      2.932246   111A      2.960058   112A      2.968843
     113A      2.969005   114A      3.041941   115A      3.080622
     116A      3.081767   117A      3.086173   118A      3.184407
     119A      3.184666   120A      3.188261   121A      3.289987
     122A      3.290245   123A      3.330272   124A      3.331668
     125A      3.383434   126A      3.492160   127A      3.493625
     128A      3.512376   129A      3.528376   130A      3.574915
     131A      3.581590   132A      3.581959   133A      3.670475
     134A      3.671802   135A      3.692951   136A      3.725200
     137A      3.726309   138A      3.781315   139A      3.781346
     140A      3.817695   141A      3.921813   142A      3.922273
     143A      4.045339   144A      4.118122   145A      4.118251
     146A      4.155304   147A      4.155329   148A      4.187296
     149A      4.208809   150A      4.209148   151A      4.210699
     152A      4.215310   153A      4.323106   154A      4.323682
     155A      4.362306   156A      4.432658   157A      4.432718
     158A      4.446247   159A      4.522975   160A      4.526305
     161A      4.588655   162A      4.589110   163A      4.624787
     164A      4.719712   165A      4.780473   166A      4.782703
     167A      4.839816   168A      4.967653   169A      5.006009
     170A      5.007943   171A      5.233818   172A      5.248030
     173A      5.249167   174A      5.361697   175A      5.362310
     176A      5.481668

    Final Occupation by Irrep:
              A
    DOCC [    16 ]
    SOCC [     1 ]

  @DF-UKS Final Energy:  -157.81306094445310

   => Energetics <=

    Nuclear Repulsion Energy =            125.3946197070917492
    One-Electron Energy =                -458.7488730060252351
    Two-Electron Energy =                 195.8483375935895765
    DFT Exchange-Correlation Energy =     -20.3071452391091789
    Empirical Dispersion Energy =           0.0000000000000000
    VV10 Nonlocal Energy =                  0.0000000000000000
    Total Energy =                       -157.8130609444530990

  UHF NO Occupations:
  HONO-2 :   15  A 1.9996008
  HONO-1 :   16  A 1.9989805
  HONO-0 :   17  A 1.0000000
  LUNO+0 :   18  A 0.0010195
  LUNO+1 :   19  A 0.0003992
  LUNO+2 :   20  A 0.0001976
  LUNO+3 :   21  A 0.0001975

Computation Completed

Properties will be evaluated at   0.000000,   0.000000,   0.000000 [a0]

Properties computed using the SCF density matrix

  Nuclear Dipole Moment: [e a0]
     X:     0.8272      Y:    -0.0000      Z:     0.0015

  Electronic Dipole Moment: [e a0]
     X:    -0.7493      Y:     0.0000      Z:    -0.0021

  Dipole Moment: [e a0]
     X:     0.0779      Y:     0.0000      Z:    -0.0006     Total:     0.0779

  Dipole Moment: [D]
     X:     0.1980      Y:     0.0000      Z:    -0.0016     Total:     0.1980

*** tstop() called on n035 at Fri Nov  5 12:22:30 2021
Module time:
	user time   =     633.39 seconds =      10.56 minutes
	system time =      11.99 seconds =       0.20 minutes
	total time  =        162 seconds =       2.70 minutes
Total time:
	user time   =     633.39 seconds =      10.56 minutes
	system time =      11.99 seconds =       0.20 minutes
	total time  =        162 seconds =       2.70 minutes
Grab this energy -157.8130609444531
    Psi4 stopped on: Friday, 05 November 2021 12:22PM
    Psi4 wall time for execution: 0:02:42.25

*** Psi4 exiting successfully. Buy a developer a beer!
