                               Psi4 1.4a2.dev629

  ==> Input File <==

--------------------------------------------------------------------------
import os
memory 14 GB

molecule {
 C   -0.3233394377    0.0010186747    0.0000000000
 C    0.0607656429   -1.4023282774   -2.4257700845
 C    0.0617686537    2.8013651816   -0.0000000000
 C    0.0607656429   -1.4023282774    2.4257700845
 H    2.0869774828   -1.6435483479   -2.8477007208
 H   -0.7651706942   -0.3879094332   -4.0255241755
 H   -0.7655899093   -3.2918494496   -2.3491175186
 H    2.0867173776    3.2881988124    0.0000000000
 H   -0.7658597574    3.6803320171    1.6764059210
 H   -0.7658597574    3.6803320171   -1.6764059210
 H    2.0869774828   -1.6435483479    2.8477007208
 H   -0.7655899093   -3.2918494496    2.3491175186
 H   -0.7651706942   -0.3879094332    4.0255241755
units bohr
0 2
}

basis {

assign 6-31g_2dfp_

[ 6-31g_2dfp_ ]

spherical

!----------------------------------------------------------------------
! Basis Set Exchange
! Version v0.8.13
! https://www.basissetexchange.org
!----------------------------------------------------------------------
!   Basis set: 6-31G(2df,p)
! Description: 6-31G(2df,p)
!        Role: orbital
!     Version: 0  (Data from the original Basis Set Exchange)
!----------------------------------------------------------------------

****
H     0
S    3   1.00
     18.7311370              0.03349460
      2.8253937              0.23472695
      0.6401217              0.81375733
S    1   1.00
      0.1612778              1.00000000
P    1   1.00
      1.5000000              1.0000000
P    1   1.00
      0.3750000              1.0000000
****
B     0
S    6   1.00
   2068.8823000              0.0018663
    310.6495700              0.0142515
     70.6830330              0.0695516
     19.8610800              0.2325729
      6.2993048              0.4670787
      2.1270270              0.3634314
SP   3   1.00
      4.7279710             -0.1303938              0.0745976
      1.1903377             -0.1307889              0.3078467
      0.3594117              1.1309444              0.7434568
SP   1   1.00
      0.1267512              1.0000000              1.0000000
D    1   1.00
      0.8020000              1.0000000
D    1   1.00
      0.2005000              1.0000000
F    1   1.00
      0.5000000              1.0000000
****
C     0
S    6   1.00
   3047.5249000              0.0018347
    457.3695100              0.0140373
    103.9486900              0.0688426
     29.2101550              0.2321844
      9.2866630              0.4679413
      3.1639270              0.3623120
SP   3   1.00
      7.8682724             -0.1193324              0.0689991
      1.8812885             -0.1608542              0.3164240
      0.5442493              1.1434564              0.7443083
SP   1   1.00
      0.1687144              1.0000000              1.0000000
D    1   1.00
      1.2520000              1.0000000
D    1   1.00
      0.3130000              1.0000000
F    1   1.00
      0.8000000              1.0000000
****
N     0
S    6   1.00
   4173.5110000              0.0018348
    627.4579000              0.0139950
    142.9021000              0.0685870
     40.2343300              0.2322410
     12.8202100              0.4690700
      4.3904370              0.3604550
SP   3   1.00
     11.6263580             -0.1149610              0.0675800
      2.7162800             -0.1691180              0.3239070
      0.7722180              1.1458520              0.7408950
SP   1   1.00
      0.2120313              1.0000000              1.0000000
D    1   1.00
      1.8260000              1.0000000
D    1   1.00
      0.4565000              1.0000000
F    1   1.00
      1.0000000              1.0000000
****
O     0
S    6   1.00
   5484.6717000              0.0018311
    825.2349500              0.0139501
    188.0469600              0.0684451
     52.9645000              0.2327143
     16.8975700              0.4701930
      5.7996353              0.3585209
SP   3   1.00
     15.5396160             -0.1107775              0.0708743
      3.5999336             -0.1480263              0.3397528
      1.0137618              1.1307670              0.7271586
SP   1   1.00
      0.2700058              1.0000000              1.0000000
D    1   1.00
      2.5840000              1.0000000
D    1   1.00
      0.6460000              1.0000000
F    1   1.00
      1.4000000              1.0000000
****
F     0
S    6   1.00
   7001.7130900              0.0018196169
   1051.3660900              0.0139160796
    239.2856900              0.0684053245
     67.3974453              0.233185760
     21.5199573              0.471267439
      7.40310130             0.356618546
SP   3   1.00
     20.8479528             -0.108506975            0.0716287243
      4.80830834            -0.146451658            0.3459121030
      1.34406986             1.128688580            0.7224699570
SP   1   1.00
      0.358151393            1.0000000              1.0000000
D    1   1.00
      3.5000000              1.0000000
D    1   1.00
      0.8750000              1.0000000
F    1   1.00
      1.8500000              1.0000000
****
Al     0
S    6   1.00
  13983.1000000              0.00194267
   2098.7500000              0.0148599
    477.7050000              0.0728494
    134.3600000              0.2468300
     42.8709000              0.4872580
     14.5189000              0.3234960
SP   6   1.00
    239.6680000             -0.00292619             0.00460285
     57.4419000             -0.0374080              0.0331990
     18.2859000             -0.1144870              0.1362820
      6.5991400              0.1156350              0.3304760
      2.4904900              0.6125950              0.4491460
      0.9445400              0.3937990              0.2657040
SP   3   1.00
      1.2779000             -0.2276060             -0.0175130
      0.3975900              0.00144583             0.2445330
      0.1600950              1.0927900              0.8049340
SP   1   1.00
      0.0556577              1.0000000              1.0000000
D    1   1.00
      0.6500000              1.0000000
D    1   1.00
      0.1625000              1.0000000
F    1   1.00
      0.2500000              1.0000000
****
Si     0
S    6   1.00
  16115.9000000              0.00195948
   2425.5800000              0.01492880
    553.8670000              0.07284780
    156.3400000              0.24613000
     50.0683000              0.48591400
     17.0178000              0.32500200
SP   6   1.00
    292.7180000             -0.00278094             0.00443826
     69.8731000             -0.03571460             0.03266790
     22.3363000             -0.11498500             0.13472100
      8.1503900              0.09356340             0.32867800
      3.1345800              0.60301700             0.44964000
      1.2254300              0.41895900             0.26137200
SP   3   1.00
      1.7273800             -0.24463000            -0.01779510
      0.5729220              0.00431572             0.25353900
      0.2221920              1.09818000             0.80066900
SP   1   1.00
      0.0778369              1.00000000             1.00000000
D    1   1.00
      0.9000000              1.0000000
D    1   1.00
      0.2250000              1.0000000
F    1   1.00
      0.3200000              1.0000000
****
P     0
S    6   1.00
  19413.3000000              0.0018516
   2909.4200000              0.0142062
    661.3640000              0.0699995
    185.7590000              0.2400790
     59.1943000              0.4847620
     20.0310000              0.3352000
SP   6   1.00
    339.4780000             -0.00278217             0.00456462
     81.0101000             -0.0360499              0.03369360
     25.8780000             -0.1166310              0.13975500
      9.4522100              0.0968328              0.33936200
      3.6656600              0.6144180              0.45092100
      1.4674600              0.4037980              0.23858600
SP   3   1.00
      2.1562300             -0.2529230             -0.01776530
      0.7489970              0.0328517              0.27405800
      0.2831450              1.0812500              0.78542100
SP   1   1.00
      0.0998317              1.0000000              1.00000000
D    1   1.00
      1.1000000              1.0000000
D    1   1.00
      0.2750000              1.0000000
F    1   1.00
      0.4500000              1.0000000
****
S     0
S    6   1.00
  21917.1000000              0.0018690
   3301.4900000              0.0142300
    754.1460000              0.0696960
    212.7110000              0.2384870
     67.9896000              0.4833070
     23.0515000              0.3380740
SP   6   1.00
    423.7350000             -0.0023767              0.0040610
    100.7100000             -0.0316930              0.0306810
     32.1599000             -0.1133170              0.1304520
     11.8079000              0.0560900              0.3272050
      4.6311000              0.5922550              0.4528510
      1.8702500              0.4550060              0.2560420
SP   3   1.00
      2.6158400             -0.2503740             -0.0145110
      0.9221670              0.0669570              0.3102630
      0.3412870              1.0545100              0.7544830
SP   1   1.00
      0.1171670              1.0000000              1.0000000
D    1   1.00
      1.3000000              1.0000000
D    1   1.00
      0.3250000              1.0000000
F    1   1.00
      0.5500000              1.0000000
****
Cl     0
S    6   1.00
  25180.1000000              0.0018330
   3780.3500000              0.0140340
    860.4740000              0.0690970
    242.1450000              0.2374520
     77.3349000              0.4830340
     26.2470000              0.3398560
SP   6   1.00
    491.7650000             -0.0022974              0.0039894
    116.9840000             -0.0307140              0.0303180
     37.4153000             -0.1125280              0.1298800
     13.7834000              0.0450160              0.3279510
      5.4521500              0.5893530              0.4535270
      2.2258800              0.4652060              0.2521540
SP   3   1.00
      3.1864900             -0.2518300             -0.0142990
      1.1442700              0.0615890              0.3235720
      0.4203770              1.0601800              0.7435070
SP   1   1.00
      0.1426570              1.0000000              1.0000000
D    1   1.00
      1.5000000              1.0000000
D    1   1.00
      0.3750000              1.0000000
F    1   1.00
      0.7000000              1.0000000
****
}

set {
reference uhf
freeze_core true
e_convergence 10
d_convergence 10
dft_spherical_points 1202
dft_radial_points 99
}

e = energy('b3lyp')

print_out('Grab this energy {0}'.format(e))
--------------------------------------------------------------------------

    Molecular point group: cs

    Geometry (in Bohr), charge = 0, multiplicity = 2:

       Center              X                  Y                   Z               Mass
    ------------   -----------------  -----------------  -----------------  -----------------
         C           -0.323339531429     0.001456842157     0.000000000000    12.000000000000
         C            0.060765549171    -1.401890109943    -2.425770084500    12.000000000000
         C            0.061768559971     2.801803349057     0.000000000000    12.000000000000
         C            0.060765549171    -1.401890109943     2.425770084500    12.000000000000
         H            2.086977389071    -1.643110180443    -2.847700720800     1.007825032230
         H           -0.765170787929    -0.387471265743    -4.025524175500     1.007825032230
         H           -0.765590003029    -3.291411282143    -2.349117518600     1.007825032230
         H            2.086717283871     3.288636979857     0.000000000000     1.007825032230
         H           -0.765859851129     3.680770184557     1.676405921000     1.007825032230
         H           -0.765859851129     3.680770184557    -1.676405921000     1.007825032230
         H            2.086977389071    -1.643110180443     2.847700720800     1.007825032230
         H           -0.765590003029    -3.291411282143     2.349117518600     1.007825032230
         H           -0.765170787929    -0.387471265743     4.025524175500     1.007825032230

  Charge       = 0
  Multiplicity = 2
  Basis Set: ANONYMOUSF046F7A9
    Blend: 6-31G_2DFP_
  Basis Set: (ANONYMOUSF046F7A9 AUX)
    Blend: DEF2-UNIVERSAL-JKFIT

    Orbital Energies [Eh]
    ---------------------

    Alpha Occupied:

       1Ap   -10.180342     2Ap   -10.167052     1App  -10.167015
       3Ap   -10.166978     4Ap    -0.797766     5Ap    -0.686266
       2App   -0.686107     6Ap    -0.530776     7Ap    -0.441125
       3App   -0.434680     8Ap    -0.434661     9Ap    -0.382637
       4App   -0.382561     5App   -0.363609    10Ap    -0.338293
       6App   -0.337706    11Ap    -0.168961

    Alpha Virtual:

      12Ap     0.076072     7App    0.134119    13Ap     0.134193
       8App    0.142565    14Ap     0.142692    15Ap     0.154879
      16Ap     0.178728     9App    0.178828    17Ap     0.203546
      10App    0.214803    11App    0.275859    18Ap     0.276112
      12App    0.399122    19Ap     0.399336    20Ap     0.403343
      21Ap     0.424093    13App    0.424102    22Ap     0.456593
      23Ap     0.495354    14App    0.495425    15App    0.512160
      24Ap     0.513979    16App    0.578780    25Ap     0.578856
      17App    0.591614    26Ap     0.591652    27Ap     0.602571
      28Ap     0.624760    18App    0.631770    19App    0.636249
      29Ap     0.636252    20App    0.663322    30Ap     0.663501
      31Ap     0.683841    21App    0.683864    32Ap     0.734994
      33Ap     0.825406    22App    0.825409    23App    0.853916
      34Ap     0.914924    24App    0.915129    25App    0.944126
      35Ap     0.944613    26App    0.961221    36Ap     0.961363
      37Ap     1.003453    38Ap     1.128089    27App    1.128135
      39Ap     1.142211    40Ap     1.163248    28App    1.163294
      41Ap     1.223324    29App    1.274312    42Ap     1.274668
      43Ap     1.279355    30App    1.324299    44Ap     1.324418
      45Ap     1.355994    46Ap     1.365821    31App    1.366288
      32App    1.392438    33App    1.403823    47Ap     1.404295
      34App    1.416844    48Ap     1.417373    35App    1.427915
      36App    1.491494    49Ap     1.499079    37App    1.542655
      50Ap     1.543001    51Ap     1.574128    38App    1.574768
      52Ap     1.669815    39App    1.739317    53Ap     1.739510
      54Ap     1.768333    55Ap     1.831330    40App    1.831465
      41App    1.971722    56Ap     2.018099    57Ap     2.018816
      42App    2.019476    58Ap     2.052037    43App    2.053237
      44App    2.738437    59Ap     2.738533    60Ap     2.790923
      45App    2.811427    46App    2.889287    61Ap     2.890623
      62Ap     2.894938    47App    2.929332    63Ap     2.929659
      48App    2.958993    64Ap     2.964076    49App    2.964680
      65Ap     3.034009    50App    3.071146    66Ap     3.071424
      51App    3.084350    67Ap     3.168639    52App    3.168904
      68Ap     3.180603    53App    3.285096    69Ap     3.285532
      70Ap     3.327109    54App    3.327209    71Ap     3.375621
      55App    3.490110    72Ap     3.490210    56App    3.514017
      73Ap     3.525329    74Ap     3.568300    57App    3.568478
      58App    3.575145    59App    3.666192    75Ap     3.666559
      76Ap     3.679684    60App    3.694101    77Ap     3.694144
      78Ap     3.776787    61App    3.776821    79Ap     3.789115
      62App    3.911869    80Ap     3.912570    81Ap     4.034461
      82Ap     4.111153    63App    4.111598    64App    4.147943
      83Ap     4.148307    84Ap     4.173248    85Ap     4.202586
      65App    4.203047    86Ap     4.203160    66App    4.210845
      67App    4.315179    87Ap     4.316741    68App    4.358970
      88Ap     4.423891    69App    4.424983    70App    4.443461
      71App    4.516649    89Ap     4.517026    72App    4.577983
      90Ap     4.578565    91Ap     4.617527    92Ap     4.709457
      93Ap     4.774434    73App    4.774745    74App    4.836906
      94Ap     4.962862    95Ap     5.002673    75App    5.003220
      96Ap     5.228032    76App    5.246569    97Ap     5.247063
      77App    5.355486    98Ap     5.355519    78App    5.479351

    Beta Occupied:

       1Ap   -10.167809     1App  -10.167767     2Ap   -10.167748
       3Ap   -10.166519     4Ap    -0.781091     5Ap    -0.684066
       2App   -0.683912     6Ap    -0.511747     3App   -0.431058
       7Ap    -0.431027     8Ap    -0.421821     9Ap    -0.376730
       4App   -0.376640     5App   -0.362593    10Ap    -0.333415
       6App   -0.332829

    Beta Virtual:

      11Ap    -0.025742    12Ap     0.077081     7App    0.134996
      13Ap     0.135095     8App    0.144453    14Ap     0.144544
      15Ap     0.163338    16Ap     0.182411     9App    0.182487
      10App    0.215032    17Ap     0.218929    11App    0.282221
      18Ap     0.282446    12App    0.400291    19Ap     0.400505
      20Ap     0.419789    21Ap     0.426905    13App    0.426913
      22Ap     0.468501    23Ap     0.497617    14App    0.497683
      15App    0.513895    24Ap     0.556325    16App    0.584330
      25Ap     0.584406    17App    0.597785    26Ap     0.597841
      27Ap     0.609994    28Ap     0.628136    18App    0.631928
      29Ap     0.639534    19App    0.639536    20App    0.666882
      30Ap     0.667068    31Ap     0.686474    21App    0.686501
      32Ap     0.757518    22App    0.830575    33Ap     0.830577
      23App    0.855269    34Ap     0.922895    24App    0.923100
      25App    0.945963    35Ap     0.953542    26App    0.966537
      36Ap     0.966659    37Ap     1.008693    38Ap     1.132129
      27App    1.132151    39Ap     1.155583    40Ap     1.168317
      28App    1.168378    41Ap     1.232297    29App    1.279884
      42Ap     1.280289    43Ap     1.285110    30App    1.329278
      44Ap     1.329417    45Ap     1.365411    46Ap     1.371039
      31App    1.371557    32App    1.393497    33App    1.407276
      47Ap     1.407770    34App    1.421913    48Ap     1.422403
      35App    1.428186    36App    1.492542    49Ap     1.509523
      37App    1.547052    50Ap     1.547420    51Ap     1.582009
      38App    1.582630    52Ap     1.674663    39App    1.745079
      53Ap     1.745272    54Ap     1.779111    55Ap     1.835188
      40App    1.835318    41App    1.972582    56Ap     2.025031
      42App    2.025862    57Ap     2.039676    58Ap     2.058731
      43App    2.059972    44App    2.746779    59Ap     2.746863
      45App    2.811839    60Ap     2.816058    46App    2.901988
      61Ap     2.903297    62Ap     2.924646    47App    2.931778
      63Ap     2.932176    48App    2.960056    64Ap     2.968632
      49App    2.969210    65Ap     3.041944    50App    3.081050
      66Ap     3.081342    51App    3.086165    67Ap     3.184342
      52App    3.184678    68Ap     3.188309    53App    3.289925
      69Ap     3.290300    70Ap     3.330901    54App    3.331026
      71Ap     3.383439    55App    3.492825    72Ap     3.492955
      56App    3.512381    73Ap     3.528375    57App    3.574993
      74Ap     3.581686    58App    3.581784    59App    3.670845
      75Ap     3.671410    76Ap     3.692970    77Ap     3.725587
      60App    3.725923    61App    3.781288    78Ap     3.781373
      79Ap     3.817660    62App    3.921665    80Ap     3.922408
      81Ap     4.045348    82Ap     4.117969    63App    4.118411
      64App    4.155188    83Ap     4.155479    84Ap     4.187310
      65App    4.208974    85Ap     4.209025    86Ap     4.210639
      66App    4.215317    67App    4.322587    87Ap     4.324214
      68App    4.362332    88Ap     4.432110    69App    4.433183
      70App    4.446354    71App    4.524454    89Ap     4.524802
      72App    4.588607    90Ap     4.589145    91Ap     4.624719
      92Ap     4.719803    93Ap     4.781406    73App    4.781679
      74App    4.839823    94Ap     4.967656    95Ap     5.006712
      75App    5.007260    96Ap     5.233746    76App    5.248361
      97Ap     5.248840    77App    5.361948    98Ap     5.362018
      78App    5.481672

    Final Occupation by Irrep:
             Ap   App
    DOCC [    10,    6 ]
    SOCC [     1,    0 ]

  @DF-UKS Final Energy:  -157.81307179003295

   => Energetics <=

    Nuclear Repulsion Energy =            125.3945906375489301
    One-Electron Energy =                -458.7488535290360687
    Two-Electron Energy =                 195.8483328588406778
    DFT Exchange-Correlation Energy =     -20.3071417573865212
    Empirical Dispersion Energy =           0.0000000000000000
    VV10 Nonlocal Energy =                  0.0000000000000000
    Total Energy =                       -157.8130717900329500

  UHF NO Occupations:
  HONO-2 :    9 Ap 1.9996009
  HONO-1 :   10 Ap 1.9989805
  HONO-0 :   11 Ap 1.0000000
  LUNO+0 :   12 Ap 0.0010195
  LUNO+1 :   13 Ap 0.0003991
  LUNO+2 :    7App 0.0001980
  LUNO+3 :   14 Ap 0.0001971

Computation Completed

Properties will be evaluated at   0.000000,   0.000000,   0.000000 [a0]

Properties computed using the SCF density matrix

  Nuclear Dipole Moment: [e a0]
     X:     0.8272      Y:     0.0031      Z:     0.0000

  Electronic Dipole Moment: [e a0]
     X:    -0.7493      Y:    -0.0030      Z:     0.0000

  Dipole Moment: [e a0]
     X:     0.0779      Y:     0.0001      Z:     0.0000     Total:     0.0779

  Dipole Moment: [D]
     X:     0.1980      Y:     0.0001      Z:     0.0000     Total:     0.1980

*** tstop() called on n083 at Fri Nov  5 11:42:51 2021
Module time:
	user time   =     491.35 seconds =       8.19 minutes
	system time =       4.55 seconds =       0.08 minutes
	total time  =        124 seconds =       2.07 minutes
Total time:
	user time   =     491.35 seconds =       8.19 minutes
	system time =       4.55 seconds =       0.08 minutes
	total time  =        124 seconds =       2.07 minutes
Grab this energy -157.81307179003295
    Psi4 stopped on: Friday, 05 November 2021 11:42AM
    Psi4 wall time for execution: 0:02:04.72

*** Psi4 exiting successfully. Buy a developer a beer!
