                               Psi4 1.4a2.dev629

  ==> Input File <==

--------------------------------------------------------------------------
import os
memory 14 GB

molecule {
 C   -0.3233405696   -0.0002492620    0.0004978382
 C    0.0617763617   -1.4009218530   -2.4263296218
 C    0.0621328649    2.8016346359    0.0003858504
 C    0.0593914013   -1.4006749315    2.4266670566
 H    2.0817428000   -1.6414803745   -2.8459261412
 H   -0.7660035904   -0.3876692987   -4.0293621956
 H   -0.7633001957   -3.2947740401   -2.3475715058
 H    2.0900350798    3.2942030723    0.0001842973
 H   -0.7628050516    3.6764616267    1.6760836666
 H   -0.7652015698    3.6773888779   -1.6766850054
 H    2.0888828738   -1.6408886842    2.8452769460
 H   -0.7678072696   -3.2906222778    2.3506083363
 H   -0.7681110115   -0.3924318046    4.0261704784
units bohr
0 2
}

basis {

assign 6-31g_2dfp_

[ 6-31g_2dfp_ ]

spherical

!----------------------------------------------------------------------
! Basis Set Exchange
! Version v0.8.13
! https://www.basissetexchange.org
!----------------------------------------------------------------------
!   Basis set: 6-31G(2df,p)
! Description: 6-31G(2df,p)
!        Role: orbital
!     Version: 0  (Data from the original Basis Set Exchange)
!----------------------------------------------------------------------

****
H     0
S    3   1.00
     18.7311370              0.03349460
      2.8253937              0.23472695
      0.6401217              0.81375733
S    1   1.00
      0.1612778              1.00000000
P    1   1.00
      1.5000000              1.0000000
P    1   1.00
      0.3750000              1.0000000
****
B     0
S    6   1.00
   2068.8823000              0.0018663
    310.6495700              0.0142515
     70.6830330              0.0695516
     19.8610800              0.2325729
      6.2993048              0.4670787
      2.1270270              0.3634314
SP   3   1.00
      4.7279710             -0.1303938              0.0745976
      1.1903377             -0.1307889              0.3078467
      0.3594117              1.1309444              0.7434568
SP   1   1.00
      0.1267512              1.0000000              1.0000000
D    1   1.00
      0.8020000              1.0000000
D    1   1.00
      0.2005000              1.0000000
F    1   1.00
      0.5000000              1.0000000
****
C     0
S    6   1.00
   3047.5249000              0.0018347
    457.3695100              0.0140373
    103.9486900              0.0688426
     29.2101550              0.2321844
      9.2866630              0.4679413
      3.1639270              0.3623120
SP   3   1.00
      7.8682724             -0.1193324              0.0689991
      1.8812885             -0.1608542              0.3164240
      0.5442493              1.1434564              0.7443083
SP   1   1.00
      0.1687144              1.0000000              1.0000000
D    1   1.00
      1.2520000              1.0000000
D    1   1.00
      0.3130000              1.0000000
F    1   1.00
      0.8000000              1.0000000
****
N     0
S    6   1.00
   4173.5110000              0.0018348
    627.4579000              0.0139950
    142.9021000              0.0685870
     40.2343300              0.2322410
     12.8202100              0.4690700
      4.3904370              0.3604550
SP   3   1.00
     11.6263580             -0.1149610              0.0675800
      2.7162800             -0.1691180              0.3239070
      0.7722180              1.1458520              0.7408950
SP   1   1.00
      0.2120313              1.0000000              1.0000000
D    1   1.00
      1.8260000              1.0000000
D    1   1.00
      0.4565000              1.0000000
F    1   1.00
      1.0000000              1.0000000
****
O     0
S    6   1.00
   5484.6717000              0.0018311
    825.2349500              0.0139501
    188.0469600              0.0684451
     52.9645000              0.2327143
     16.8975700              0.4701930
      5.7996353              0.3585209
SP   3   1.00
     15.5396160             -0.1107775              0.0708743
      3.5999336             -0.1480263              0.3397528
      1.0137618              1.1307670              0.7271586
SP   1   1.00
      0.2700058              1.0000000              1.0000000
D    1   1.00
      2.5840000              1.0000000
D    1   1.00
      0.6460000              1.0000000
F    1   1.00
      1.4000000              1.0000000
****
F     0
S    6   1.00
   7001.7130900              0.0018196169
   1051.3660900              0.0139160796
    239.2856900              0.0684053245
     67.3974453              0.233185760
     21.5199573              0.471267439
      7.40310130             0.356618546
SP   3   1.00
     20.8479528             -0.108506975            0.0716287243
      4.80830834            -0.146451658            0.3459121030
      1.34406986             1.128688580            0.7224699570
SP   1   1.00
      0.358151393            1.0000000              1.0000000
D    1   1.00
      3.5000000              1.0000000
D    1   1.00
      0.8750000              1.0000000
F    1   1.00
      1.8500000              1.0000000
****
Al     0
S    6   1.00
  13983.1000000              0.00194267
   2098.7500000              0.0148599
    477.7050000              0.0728494
    134.3600000              0.2468300
     42.8709000              0.4872580
     14.5189000              0.3234960
SP   6   1.00
    239.6680000             -0.00292619             0.00460285
     57.4419000             -0.0374080              0.0331990
     18.2859000             -0.1144870              0.1362820
      6.5991400              0.1156350              0.3304760
      2.4904900              0.6125950              0.4491460
      0.9445400              0.3937990              0.2657040
SP   3   1.00
      1.2779000             -0.2276060             -0.0175130
      0.3975900              0.00144583             0.2445330
      0.1600950              1.0927900              0.8049340
SP   1   1.00
      0.0556577              1.0000000              1.0000000
D    1   1.00
      0.6500000              1.0000000
D    1   1.00
      0.1625000              1.0000000
F    1   1.00
      0.2500000              1.0000000
****
Si     0
S    6   1.00
  16115.9000000              0.00195948
   2425.5800000              0.01492880
    553.8670000              0.07284780
    156.3400000              0.24613000
     50.0683000              0.48591400
     17.0178000              0.32500200
SP   6   1.00
    292.7180000             -0.00278094             0.00443826
     69.8731000             -0.03571460             0.03266790
     22.3363000             -0.11498500             0.13472100
      8.1503900              0.09356340             0.32867800
      3.1345800              0.60301700             0.44964000
      1.2254300              0.41895900             0.26137200
SP   3   1.00
      1.7273800             -0.24463000            -0.01779510
      0.5729220              0.00431572             0.25353900
      0.2221920              1.09818000             0.80066900
SP   1   1.00
      0.0778369              1.00000000             1.00000000
D    1   1.00
      0.9000000              1.0000000
D    1   1.00
      0.2250000              1.0000000
F    1   1.00
      0.3200000              1.0000000
****
P     0
S    6   1.00
  19413.3000000              0.0018516
   2909.4200000              0.0142062
    661.3640000              0.0699995
    185.7590000              0.2400790
     59.1943000              0.4847620
     20.0310000              0.3352000
SP   6   1.00
    339.4780000             -0.00278217             0.00456462
     81.0101000             -0.0360499              0.03369360
     25.8780000             -0.1166310              0.13975500
      9.4522100              0.0968328              0.33936200
      3.6656600              0.6144180              0.45092100
      1.4674600              0.4037980              0.23858600
SP   3   1.00
      2.1562300             -0.2529230             -0.01776530
      0.7489970              0.0328517              0.27405800
      0.2831450              1.0812500              0.78542100
SP   1   1.00
      0.0998317              1.0000000              1.00000000
D    1   1.00
      1.1000000              1.0000000
D    1   1.00
      0.2750000              1.0000000
F    1   1.00
      0.4500000              1.0000000
****
S     0
S    6   1.00
  21917.1000000              0.0018690
   3301.4900000              0.0142300
    754.1460000              0.0696960
    212.7110000              0.2384870
     67.9896000              0.4833070
     23.0515000              0.3380740
SP   6   1.00
    423.7350000             -0.0023767              0.0040610
    100.7100000             -0.0316930              0.0306810
     32.1599000             -0.1133170              0.1304520
     11.8079000              0.0560900              0.3272050
      4.6311000              0.5922550              0.4528510
      1.8702500              0.4550060              0.2560420
SP   3   1.00
      2.6158400             -0.2503740             -0.0145110
      0.9221670              0.0669570              0.3102630
      0.3412870              1.0545100              0.7544830
SP   1   1.00
      0.1171670              1.0000000              1.0000000
D    1   1.00
      1.3000000              1.0000000
D    1   1.00
      0.3250000              1.0000000
F    1   1.00
      0.5500000              1.0000000
****
Cl     0
S    6   1.00
  25180.1000000              0.0018330
   3780.3500000              0.0140340
    860.4740000              0.0690970
    242.1450000              0.2374520
     77.3349000              0.4830340
     26.2470000              0.3398560
SP   6   1.00
    491.7650000             -0.0022974              0.0039894
    116.9840000             -0.0307140              0.0303180
     37.4153000             -0.1125280              0.1298800
     13.7834000              0.0450160              0.3279510
      5.4521500              0.5893530              0.4535270
      2.2258800              0.4652060              0.2521540
SP   3   1.00
      3.1864900             -0.2518300             -0.0142990
      1.1442700              0.0615890              0.3235720
      0.4203770              1.0601800              0.7435070
SP   1   1.00
      0.1426570              1.0000000              1.0000000
D    1   1.00
      1.5000000              1.0000000
D    1   1.00
      0.3750000              1.0000000
F    1   1.00
      0.7000000              1.0000000
****
}

set {
reference uhf
freeze_core true
e_convergence 10
d_convergence 10
dft_spherical_points 1202
dft_radial_points 99
}

e = energy('b3lyp')

print_out('Grab this energy {0}'.format(e))
--------------------------------------------------------------------------

    Molecular point group: c1

    Geometry (in Bohr), charge = 0, multiplicity = 2:

       Center              X                  Y                   Z               Mass
    ------------   -----------------  -----------------  -----------------  -----------------
         C           -0.323340577910    -0.000208113434     0.000262641038    12.000000000000
         C            0.061776353390    -1.400880704434    -2.426564818962    12.000000000000
         C            0.062132856590     2.801675784466     0.000150653238    12.000000000000
         C            0.059391392990    -1.400633782934     2.426431859438    12.000000000000
         H            2.081742791690    -1.641439225934    -2.846161338362     1.007825032230
         H           -0.766003598710    -0.387628150134    -4.029597392762     1.007825032230
         H           -0.763300204010    -3.294732891534    -2.347806702962     1.007825032230
         H            2.090035071490     3.294244220866    -0.000050899862     1.007825032230
         H           -0.762805059910     3.676502775266     1.675848469438     1.007825032230
         H           -0.765201578110     3.677430026466    -1.676920202562     1.007825032230
         H            2.088882865490    -1.640847535634     2.845041748838     1.007825032230
         H           -0.767807277910    -3.290581129234     2.350373139138     1.007825032230
         H           -0.768111019810    -0.392390656034     4.025935281238     1.007825032230

  Charge       = 0
  Multiplicity = 2
  Basis Set: ANONYMOUSE23F0F8B
    Blend: 6-31G_2DFP_
  Basis Set: (ANONYMOUSE23F0F8B AUX)
    Blend: DEF2-UNIVERSAL-JKFIT

    Orbital Energies [Eh]
    ---------------------

    Alpha Occupied:

       1A    -10.180343     2A    -10.167060     3A    -10.167014
       4A    -10.166970     5A     -0.797767     6A     -0.686218
       7A     -0.686159     8A     -0.530777     9A     -0.441128
      10A     -0.434759    11A     -0.434583    12A     -0.382823
      13A     -0.382372    14A     -0.363610    15A     -0.338156
      16A     -0.337843    17A     -0.168961

    Alpha Virtual:

      18A      0.076071    19A      0.133981    20A      0.134326
      21A      0.142411    22A      0.142840    23A      0.154881
      24A      0.178614    25A      0.178941    26A      0.203551
      27A      0.214803    28A      0.275907    29A      0.276064
      30A      0.399100    31A      0.399355    32A      0.403344
      33A      0.423965    34A      0.424231    35A      0.456594
      36A      0.495245    37A      0.495530    38A      0.512162
      39A      0.513983    40A      0.578600    41A      0.579019
      42A      0.591330    43A      0.591910    44A      0.602612
      45A      0.624763    46A      0.631728    47A      0.636037
      48A      0.636504    49A      0.663043    50A      0.663796
      51A      0.683649    52A      0.684060    53A      0.734994
      54A      0.825339    55A      0.825465    56A      0.853921
      57A      0.914640    58A      0.915406    59A      0.944109
      60A      0.944611    61A      0.961157    62A      0.961456
      63A      1.003450    64A      1.127707    65A      1.128510
      66A      1.142196    67A      1.163086    68A      1.163473
      69A      1.223327    70A      1.274281    71A      1.274670
      72A      1.279385    73A      1.324273    74A      1.324435
      75A      1.355944    76A      1.366031    77A      1.366082
      78A      1.392449    79A      1.403373    80A      1.404733
      81A      1.416480    82A      1.417734    83A      1.427927
      84A      1.491497    85A      1.499060    86A      1.542367
      87A      1.543324    88A      1.573935    89A      1.574969
      90A      1.669824    91A      1.739239    92A      1.739544
      93A      1.768365    94A      1.830494    95A      1.832308
      96A      1.971708    97A      2.018110    98A      2.018714
      99A      2.019581   100A      2.051592   101A      2.053718
     102A      2.738077   103A      2.738899   104A      2.790927
     105A      2.811427   106A      2.889763   107A      2.890086
     108A      2.895002   109A      2.929187   110A      2.929804
     111A      2.958992   112A      2.964009   113A      2.964753
     114A      3.034011   115A      3.070642   116A      3.071919
     117A      3.084366   118A      3.168466   119A      3.169100
     120A      3.180594   121A      3.284968   122A      3.285663
     123A      3.326259   124A      3.328069   125A      3.375625
     126A      3.489088   127A      3.491222   128A      3.514008
     129A      3.525332   130A      3.568096   131A      3.568544
     132A      3.575300   133A      3.665511   134A      3.667237
     135A      3.679656   136A      3.693442   137A      3.694803
     138A      3.776735   139A      3.776858   140A      3.789180
     141A      3.912072   142A      3.912393   143A      4.034431
     144A      4.110903   145A      4.111804   146A      4.147518
     147A      4.148657   148A      4.173233   149A      4.201497
     150A      4.203406   151A      4.203871   152A      4.210911
     153A      4.315134   154A      4.316847   155A      4.358980
     156A      4.424130   157A      4.424825   158A      4.443407
     159A      4.515879   160A      4.517785   161A      4.578138
     162A      4.578402   163A      4.617607   164A      4.709401
     165A      4.773861   166A      4.775348   167A      4.836908
     168A      4.962869   169A      5.002034   170A      5.003864
     171A      5.228031   172A      5.244667   173A      5.248944
     174A      5.354310   175A      5.356775   176A      5.479373

    Beta Occupied:

       1A    -10.167816     2A    -10.167767     3A    -10.167741
       4A    -10.166520     5A     -0.781092     6A     -0.684016
       7A     -0.683966     8A     -0.511749     9A     -0.431145
      10A     -0.430944    11A     -0.421821    12A     -0.376917
      13A     -0.376447    14A     -0.362595    15A     -0.333266
      16A     -0.332978

    Beta Virtual:

      17A     -0.025743    18A      0.077080    19A      0.134883
      20A      0.135206    21A      0.144310    22A      0.144683
      23A      0.163338    24A      0.182272    25A      0.182627
      26A      0.215032    27A      0.218933    28A      0.282251
      29A      0.282416    30A      0.400274    31A      0.400520
      32A      0.419790    33A      0.426775    34A      0.427043
      35A      0.468501    36A      0.497498    37A      0.497801
      38A      0.513897    39A      0.556326    40A      0.584160
      41A      0.584562    42A      0.597495    43A      0.598110
      44A      0.610026    45A      0.628140    46A      0.631904
      47A      0.639311    48A      0.639780    49A      0.666638
      50A      0.667330    51A      0.686307    52A      0.686671
      53A      0.757517    54A      0.830508    55A      0.830632
      56A      0.855275    57A      0.922642    58A      0.923348
      59A      0.945948    60A      0.953537    61A      0.966442
      62A      0.966783    63A      1.008691    64A      1.131782
      65A      1.132490    66A      1.155564    67A      1.168119
      68A      1.168598    69A      1.232298    70A      1.279872
      71A      1.280273    72A      1.285139    73A      1.329258
      74A      1.329428    75A      1.365341    76A      1.371259
      77A      1.371356    78A      1.393509    79A      1.406802
      80A      1.408236    81A      1.421516    82A      1.422783
      83A      1.428212    84A      1.492546    85A      1.509500
      86A      1.546776    87A      1.547736    88A      1.581724
      89A      1.582921    90A      1.674670    91A      1.745002
      92A      1.745313    93A      1.779136    94A      1.834346
      95A      1.836168    96A      1.972570    97A      2.024978
      98A      2.025925    99A      2.039670   100A      2.058340
     101A      2.060409   102A      2.746421   103A      2.747225
     104A      2.811839   105A      2.816063   106A      2.902441
     107A      2.902834   108A      2.924654   109A      2.931679
     110A      2.932276   111A      2.960059   112A      2.968540
     113A      2.969311   114A      3.041944   115A      3.080481
     116A      3.081881   117A      3.086202   118A      3.184126
     119A      3.184931   120A      3.188284   121A      3.289743
     122A      3.290485   123A      3.330069   124A      3.331869
     125A      3.383442   126A      3.491846   127A      3.493926
     128A      3.512374   129A      3.528378   130A      3.574879
     131A      3.581580   132A      3.582016   133A      3.670235
     134A      3.672017   135A      3.692945   136A      3.725314
     137A      3.726200   138A      3.781270   139A      3.781390
     140A      3.817704   141A      3.921869   142A      3.922228
     143A      4.045318   144A      4.117743   145A      4.118596
     146A      4.154765   147A      4.155835   148A      4.187281
     149A      4.207827   150A      4.209854   151A      4.210944
     152A      4.215386   153A      4.322580   154A      4.324280
     155A      4.362342   156A      4.432341   157A      4.433045
     158A      4.446289   159A      4.523674   160A      4.525571
     161A      4.588723   162A      4.589018   163A      4.624801
     164A      4.719744   165A      4.780792   166A      4.782326
     167A      4.839825   168A      4.967665   169A      5.006098
     170A      5.007879   171A      5.233745   172A      5.246464
     173A      5.250718   174A      5.360780   175A      5.363265
     176A      5.481695

    Final Occupation by Irrep:
              A
    DOCC [    16 ]
    SOCC [     1 ]

  @DF-UKS Final Energy:  -157.81305682271739

   => Energetics <=

    Nuclear Repulsion Energy =            125.3946432072136759
    One-Electron Energy =                -458.7489109364817068
    Two-Electron Energy =                 195.8483572297983528
    DFT Exchange-Correlation Energy =     -20.3071463232477107
    Empirical Dispersion Energy =           0.0000000000000000
    VV10 Nonlocal Energy =                  0.0000000000000000
    Total Energy =                       -157.8130568227173853

  UHF NO Occupations:
  HONO-2 :   15  A 1.9996008
  HONO-1 :   16  A 1.9989804
  HONO-0 :   17  A 1.0000000
  LUNO+0 :   18  A 0.0010196
  LUNO+1 :   19  A 0.0003992
  LUNO+2 :   20  A 0.0001977
  LUNO+3 :   21  A 0.0001974

Computation Completed

Properties will be evaluated at   0.000000,   0.000000,   0.000000 [a0]

Properties computed using the SCF density matrix

  Nuclear Dipole Moment: [e a0]
     X:     0.8272      Y:     0.0003      Z:    -0.0017

  Electronic Dipole Moment: [e a0]
     X:    -0.7493      Y:    -0.0010      Z:     0.0023

  Dipole Moment: [e a0]
     X:     0.0779      Y:    -0.0008      Z:     0.0007     Total:     0.0779

  Dipole Moment: [D]
     X:     0.1980      Y:    -0.0019      Z:     0.0017     Total:     0.1980

*** tstop() called on n079 at Fri Nov  5 14:07:08 2021
Module time:
	user time   =     493.36 seconds =       8.22 minutes
	system time =       4.67 seconds =       0.08 minutes
	total time  =        126 seconds =       2.10 minutes
Total time:
	user time   =     493.36 seconds =       8.22 minutes
	system time =       4.67 seconds =       0.08 minutes
	total time  =        126 seconds =       2.10 minutes
Grab this energy -157.81305682271739
    Psi4 stopped on: Friday, 05 November 2021 02:07PM
    Psi4 wall time for execution: 0:02:05.24

*** Psi4 exiting successfully. Buy a developer a beer!
