                               Psi4 1.4a2.dev629

  ==> Input File <==

--------------------------------------------------------------------------
import os
memory 14 GB

molecule {
 C   -0.3243653099   -0.0000023346    0.0004939869
 C    0.0599959665   -1.4006011478   -2.4258608248
 C    0.0599597232    2.8019132082    0.0000405102
 C    0.0601635227   -1.4013087020    2.4271673527
 H    2.0938717197   -1.6440785160   -2.8474339679
 H   -0.7682001184   -0.3873061971   -4.0265240032
 H   -0.7684538545   -3.2928281557   -2.3484519034
 H    2.0901105911    3.2885212359   -0.0000278120
 H   -0.7666919820    3.6795059729    1.6738221764
 H   -0.7665109877    3.6804946134   -1.6744781501
 H    2.0866275754   -1.6445354065    2.8481704844
 H   -0.7645933835   -3.2868469443    2.3514322166
 H   -0.7645213393   -0.3929519401    4.0216499344
units bohr
0 2
}

basis {

assign 6-31g_2dfp_

[ 6-31g_2dfp_ ]

spherical

!----------------------------------------------------------------------
! Basis Set Exchange
! Version v0.8.13
! https://www.basissetexchange.org
!----------------------------------------------------------------------
!   Basis set: 6-31G(2df,p)
! Description: 6-31G(2df,p)
!        Role: orbital
!     Version: 0  (Data from the original Basis Set Exchange)
!----------------------------------------------------------------------

****
H     0
S    3   1.00
     18.7311370              0.03349460
      2.8253937              0.23472695
      0.6401217              0.81375733
S    1   1.00
      0.1612778              1.00000000
P    1   1.00
      1.5000000              1.0000000
P    1   1.00
      0.3750000              1.0000000
****
B     0
S    6   1.00
   2068.8823000              0.0018663
    310.6495700              0.0142515
     70.6830330              0.0695516
     19.8610800              0.2325729
      6.2993048              0.4670787
      2.1270270              0.3634314
SP   3   1.00
      4.7279710             -0.1303938              0.0745976
      1.1903377             -0.1307889              0.3078467
      0.3594117              1.1309444              0.7434568
SP   1   1.00
      0.1267512              1.0000000              1.0000000
D    1   1.00
      0.8020000              1.0000000
D    1   1.00
      0.2005000              1.0000000
F    1   1.00
      0.5000000              1.0000000
****
C     0
S    6   1.00
   3047.5249000              0.0018347
    457.3695100              0.0140373
    103.9486900              0.0688426
     29.2101550              0.2321844
      9.2866630              0.4679413
      3.1639270              0.3623120
SP   3   1.00
      7.8682724             -0.1193324              0.0689991
      1.8812885             -0.1608542              0.3164240
      0.5442493              1.1434564              0.7443083
SP   1   1.00
      0.1687144              1.0000000              1.0000000
D    1   1.00
      1.2520000              1.0000000
D    1   1.00
      0.3130000              1.0000000
F    1   1.00
      0.8000000              1.0000000
****
N     0
S    6   1.00
   4173.5110000              0.0018348
    627.4579000              0.0139950
    142.9021000              0.0685870
     40.2343300              0.2322410
     12.8202100              0.4690700
      4.3904370              0.3604550
SP   3   1.00
     11.6263580             -0.1149610              0.0675800
      2.7162800             -0.1691180              0.3239070
      0.7722180              1.1458520              0.7408950
SP   1   1.00
      0.2120313              1.0000000              1.0000000
D    1   1.00
      1.8260000              1.0000000
D    1   1.00
      0.4565000              1.0000000
F    1   1.00
      1.0000000              1.0000000
****
O     0
S    6   1.00
   5484.6717000              0.0018311
    825.2349500              0.0139501
    188.0469600              0.0684451
     52.9645000              0.2327143
     16.8975700              0.4701930
      5.7996353              0.3585209
SP   3   1.00
     15.5396160             -0.1107775              0.0708743
      3.5999336             -0.1480263              0.3397528
      1.0137618              1.1307670              0.7271586
SP   1   1.00
      0.2700058              1.0000000              1.0000000
D    1   1.00
      2.5840000              1.0000000
D    1   1.00
      0.6460000              1.0000000
F    1   1.00
      1.4000000              1.0000000
****
F     0
S    6   1.00
   7001.7130900              0.0018196169
   1051.3660900              0.0139160796
    239.2856900              0.0684053245
     67.3974453              0.233185760
     21.5199573              0.471267439
      7.40310130             0.356618546
SP   3   1.00
     20.8479528             -0.108506975            0.0716287243
      4.80830834            -0.146451658            0.3459121030
      1.34406986             1.128688580            0.7224699570
SP   1   1.00
      0.358151393            1.0000000              1.0000000
D    1   1.00
      3.5000000              1.0000000
D    1   1.00
      0.8750000              1.0000000
F    1   1.00
      1.8500000              1.0000000
****
Al     0
S    6   1.00
  13983.1000000              0.00194267
   2098.7500000              0.0148599
    477.7050000              0.0728494
    134.3600000              0.2468300
     42.8709000              0.4872580
     14.5189000              0.3234960
SP   6   1.00
    239.6680000             -0.00292619             0.00460285
     57.4419000             -0.0374080              0.0331990
     18.2859000             -0.1144870              0.1362820
      6.5991400              0.1156350              0.3304760
      2.4904900              0.6125950              0.4491460
      0.9445400              0.3937990              0.2657040
SP   3   1.00
      1.2779000             -0.2276060             -0.0175130
      0.3975900              0.00144583             0.2445330
      0.1600950              1.0927900              0.8049340
SP   1   1.00
      0.0556577              1.0000000              1.0000000
D    1   1.00
      0.6500000              1.0000000
D    1   1.00
      0.1625000              1.0000000
F    1   1.00
      0.2500000              1.0000000
****
Si     0
S    6   1.00
  16115.9000000              0.00195948
   2425.5800000              0.01492880
    553.8670000              0.07284780
    156.3400000              0.24613000
     50.0683000              0.48591400
     17.0178000              0.32500200
SP   6   1.00
    292.7180000             -0.00278094             0.00443826
     69.8731000             -0.03571460             0.03266790
     22.3363000             -0.11498500             0.13472100
      8.1503900              0.09356340             0.32867800
      3.1345800              0.60301700             0.44964000
      1.2254300              0.41895900             0.26137200
SP   3   1.00
      1.7273800             -0.24463000            -0.01779510
      0.5729220              0.00431572             0.25353900
      0.2221920              1.09818000             0.80066900
SP   1   1.00
      0.0778369              1.00000000             1.00000000
D    1   1.00
      0.9000000              1.0000000
D    1   1.00
      0.2250000              1.0000000
F    1   1.00
      0.3200000              1.0000000
****
P     0
S    6   1.00
  19413.3000000              0.0018516
   2909.4200000              0.0142062
    661.3640000              0.0699995
    185.7590000              0.2400790
     59.1943000              0.4847620
     20.0310000              0.3352000
SP   6   1.00
    339.4780000             -0.00278217             0.00456462
     81.0101000             -0.0360499              0.03369360
     25.8780000             -0.1166310              0.13975500
      9.4522100              0.0968328              0.33936200
      3.6656600              0.6144180              0.45092100
      1.4674600              0.4037980              0.23858600
SP   3   1.00
      2.1562300             -0.2529230             -0.01776530
      0.7489970              0.0328517              0.27405800
      0.2831450              1.0812500              0.78542100
SP   1   1.00
      0.0998317              1.0000000              1.00000000
D    1   1.00
      1.1000000              1.0000000
D    1   1.00
      0.2750000              1.0000000
F    1   1.00
      0.4500000              1.0000000
****
S     0
S    6   1.00
  21917.1000000              0.0018690
   3301.4900000              0.0142300
    754.1460000              0.0696960
    212.7110000              0.2384870
     67.9896000              0.4833070
     23.0515000              0.3380740
SP   6   1.00
    423.7350000             -0.0023767              0.0040610
    100.7100000             -0.0316930              0.0306810
     32.1599000             -0.1133170              0.1304520
     11.8079000              0.0560900              0.3272050
      4.6311000              0.5922550              0.4528510
      1.8702500              0.4550060              0.2560420
SP   3   1.00
      2.6158400             -0.2503740             -0.0145110
      0.9221670              0.0669570              0.3102630
      0.3412870              1.0545100              0.7544830
SP   1   1.00
      0.1171670              1.0000000              1.0000000
D    1   1.00
      1.3000000              1.0000000
D    1   1.00
      0.3250000              1.0000000
F    1   1.00
      0.5500000              1.0000000
****
Cl     0
S    6   1.00
  25180.1000000              0.0018330
   3780.3500000              0.0140340
    860.4740000              0.0690970
    242.1450000              0.2374520
     77.3349000              0.4830340
     26.2470000              0.3398560
SP   6   1.00
    491.7650000             -0.0022974              0.0039894
    116.9840000             -0.0307140              0.0303180
     37.4153000             -0.1125280              0.1298800
     13.7834000              0.0450160              0.3279510
      5.4521500              0.5893530              0.4535270
      2.2258800              0.4652060              0.2521540
SP   3   1.00
      3.1864900             -0.2518300             -0.0142990
      1.1442700              0.0615890              0.3235720
      0.4203770              1.0601800              0.7435070
SP   1   1.00
      0.1426570              1.0000000              1.0000000
D    1   1.00
      1.5000000              1.0000000
D    1   1.00
      0.3750000              1.0000000
F    1   1.00
      0.7000000              1.0000000
****
}

set {
reference uhf
freeze_core true
e_convergence 10
d_convergence 10
dft_spherical_points 1202
dft_radial_points 99
}

e = energy('b3lyp')

print_out('Grab this energy {0}'.format(e))
--------------------------------------------------------------------------

    Molecular point group: c1

    Geometry (in Bohr), charge = 0, multiplicity = 2:

       Center              X                  Y                   Z               Mass
    ------------   -----------------  -----------------  -----------------  -----------------
         C           -0.323555182307    -0.000002102428     0.000139392221    12.000000000000
         C            0.060806094093    -1.400600915628    -2.426215419479    12.000000000000
         C            0.060769850793     2.801913440372    -0.000314084479    12.000000000000
         C            0.060973650293    -1.401308469828     2.426812758021    12.000000000000
         H            2.094681847293    -1.644078283828    -2.847788562579     1.007825032230
         H           -0.767389990807    -0.387305964928    -4.026878597879     1.007825032230
         H           -0.767643726907    -3.292827923528    -2.348806498079     1.007825032230
         H            2.090920718693     3.288521468072    -0.000382406679     1.007825032230
         H           -0.765881854407     3.679506205072     1.673467581721     1.007825032230
         H           -0.765700860107     3.680494845572    -1.674832744779     1.007825032230
         H            2.087437702993    -1.644535174328     2.847815889721     1.007825032230
         H           -0.763783255907    -3.286846712128     2.351077621921     1.007825032230
         H           -0.763711211707    -0.392951707928     4.021295339721     1.007825032230

  Charge       = 0
  Multiplicity = 2
  Basis Set: ANONYMOUSCD0701A1
    Blend: 6-31G_2DFP_
  Basis Set: (ANONYMOUSCD0701A1 AUX)
    Blend: DEF2-UNIVERSAL-JKFIT

    Orbital Energies [Eh]
    ---------------------

    Alpha Occupied:

       1A    -10.180401     2A    -10.167598     3A    -10.167019
       4A    -10.166437     5A     -0.797730     6A     -0.686505
       7A     -0.685862     8A     -0.530768     9A     -0.441026
      10A     -0.434804    11A     -0.434629    12A     -0.382684
      13A     -0.382238    14A     -0.363791    15A     -0.338084
      16A     -0.338021    17A     -0.168999

    Alpha Virtual:

      18A      0.076155    19A      0.134128    20A      0.134152
      21A      0.142592    22A      0.142824    23A      0.154708
      24A      0.178284    25A      0.178929    26A      0.203505
      27A      0.215079    28A      0.275916    29A      0.276006
      30A      0.399028    31A      0.399188    32A      0.403256
      33A      0.424190    34A      0.424381    35A      0.456517
      36A      0.495498    37A      0.495641    38A      0.512044
      39A      0.513825    40A      0.578517    41A      0.578766
      42A      0.591060    43A      0.591659    44A      0.601839
      45A      0.625278    46A      0.632081    47A      0.636278
      48A      0.637045    49A      0.662751    50A      0.663105
      51A      0.683793    52A      0.684429    53A      0.735057
      54A      0.824972    55A      0.825765    56A      0.853638
      57A      0.914791    58A      0.914817    59A      0.944417
      60A      0.944751    61A      0.960950    62A      0.961450
      63A      1.003267    64A      1.128032    65A      1.128686
      66A      1.141502    67A      1.163448    68A      1.163621
      69A      1.223738    70A      1.274068    71A      1.274432
      72A      1.279189    73A      1.323783    74A      1.324491
      75A      1.356498    76A      1.365708    77A      1.366239
      78A      1.392400    79A      1.402634    80A      1.403403
      81A      1.417771    82A      1.418409    83A      1.427701
      84A      1.491480    85A      1.498159    86A      1.542408
      87A      1.542526    88A      1.574535    89A      1.575095
      90A      1.671061    91A      1.738482    92A      1.738640
      93A      1.766471    94A      1.831226    95A      1.834430
      96A      1.972717    97A      2.017973    98A      2.019021
      99A      2.019249   100A      2.051300   101A      2.051567
     102A      2.738358   103A      2.739252   104A      2.790533
     105A      2.811885   106A      2.889281   107A      2.889832
     108A      2.894637   109A      2.929599   110A      2.929806
     111A      2.958875   112A      2.963452   113A      2.964482
     114A      3.033331   115A      3.071028   116A      3.071475
     117A      3.085786   118A      3.168525   119A      3.168788
     120A      3.180548   121A      3.285153   122A      3.285295
     123A      3.327747   124A      3.327839   125A      3.375777
     126A      3.489103   127A      3.490773   128A      3.512805
     129A      3.526546   130A      3.567918   131A      3.568003
     132A      3.574372   133A      3.665225   134A      3.666713
     135A      3.680254   136A      3.693894   137A      3.694787
     138A      3.776642   139A      3.777825   140A      3.788335
     141A      3.912333   142A      3.913225   143A      4.034860
     144A      4.110516   145A      4.111999   146A      4.145436
     147A      4.149482   148A      4.171542   149A      4.201124
     150A      4.203669   151A      4.205607   152A      4.210007
     153A      4.314823   154A      4.316234   155A      4.360185
     156A      4.423478   157A      4.423897   158A      4.443793
     159A      4.515925   160A      4.516417   161A      4.578526
     162A      4.579450   163A      4.617394   164A      4.708969
     165A      4.774641   166A      4.774816   167A      4.838230
     168A      4.963174   169A      5.001084   170A      5.002246
     171A      5.225132   172A      5.246121   173A      5.253466
     174A      5.350648   175A      5.356652   176A      5.481395

    Beta Occupied:

       1A    -10.168361     2A    -10.167780     3A    -10.167200
       4A    -10.166580     5A     -0.781062     6A     -0.684320
       7A     -0.683677     8A     -0.511789     9A     -0.431210
      10A     -0.431014    11A     -0.421666    12A     -0.376753
      13A     -0.376289    14A     -0.362784    15A     -0.333196
      16A     -0.333147

    Beta Virtual:

      17A     -0.025873    18A      0.077181    19A      0.135054
      20A      0.135150    21A      0.144487    22A      0.144618
      23A      0.163187    24A      0.181936    25A      0.182563
      26A      0.215301    27A      0.218886    28A      0.282266
      29A      0.282360    30A      0.400196    31A      0.400363
      32A      0.419799    33A      0.426998    34A      0.427195
      35A      0.468325    36A      0.497768    37A      0.497910
      38A      0.513787    39A      0.556132    40A      0.584087
      41A      0.584351    42A      0.597255    43A      0.597810
      44A      0.609380    45A      0.628530    46A      0.632274
      47A      0.639529    48A      0.640253    49A      0.666332
      50A      0.666713    51A      0.686450    52A      0.687018
      53A      0.757576    54A      0.830136    55A      0.830981
      56A      0.855001    57A      0.922783    58A      0.922803
      59A      0.946246    60A      0.953728    61A      0.966250
      62A      0.966694    63A      1.008467    64A      1.132081
      65A      1.132767    66A      1.154958    67A      1.168483
      68A      1.168684    69A      1.232695    70A      1.279642
      71A      1.280009    72A      1.284886    73A      1.328772
      74A      1.329574    75A      1.365887    76A      1.371040
      77A      1.371545    78A      1.393475    79A      1.406022
      80A      1.406829    81A      1.422742    82A      1.423471
      83A      1.427976    84A      1.492503    85A      1.508609
      86A      1.546801    87A      1.547009    88A      1.582398
      89A      1.582943    90A      1.675958    91A      1.744256
      92A      1.744382    93A      1.777236    94A      1.835111
      95A      1.838259    96A      1.973567    97A      2.025231
      98A      2.025301    99A      2.039583   100A      2.058084
     101A      2.058470   102A      2.746688   103A      2.747611
     104A      2.812299   105A      2.815632   106A      2.902037
     107A      2.902428   108A      2.924115   109A      2.932131
     110A      2.932241   111A      2.959936   112A      2.967920
     113A      2.969030   114A      3.041480   115A      3.080857
     116A      3.081415   117A      3.087628   118A      3.184245
     119A      3.184583   120A      3.188229   121A      3.289956
     122A      3.290151   123A      3.331536   124A      3.331588
     125A      3.383570   126A      3.491826   127A      3.493431
     128A      3.511167   129A      3.529576   130A      3.574125
     131A      3.581485   132A      3.581558   133A      3.669841
     134A      3.671426   135A      3.693548   136A      3.725498
     137A      3.726394   138A      3.781133   139A      3.782262
     140A      3.816907   141A      3.922220   142A      3.923086
     143A      4.045804   144A      4.117541   145A      4.118589
     146A      4.152861   147A      4.156492   148A      4.185618
     149A      4.208082   150A      4.209879   151A      4.212445
     152A      4.214626   153A      4.322322   154A      4.323483
     155A      4.363505   156A      4.431713   157A      4.432046
     158A      4.446668   159A      4.523811   160A      4.524182
     161A      4.589132   162A      4.589962   163A      4.624494
     164A      4.719429   165A      4.781513   166A      4.781751
     167A      4.841135   168A      4.967982   169A      5.005167
     170A      5.006294   171A      5.230810   172A      5.247896
     173A      5.255240   174A      5.357111   175A      5.363089
     176A      5.483703

    Final Occupation by Irrep:
              A
    DOCC [    16 ]
    SOCC [     1 ]

  @DF-UKS Final Energy:  -157.81304493172607

   => Energetics <=

    Nuclear Repulsion Energy =            125.3893353927403496
    One-Electron Energy =                -458.7382369993649718
    Two-Electron Energy =                 195.8428981793496746
    DFT Exchange-Correlation Energy =     -20.3070415044511243
    Empirical Dispersion Energy =           0.0000000000000000
    VV10 Nonlocal Energy =                  0.0000000000000000
    Total Energy =                       -157.8130449317260684

  UHF NO Occupations:
  HONO-2 :   15  A 1.9995985
  HONO-1 :   16  A 1.9989796
  HONO-0 :   17  A 1.0000000
  LUNO+0 :   18  A 0.0010204
  LUNO+1 :   19  A 0.0004015
  LUNO+2 :   20  A 0.0001976
  LUNO+3 :   21  A 0.0001975

Computation Completed

Properties will be evaluated at   0.000000,   0.000000,   0.000000 [a0]

Properties computed using the SCF density matrix

  Nuclear Dipole Moment: [e a0]
     X:     0.8329      Y:    -0.0000      Z:    -0.0025

  Electronic Dipole Moment: [e a0]
     X:    -0.7582      Y:     0.0000      Z:     0.0049

  Dipole Moment: [e a0]
     X:     0.0747      Y:     0.0000      Z:     0.0024     Total:     0.0748

  Dipole Moment: [D]
     X:     0.1899      Y:     0.0000      Z:     0.0062     Total:     0.1900

*** tstop() called on n065 at Fri Nov  5 14:48:55 2021
Module time:
	user time   =     556.47 seconds =       9.27 minutes
	system time =      12.48 seconds =       0.21 minutes
	total time  =        143 seconds =       2.38 minutes
Total time:
	user time   =     556.47 seconds =       9.27 minutes
	system time =      12.48 seconds =       0.21 minutes
	total time  =        143 seconds =       2.38 minutes
Grab this energy -157.81304493172607
    Psi4 stopped on: Friday, 05 November 2021 02:48PM
    Psi4 wall time for execution: 0:02:23.14

*** Psi4 exiting successfully. Buy a developer a beer!
