                               Psi4 1.4a2.dev629

  ==> Input File <==

--------------------------------------------------------------------------
import os
memory 14 GB

molecule {
 C   -0.3215606793   -0.0000018666   -0.0000017732
 C    0.0616982754   -1.4007894804   -2.4261331448
 C    0.0615789373    2.8015017110   -0.0000489242
 C    0.0616992642   -1.4007079048    2.4261820672
 H    2.0865957196   -1.6511446043   -2.8503390927
 H   -0.7617987676   -0.3842860254   -4.0237658333
 H   -0.7699889467   -3.2892492308   -2.3471045076
 H    2.0864582349    3.2941358120   -0.0046501199
 H   -0.7620438195    3.6767984103    1.6790467630
 H   -0.7700609014    3.6772529639   -1.6750635897
 H    2.0865993925   -1.6430836811    2.8549919734
 H   -0.7619609309   -3.2924826789    2.3447239804
 H   -0.7698236553   -0.3879677386    4.0221622014
units bohr
0 2
}

basis {

assign 6-31g_2dfp_

[ 6-31g_2dfp_ ]

spherical

!----------------------------------------------------------------------
! Basis Set Exchange
! Version v0.8.13
! https://www.basissetexchange.org
!----------------------------------------------------------------------
!   Basis set: 6-31G(2df,p)
! Description: 6-31G(2df,p)
!        Role: orbital
!     Version: 0  (Data from the original Basis Set Exchange)
!----------------------------------------------------------------------

****
H     0
S    3   1.00
     18.7311370              0.03349460
      2.8253937              0.23472695
      0.6401217              0.81375733
S    1   1.00
      0.1612778              1.00000000
P    1   1.00
      1.5000000              1.0000000
P    1   1.00
      0.3750000              1.0000000
****
B     0
S    6   1.00
   2068.8823000              0.0018663
    310.6495700              0.0142515
     70.6830330              0.0695516
     19.8610800              0.2325729
      6.2993048              0.4670787
      2.1270270              0.3634314
SP   3   1.00
      4.7279710             -0.1303938              0.0745976
      1.1903377             -0.1307889              0.3078467
      0.3594117              1.1309444              0.7434568
SP   1   1.00
      0.1267512              1.0000000              1.0000000
D    1   1.00
      0.8020000              1.0000000
D    1   1.00
      0.2005000              1.0000000
F    1   1.00
      0.5000000              1.0000000
****
C     0
S    6   1.00
   3047.5249000              0.0018347
    457.3695100              0.0140373
    103.9486900              0.0688426
     29.2101550              0.2321844
      9.2866630              0.4679413
      3.1639270              0.3623120
SP   3   1.00
      7.8682724             -0.1193324              0.0689991
      1.8812885             -0.1608542              0.3164240
      0.5442493              1.1434564              0.7443083
SP   1   1.00
      0.1687144              1.0000000              1.0000000
D    1   1.00
      1.2520000              1.0000000
D    1   1.00
      0.3130000              1.0000000
F    1   1.00
      0.8000000              1.0000000
****
N     0
S    6   1.00
   4173.5110000              0.0018348
    627.4579000              0.0139950
    142.9021000              0.0685870
     40.2343300              0.2322410
     12.8202100              0.4690700
      4.3904370              0.3604550
SP   3   1.00
     11.6263580             -0.1149610              0.0675800
      2.7162800             -0.1691180              0.3239070
      0.7722180              1.1458520              0.7408950
SP   1   1.00
      0.2120313              1.0000000              1.0000000
D    1   1.00
      1.8260000              1.0000000
D    1   1.00
      0.4565000              1.0000000
F    1   1.00
      1.0000000              1.0000000
****
O     0
S    6   1.00
   5484.6717000              0.0018311
    825.2349500              0.0139501
    188.0469600              0.0684451
     52.9645000              0.2327143
     16.8975700              0.4701930
      5.7996353              0.3585209
SP   3   1.00
     15.5396160             -0.1107775              0.0708743
      3.5999336             -0.1480263              0.3397528
      1.0137618              1.1307670              0.7271586
SP   1   1.00
      0.2700058              1.0000000              1.0000000
D    1   1.00
      2.5840000              1.0000000
D    1   1.00
      0.6460000              1.0000000
F    1   1.00
      1.4000000              1.0000000
****
F     0
S    6   1.00
   7001.7130900              0.0018196169
   1051.3660900              0.0139160796
    239.2856900              0.0684053245
     67.3974453              0.233185760
     21.5199573              0.471267439
      7.40310130             0.356618546
SP   3   1.00
     20.8479528             -0.108506975            0.0716287243
      4.80830834            -0.146451658            0.3459121030
      1.34406986             1.128688580            0.7224699570
SP   1   1.00
      0.358151393            1.0000000              1.0000000
D    1   1.00
      3.5000000              1.0000000
D    1   1.00
      0.8750000              1.0000000
F    1   1.00
      1.8500000              1.0000000
****
Al     0
S    6   1.00
  13983.1000000              0.00194267
   2098.7500000              0.0148599
    477.7050000              0.0728494
    134.3600000              0.2468300
     42.8709000              0.4872580
     14.5189000              0.3234960
SP   6   1.00
    239.6680000             -0.00292619             0.00460285
     57.4419000             -0.0374080              0.0331990
     18.2859000             -0.1144870              0.1362820
      6.5991400              0.1156350              0.3304760
      2.4904900              0.6125950              0.4491460
      0.9445400              0.3937990              0.2657040
SP   3   1.00
      1.2779000             -0.2276060             -0.0175130
      0.3975900              0.00144583             0.2445330
      0.1600950              1.0927900              0.8049340
SP   1   1.00
      0.0556577              1.0000000              1.0000000
D    1   1.00
      0.6500000              1.0000000
D    1   1.00
      0.1625000              1.0000000
F    1   1.00
      0.2500000              1.0000000
****
Si     0
S    6   1.00
  16115.9000000              0.00195948
   2425.5800000              0.01492880
    553.8670000              0.07284780
    156.3400000              0.24613000
     50.0683000              0.48591400
     17.0178000              0.32500200
SP   6   1.00
    292.7180000             -0.00278094             0.00443826
     69.8731000             -0.03571460             0.03266790
     22.3363000             -0.11498500             0.13472100
      8.1503900              0.09356340             0.32867800
      3.1345800              0.60301700             0.44964000
      1.2254300              0.41895900             0.26137200
SP   3   1.00
      1.7273800             -0.24463000            -0.01779510
      0.5729220              0.00431572             0.25353900
      0.2221920              1.09818000             0.80066900
SP   1   1.00
      0.0778369              1.00000000             1.00000000
D    1   1.00
      0.9000000              1.0000000
D    1   1.00
      0.2250000              1.0000000
F    1   1.00
      0.3200000              1.0000000
****
P     0
S    6   1.00
  19413.3000000              0.0018516
   2909.4200000              0.0142062
    661.3640000              0.0699995
    185.7590000              0.2400790
     59.1943000              0.4847620
     20.0310000              0.3352000
SP   6   1.00
    339.4780000             -0.00278217             0.00456462
     81.0101000             -0.0360499              0.03369360
     25.8780000             -0.1166310              0.13975500
      9.4522100              0.0968328              0.33936200
      3.6656600              0.6144180              0.45092100
      1.4674600              0.4037980              0.23858600
SP   3   1.00
      2.1562300             -0.2529230             -0.01776530
      0.7489970              0.0328517              0.27405800
      0.2831450              1.0812500              0.78542100
SP   1   1.00
      0.0998317              1.0000000              1.00000000
D    1   1.00
      1.1000000              1.0000000
D    1   1.00
      0.2750000              1.0000000
F    1   1.00
      0.4500000              1.0000000
****
S     0
S    6   1.00
  21917.1000000              0.0018690
   3301.4900000              0.0142300
    754.1460000              0.0696960
    212.7110000              0.2384870
     67.9896000              0.4833070
     23.0515000              0.3380740
SP   6   1.00
    423.7350000             -0.0023767              0.0040610
    100.7100000             -0.0316930              0.0306810
     32.1599000             -0.1133170              0.1304520
     11.8079000              0.0560900              0.3272050
      4.6311000              0.5922550              0.4528510
      1.8702500              0.4550060              0.2560420
SP   3   1.00
      2.6158400             -0.2503740             -0.0145110
      0.9221670              0.0669570              0.3102630
      0.3412870              1.0545100              0.7544830
SP   1   1.00
      0.1171670              1.0000000              1.0000000
D    1   1.00
      1.3000000              1.0000000
D    1   1.00
      0.3250000              1.0000000
F    1   1.00
      0.5500000              1.0000000
****
Cl     0
S    6   1.00
  25180.1000000              0.0018330
   3780.3500000              0.0140340
    860.4740000              0.0690970
    242.1450000              0.2374520
     77.3349000              0.4830340
     26.2470000              0.3398560
SP   6   1.00
    491.7650000             -0.0022974              0.0039894
    116.9840000             -0.0307140              0.0303180
     37.4153000             -0.1125280              0.1298800
     13.7834000              0.0450160              0.3279510
      5.4521500              0.5893530              0.4535270
      2.2258800              0.4652060              0.2521540
SP   3   1.00
      3.1864900             -0.2518300             -0.0142990
      1.1442700              0.0615890              0.3235720
      0.4203770              1.0601800              0.7435070
SP   1   1.00
      0.1426570              1.0000000              1.0000000
D    1   1.00
      1.5000000              1.0000000
D    1   1.00
      0.3750000              1.0000000
F    1   1.00
      0.7000000              1.0000000
****
}

set {
reference uhf
freeze_core true
e_convergence 10
d_convergence 10
dft_spherical_points 1202
dft_radial_points 99
}

e = energy('b3lyp')

print_out('Grab this energy {0}'.format(e))
--------------------------------------------------------------------------

    Molecular point group: c1

    Geometry (in Bohr), charge = 0, multiplicity = 2:

       Center              X                  Y                   Z               Mass
    ------------   -----------------  -----------------  -----------------  -----------------
         C           -0.322226287888    -0.000001910896    -0.000001431322    12.000000000000
         C            0.061032666812    -1.400789524696    -2.426132802922    12.000000000000
         C            0.060913328712     2.801501666704    -0.000048582322    12.000000000000
         C            0.061033655612    -1.400707949096     2.426182409078    12.000000000000
         H            2.085930111012    -1.651144648596    -2.850338750822     1.007825032230
         H           -0.762464376188    -0.384286069696    -4.023765491422     1.007825032230
         H           -0.770654555288    -3.289249275096    -2.347104165722     1.007825032230
         H            2.085792626312     3.294135767704    -0.004649778022     1.007825032230
         H           -0.762709428088     3.676798366004     1.679047104878     1.007825032230
         H           -0.770726509988     3.677252919604    -1.675063247822     1.007825032230
         H            2.085933783912    -1.643083725396     2.854992315278     1.007825032230
         H           -0.762626539488    -3.292482723196     2.344724322278     1.007825032230
         H           -0.770489263888    -0.387967782896     4.022162543278     1.007825032230

  Charge       = 0
  Multiplicity = 2
  Basis Set: ANONYMOUSFA8D5140
    Blend: 6-31G_2DFP_
  Basis Set: (ANONYMOUSFA8D5140 AUX)
    Blend: DEF2-UNIVERSAL-JKFIT

    Orbital Energies [Eh]
    ---------------------

    Alpha Occupied:

       1A    -10.180329     2A    -10.166984     3A    -10.166984
       4A    -10.166938     5A     -0.797830     6A     -0.686224
       7A     -0.686224     8A     -0.530788     9A     -0.440953
      10A     -0.434883    11A     -0.434882    12A     -0.382448
      13A     -0.382446    14A     -0.363749    15A     -0.338021
      16A     -0.338021    17A     -0.169050

    Alpha Virtual:

      18A      0.076108    19A      0.134107    20A      0.134108
      21A      0.142696    22A      0.142696    23A      0.155084
      24A      0.178742    25A      0.178742    26A      0.203679
      27A      0.215023    28A      0.276024    29A      0.276026
      30A      0.399454    31A      0.399458    32A      0.403269
      33A      0.423945    34A      0.423945    35A      0.456829
      36A      0.495365    37A      0.495366    38A      0.511960
      39A      0.514049    40A      0.578959    41A      0.578968
      42A      0.591451    43A      0.591453    44A      0.602337
      45A      0.624825    46A      0.632030    47A      0.636335
      48A      0.636339    49A      0.663689    50A      0.663689
      51A      0.683766    52A      0.683767    53A      0.735077
      54A      0.825305    55A      0.825308    56A      0.854259
      57A      0.915169    58A      0.915175    59A      0.943716
      60A      0.944439    61A      0.961006    62A      0.961023
      63A      1.004189    64A      1.128562    65A      1.128575
      66A      1.141618    67A      1.163811    68A      1.163823
      69A      1.223255    70A      1.274460    71A      1.274463
      72A      1.279581    73A      1.324627    74A      1.324629
      75A      1.355562    76A      1.366379    77A      1.366383
      78A      1.392277    79A      1.403765    80A      1.403767
      81A      1.416969    82A      1.416975    83A      1.428521
      84A      1.492063    85A      1.498788    86A      1.542890
      87A      1.542892    88A      1.573829    89A      1.573831
      90A      1.669894    91A      1.739279    92A      1.739290
      93A      1.768172    94A      1.831673    95A      1.831674
      96A      1.971829    97A      2.018089    98A      2.019894
      99A      2.019897   100A      2.053107   101A      2.053109
     102A      2.738072   103A      2.738073   104A      2.791145
     105A      2.811943   106A      2.890111   107A      2.890117
     108A      2.895193   109A      2.929946   110A      2.929955
     111A      2.959055   112A      2.964423   113A      2.964437
     114A      3.034476   115A      3.070796   116A      3.070810
     117A      3.084000   118A      3.168711   119A      3.168719
     120A      3.180747   121A      3.284914   122A      3.284914
     123A      3.328261   124A      3.328267   125A      3.375327
     126A      3.489666   127A      3.489687   128A      3.514213
     129A      3.525501   130A      3.568918   131A      3.568938
     132A      3.576018   133A      3.666336   134A      3.666345
     135A      3.680738   136A      3.693592   137A      3.693608
     138A      3.777947   139A      3.777973   140A      3.787806
     141A      3.912331   142A      3.912337   143A      4.033352
     144A      4.111484   145A      4.111489   146A      4.147898
     147A      4.147906   148A      4.173176   149A      4.202285
     150A      4.203850   151A      4.203854   152A      4.211343
     153A      4.316283   154A      4.316302   155A      4.360116
     156A      4.423949   157A      4.423951   158A      4.444440
     159A      4.517655   160A      4.517657   161A      4.579253
     162A      4.579266   163A      4.618007   164A      4.709764
     165A      4.774942   166A      4.774951   167A      4.835893
     168A      4.963382   169A      5.002832   170A      5.002844
     171A      5.228409   172A      5.246746   173A      5.246746
     174A      5.356070   175A      5.356083   176A      5.479605

    Beta Occupied:

       1A    -10.167738     2A    -10.167737     3A    -10.167713
       4A    -10.166512     5A     -0.781159     6A     -0.684025
       7A     -0.684025     8A     -0.511755     9A     -0.431245
      10A     -0.431245    11A     -0.421657    12A     -0.376522
      13A     -0.376521    14A     -0.362727    15A     -0.333148
      16A     -0.333147

    Beta Virtual:

      17A     -0.025908    18A      0.077114    19A      0.135012
      20A      0.135012    21A      0.144577    22A      0.144577
      23A      0.163594    24A      0.182406    25A      0.182406
      26A      0.215254    27A      0.219023    28A      0.282361
      29A      0.282363    30A      0.400628    31A      0.400632
      32A      0.419738    33A      0.426750    34A      0.426751
      35A      0.468816    36A      0.497640    37A      0.497641
      38A      0.513712    39A      0.556298    40A      0.584532
      41A      0.584540    42A      0.597602    43A      0.597604
      44A      0.609780    45A      0.628204    46A      0.632190
      47A      0.639615    48A      0.639619    49A      0.667276
      50A      0.667276    51A      0.686382    52A      0.686384
      53A      0.757564    54A      0.830489    55A      0.830492
      56A      0.855615    57A      0.923186    58A      0.923193
      59A      0.946166    60A      0.952836    61A      0.966285
      62A      0.966301    63A      1.009458    64A      1.132592
      65A      1.132604    66A      1.154783    67A      1.168876
      68A      1.168888    69A      1.232326    70A      1.280075
      71A      1.280079    72A      1.285403    73A      1.329656
      74A      1.329658    75A      1.364913    76A      1.371615
      77A      1.371619    78A      1.393355    79A      1.407245
      80A      1.407248    81A      1.421967    82A      1.421973
      83A      1.428793    84A      1.493116    85A      1.509193
      86A      1.547293    87A      1.547293    88A      1.581712
      89A      1.581713    90A      1.674744    91A      1.745042
      92A      1.745053    93A      1.778968    94A      1.835526
      95A      1.835527    96A      1.972696    97A      2.026327
      98A      2.026330    99A      2.039480   100A      2.059806
     101A      2.059808   102A      2.746419   103A      2.746420
     104A      2.812309   105A      2.816335   106A      2.902731
     107A      2.902737   108A      2.924892   109A      2.932440
     110A      2.932449   111A      2.960121   112A      2.969005
     113A      2.969020   114A      3.042401   115A      3.080695
     116A      3.080706   117A      3.085818   118A      3.184458
     119A      3.184463   120A      3.188439   121A      3.289689
     122A      3.289689   123A      3.332042   124A      3.332047
     125A      3.383119   126A      3.492463   127A      3.492484
     128A      3.512590   129A      3.528505   130A      3.575867
     131A      3.582196   132A      3.582218   133A      3.670992
     134A      3.671003   135A      3.693975   136A      3.725385
     137A      3.725401   138A      3.782537   139A      3.782563
     140A      3.816376   141A      3.922100   142A      3.922107
     143A      4.044292   144A      4.118392   145A      4.118395
     146A      4.155026   147A      4.155034   148A      4.187204
     149A      4.209753   150A      4.209756   151A      4.210295
     152A      4.215847   153A      4.323740   154A      4.323760
     155A      4.363500   156A      4.432170   157A      4.432172
     158A      4.447297   159A      4.525433   160A      4.525435
     161A      4.589877   162A      4.589890   163A      4.625123
     164A      4.720214   165A      4.781882   166A      4.781890
     167A      4.838813   168A      4.968174   169A      5.006887
     170A      5.006900   171A      5.234110   172A      5.248533
     173A      5.248534   174A      5.362552   175A      5.362565
     176A      5.481932

    Final Occupation by Irrep:
              A
    DOCC [    16 ]
    SOCC [     1 ]

  @DF-UKS Final Energy:  -157.81307907132964

   => Energetics <=

    Nuclear Repulsion Energy =            125.4061969671087269
    One-Electron Energy =                -458.7715190685348716
    Two-Electron Energy =                 195.8597284753120391
    DFT Exchange-Correlation Energy =     -20.3074854452155087
    Empirical Dispersion Energy =           0.0000000000000000
    VV10 Nonlocal Energy =                  0.0000000000000000
    Total Energy =                       -157.8130790713296392

  UHF NO Occupations:
  HONO-2 :   15  A 1.9995995
  HONO-1 :   16  A 1.9989824
  HONO-0 :   17  A 1.0000000
  LUNO+0 :   18  A 0.0010176
  LUNO+1 :   19  A 0.0004005
  LUNO+2 :   20  A 0.0001972
  LUNO+3 :   21  A 0.0001972

Computation Completed

Properties will be evaluated at   0.000000,   0.000000,   0.000000 [a0]

Properties computed using the SCF density matrix

  Nuclear Dipole Moment: [e a0]
     X:     0.8225      Y:    -0.0000      Z:     0.0000

  Electronic Dipole Moment: [e a0]
     X:    -0.7450      Y:     0.0000      Z:    -0.0000

  Dipole Moment: [e a0]
     X:     0.0775      Y:     0.0000      Z:     0.0000     Total:     0.0775

  Dipole Moment: [D]
     X:     0.1970      Y:     0.0000      Z:     0.0000     Total:     0.1970

*** tstop() called on n031 at Fri Nov  5 15:40:00 2021
Module time:
	user time   =     633.87 seconds =      10.56 minutes
	system time =      11.82 seconds =       0.20 minutes
	total time  =        162 seconds =       2.70 minutes
Total time:
	user time   =     633.87 seconds =      10.56 minutes
	system time =      11.82 seconds =       0.20 minutes
	total time  =        162 seconds =       2.70 minutes
Grab this energy -157.81307907132964
    Psi4 stopped on: Friday, 05 November 2021 03:40PM
    Psi4 wall time for execution: 0:02:42.33

*** Psi4 exiting successfully. Buy a developer a beer!
