                               Psi4 1.4a2.dev629

  ==> Input File <==

--------------------------------------------------------------------------
import os
memory 14 GB

molecule {
 C   -0.3233397975   -0.0000001567    0.0010210156
 C    0.0604924846   -1.4016521916   -2.4263268194
 C    0.0610181714    2.8017584208   -0.0034027517
 C    0.0617880116   -1.4000990886    2.4264349772
 H    2.0870087981   -1.6438183153   -2.8475044849
 H   -0.7650979175   -0.3879640147   -4.0255261573
 H   -0.7655073961   -3.2919054846   -2.3489867599
 H    2.0867929977    3.2880952151    0.0013196639
 H   -0.7652989683    3.6800932906    1.6770877270
 H   -0.7659879357    3.6804033623   -1.6759195321
 H    2.0868670082   -1.6443714589    2.8473775188
 H   -0.7656304363   -3.2920905956    2.3489892616
 H   -0.7657128969   -0.3884732964    4.0254363412
units bohr
0 2
}

basis {

assign 6-31g_2dfp_

[ 6-31g_2dfp_ ]

spherical

!----------------------------------------------------------------------
! Basis Set Exchange
! Version v0.8.13
! https://www.basissetexchange.org
!----------------------------------------------------------------------
!   Basis set: 6-31G(2df,p)
! Description: 6-31G(2df,p)
!        Role: orbital
!     Version: 0  (Data from the original Basis Set Exchange)
!----------------------------------------------------------------------

****
H     0
S    3   1.00
     18.7311370              0.03349460
      2.8253937              0.23472695
      0.6401217              0.81375733
S    1   1.00
      0.1612778              1.00000000
P    1   1.00
      1.5000000              1.0000000
P    1   1.00
      0.3750000              1.0000000
****
B     0
S    6   1.00
   2068.8823000              0.0018663
    310.6495700              0.0142515
     70.6830330              0.0695516
     19.8610800              0.2325729
      6.2993048              0.4670787
      2.1270270              0.3634314
SP   3   1.00
      4.7279710             -0.1303938              0.0745976
      1.1903377             -0.1307889              0.3078467
      0.3594117              1.1309444              0.7434568
SP   1   1.00
      0.1267512              1.0000000              1.0000000
D    1   1.00
      0.8020000              1.0000000
D    1   1.00
      0.2005000              1.0000000
F    1   1.00
      0.5000000              1.0000000
****
C     0
S    6   1.00
   3047.5249000              0.0018347
    457.3695100              0.0140373
    103.9486900              0.0688426
     29.2101550              0.2321844
      9.2866630              0.4679413
      3.1639270              0.3623120
SP   3   1.00
      7.8682724             -0.1193324              0.0689991
      1.8812885             -0.1608542              0.3164240
      0.5442493              1.1434564              0.7443083
SP   1   1.00
      0.1687144              1.0000000              1.0000000
D    1   1.00
      1.2520000              1.0000000
D    1   1.00
      0.3130000              1.0000000
F    1   1.00
      0.8000000              1.0000000
****
N     0
S    6   1.00
   4173.5110000              0.0018348
    627.4579000              0.0139950
    142.9021000              0.0685870
     40.2343300              0.2322410
     12.8202100              0.4690700
      4.3904370              0.3604550
SP   3   1.00
     11.6263580             -0.1149610              0.0675800
      2.7162800             -0.1691180              0.3239070
      0.7722180              1.1458520              0.7408950
SP   1   1.00
      0.2120313              1.0000000              1.0000000
D    1   1.00
      1.8260000              1.0000000
D    1   1.00
      0.4565000              1.0000000
F    1   1.00
      1.0000000              1.0000000
****
O     0
S    6   1.00
   5484.6717000              0.0018311
    825.2349500              0.0139501
    188.0469600              0.0684451
     52.9645000              0.2327143
     16.8975700              0.4701930
      5.7996353              0.3585209
SP   3   1.00
     15.5396160             -0.1107775              0.0708743
      3.5999336             -0.1480263              0.3397528
      1.0137618              1.1307670              0.7271586
SP   1   1.00
      0.2700058              1.0000000              1.0000000
D    1   1.00
      2.5840000              1.0000000
D    1   1.00
      0.6460000              1.0000000
F    1   1.00
      1.4000000              1.0000000
****
F     0
S    6   1.00
   7001.7130900              0.0018196169
   1051.3660900              0.0139160796
    239.2856900              0.0684053245
     67.3974453              0.233185760
     21.5199573              0.471267439
      7.40310130             0.356618546
SP   3   1.00
     20.8479528             -0.108506975            0.0716287243
      4.80830834            -0.146451658            0.3459121030
      1.34406986             1.128688580            0.7224699570
SP   1   1.00
      0.358151393            1.0000000              1.0000000
D    1   1.00
      3.5000000              1.0000000
D    1   1.00
      0.8750000              1.0000000
F    1   1.00
      1.8500000              1.0000000
****
Al     0
S    6   1.00
  13983.1000000              0.00194267
   2098.7500000              0.0148599
    477.7050000              0.0728494
    134.3600000              0.2468300
     42.8709000              0.4872580
     14.5189000              0.3234960
SP   6   1.00
    239.6680000             -0.00292619             0.00460285
     57.4419000             -0.0374080              0.0331990
     18.2859000             -0.1144870              0.1362820
      6.5991400              0.1156350              0.3304760
      2.4904900              0.6125950              0.4491460
      0.9445400              0.3937990              0.2657040
SP   3   1.00
      1.2779000             -0.2276060             -0.0175130
      0.3975900              0.00144583             0.2445330
      0.1600950              1.0927900              0.8049340
SP   1   1.00
      0.0556577              1.0000000              1.0000000
D    1   1.00
      0.6500000              1.0000000
D    1   1.00
      0.1625000              1.0000000
F    1   1.00
      0.2500000              1.0000000
****
Si     0
S    6   1.00
  16115.9000000              0.00195948
   2425.5800000              0.01492880
    553.8670000              0.07284780
    156.3400000              0.24613000
     50.0683000              0.48591400
     17.0178000              0.32500200
SP   6   1.00
    292.7180000             -0.00278094             0.00443826
     69.8731000             -0.03571460             0.03266790
     22.3363000             -0.11498500             0.13472100
      8.1503900              0.09356340             0.32867800
      3.1345800              0.60301700             0.44964000
      1.2254300              0.41895900             0.26137200
SP   3   1.00
      1.7273800             -0.24463000            -0.01779510
      0.5729220              0.00431572             0.25353900
      0.2221920              1.09818000             0.80066900
SP   1   1.00
      0.0778369              1.00000000             1.00000000
D    1   1.00
      0.9000000              1.0000000
D    1   1.00
      0.2250000              1.0000000
F    1   1.00
      0.3200000              1.0000000
****
P     0
S    6   1.00
  19413.3000000              0.0018516
   2909.4200000              0.0142062
    661.3640000              0.0699995
    185.7590000              0.2400790
     59.1943000              0.4847620
     20.0310000              0.3352000
SP   6   1.00
    339.4780000             -0.00278217             0.00456462
     81.0101000             -0.0360499              0.03369360
     25.8780000             -0.1166310              0.13975500
      9.4522100              0.0968328              0.33936200
      3.6656600              0.6144180              0.45092100
      1.4674600              0.4037980              0.23858600
SP   3   1.00
      2.1562300             -0.2529230             -0.01776530
      0.7489970              0.0328517              0.27405800
      0.2831450              1.0812500              0.78542100
SP   1   1.00
      0.0998317              1.0000000              1.00000000
D    1   1.00
      1.1000000              1.0000000
D    1   1.00
      0.2750000              1.0000000
F    1   1.00
      0.4500000              1.0000000
****
S     0
S    6   1.00
  21917.1000000              0.0018690
   3301.4900000              0.0142300
    754.1460000              0.0696960
    212.7110000              0.2384870
     67.9896000              0.4833070
     23.0515000              0.3380740
SP   6   1.00
    423.7350000             -0.0023767              0.0040610
    100.7100000             -0.0316930              0.0306810
     32.1599000             -0.1133170              0.1304520
     11.8079000              0.0560900              0.3272050
      4.6311000              0.5922550              0.4528510
      1.8702500              0.4550060              0.2560420
SP   3   1.00
      2.6158400             -0.2503740             -0.0145110
      0.9221670              0.0669570              0.3102630
      0.3412870              1.0545100              0.7544830
SP   1   1.00
      0.1171670              1.0000000              1.0000000
D    1   1.00
      1.3000000              1.0000000
D    1   1.00
      0.3250000              1.0000000
F    1   1.00
      0.5500000              1.0000000
****
Cl     0
S    6   1.00
  25180.1000000              0.0018330
   3780.3500000              0.0140340
    860.4740000              0.0690970
    242.1450000              0.2374520
     77.3349000              0.4830340
     26.2470000              0.3398560
SP   6   1.00
    491.7650000             -0.0022974              0.0039894
    116.9840000             -0.0307140              0.0303180
     37.4153000             -0.1125280              0.1298800
     13.7834000              0.0450160              0.3279510
      5.4521500              0.5893530              0.4535270
      2.2258800              0.4652060              0.2521540
SP   3   1.00
      3.1864900             -0.2518300             -0.0142990
      1.1442700              0.0615890              0.3235720
      0.4203770              1.0601800              0.7435070
SP   1   1.00
      0.1426570              1.0000000              1.0000000
D    1   1.00
      1.5000000              1.0000000
D    1   1.00
      0.3750000              1.0000000
F    1   1.00
      0.7000000              1.0000000
****
}

set {
reference uhf
freeze_core true
e_convergence 10
d_convergence 10
dft_spherical_points 1202
dft_radial_points 99
}

e = energy('b3lyp')

print_out('Grab this energy {0}'.format(e))
--------------------------------------------------------------------------

    Molecular point group: c1

    Geometry (in Bohr), charge = 0, multiplicity = 2:

       Center              X                  Y                   Z               Mass
    ------------   -----------------  -----------------  -----------------  -----------------
         C           -0.323339576954    -0.000001072488     0.001458923156    12.000000000000
         C            0.060492705146    -1.401653107388    -2.425888911844    12.000000000000
         C            0.061018391946     2.801757505012    -0.002964844144    12.000000000000
         C            0.061788232146    -1.400100004388     2.426872884756    12.000000000000
         H            2.087009018646    -1.643819231088    -2.847066577344     1.007825032230
         H           -0.765097696954    -0.387964930488    -4.025088249744     1.007825032230
         H           -0.765507175554    -3.291906400388    -2.348548852344     1.007825032230
         H            2.086793218246     3.288094299312     0.001757571456     1.007825032230
         H           -0.765298747754     3.680092374812     1.677525634556     1.007825032230
         H           -0.765987715154     3.680402446512    -1.675481624544     1.007825032230
         H            2.086867228746    -1.644372374688     2.847815426356     1.007825032230
         H           -0.765630215754    -3.292091511388     2.349427169156     1.007825032230
         H           -0.765712676354    -0.388474212188     4.025874248756     1.007825032230

  Charge       = 0
  Multiplicity = 2
  Basis Set: ANONYMOUS8EBD393B
    Blend: 6-31G_2DFP_
  Basis Set: (ANONYMOUS8EBD393B AUX)
    Blend: DEF2-UNIVERSAL-JKFIT

    Orbital Energies [Eh]
    ---------------------

    Alpha Occupied:

       1A    -10.180342     2A    -10.167049     3A    -10.167020
       4A    -10.166975     5A     -0.797766     6A     -0.686266
       7A     -0.686107     8A     -0.530776     9A     -0.441126
      10A     -0.434680    11A     -0.434663    12A     -0.382637
      13A     -0.382561    14A     -0.363609    15A     -0.338292
      16A     -0.337705    17A     -0.168961

    Alpha Virtual:

      18A      0.076072    19A      0.134117    20A      0.134193
      21A      0.142564    22A      0.142692    23A      0.154879
      24A      0.178728    25A      0.178829    26A      0.203545
      27A      0.214805    28A      0.275860    29A      0.276111
      30A      0.399120    31A      0.399338    32A      0.403342
      33A      0.424093    34A      0.424102    35A      0.456592
      36A      0.495355    37A      0.495425    38A      0.512153
      39A      0.513986    40A      0.578775    41A      0.578860
      42A      0.591614    43A      0.591652    44A      0.602571
      45A      0.624749    46A      0.631782    47A      0.636246
      48A      0.636255    49A      0.663322    50A      0.663500
      51A      0.683844    52A      0.683866    53A      0.734994
      54A      0.825403    55A      0.825411    56A      0.853916
      57A      0.914921    58A      0.915132    59A      0.944125
      60A      0.944614    61A      0.961228    62A      0.961355
      63A      1.003453    64A      1.128092    65A      1.128129
      66A      1.142209    67A      1.163249    68A      1.163294
      69A      1.223322    70A      1.274308    71A      1.274667
      72A      1.279354    73A      1.324299    74A      1.324414
      75A      1.355983    76A      1.365821    77A      1.366295
      78A      1.392445    79A      1.403819    80A      1.404302
      81A      1.416843    82A      1.417370    83A      1.427911
      84A      1.491454    85A      1.499127    86A      1.542655
      87A      1.542998    88A      1.574137    89A      1.574771
      90A      1.669814    91A      1.739308    92A      1.739523
      93A      1.768342    94A      1.831327    95A      1.831466
      96A      1.971725    97A      2.018146    98A      2.018734
      99A      2.019518   100A      2.052037   101A      2.053241
     102A      2.738438   103A      2.738533   104A      2.790916
     105A      2.811434   106A      2.889281   107A      2.890621
     108A      2.894937   109A      2.929331   110A      2.929665
     111A      2.958995   112A      2.964089   113A      2.964673
     114A      3.034009   115A      3.071153   116A      3.071418
     117A      3.084347   118A      3.168654   119A      3.168892
     120A      3.180606   121A      3.285094   122A      3.285531
     123A      3.327117   124A      3.327207   125A      3.375620
     126A      3.490120   127A      3.490198   128A      3.513986
     129A      3.525353   130A      3.568287   131A      3.568488
     132A      3.575153   133A      3.666157   134A      3.666573
     135A      3.679687   136A      3.694108   137A      3.694151
     138A      3.776792   139A      3.776830   140A      3.789116
     141A      3.911866   142A      3.912573   143A      4.034460
     144A      4.111154   145A      4.111596   146A      4.147941
     147A      4.148314   148A      4.173247   149A      4.202582
     150A      4.203068   151A      4.203136   152A      4.210849
     153A      4.315164   154A      4.316743   155A      4.358967
     156A      4.423875   157A      4.424993   158A      4.443454
     159A      4.516657   160A      4.517030   161A      4.577986
     162A      4.578563   163A      4.617528   164A      4.709462
     165A      4.774440   166A      4.774748   167A      4.836914
     168A      4.962863   169A      5.002662   170A      5.003225
     171A      5.228033   172A      5.246583   173A      5.247062
     174A      5.355481   175A      5.355528   176A      5.479354

    Beta Occupied:

       1A    -10.167805     2A    -10.167776     3A    -10.167743
       4A    -10.166519     5A     -0.781091     6A     -0.684066
       7A     -0.683912     8A     -0.511747     9A     -0.431059
      10A     -0.431028    11A     -0.421821    12A     -0.376730
      13A     -0.376639    14A     -0.362592    15A     -0.333415
      16A     -0.332829

    Beta Virtual:

      17A     -0.025742    18A      0.077081    19A      0.134995
      20A      0.135095    21A      0.144453    22A      0.144544
      23A      0.163338    24A      0.182412    25A      0.182488
      26A      0.215027    27A      0.218934    28A      0.282222
      29A      0.282445    30A      0.400289    31A      0.400507
      32A      0.419789    33A      0.426904    34A      0.426915
      35A      0.468500    36A      0.497618    37A      0.497683
      38A      0.513895    39A      0.556325    40A      0.584325
      41A      0.584410    42A      0.597784    43A      0.597841
      44A      0.609994    45A      0.628119    46A      0.631947
      47A      0.639531    48A      0.639539    49A      0.666882
      50A      0.667068    51A      0.686477    52A      0.686503
      53A      0.757518    54A      0.830574    55A      0.830577
      56A      0.855269    57A      0.922892    58A      0.923103
      59A      0.945963    60A      0.953542    61A      0.966544
      62A      0.966651    63A      1.008693    64A      1.132129
      65A      1.132147    66A      1.155581    67A      1.168314
      68A      1.168382    69A      1.232295    70A      1.279878
      71A      1.280290    72A      1.285109    73A      1.329278
      74A      1.329413    75A      1.365397    76A      1.371038
      77A      1.371563    78A      1.393508    79A      1.407275
      80A      1.407777    81A      1.421913    82A      1.422398
      83A      1.428183    84A      1.492522    85A      1.509550
      86A      1.547050    87A      1.547418    88A      1.582017
      89A      1.582635    90A      1.674662    91A      1.745071
      92A      1.745283    93A      1.779120    94A      1.835184
      95A      1.835319    96A      1.972585    97A      2.025041
      98A      2.025857    99A      2.039677   100A      2.058730
     101A      2.059977   102A      2.746780   103A      2.746863
     104A      2.811805   105A      2.816094   106A      2.901981
     107A      2.903294   108A      2.924645   109A      2.931780
     110A      2.932182   111A      2.960059   112A      2.968644
     113A      2.969205   114A      3.041944   115A      3.081056
     116A      3.081337   117A      3.086164   118A      3.184369
     119A      3.184652   120A      3.188313   121A      3.289923
     122A      3.290298   123A      3.330908   124A      3.331025
     125A      3.383439   126A      3.492835   127A      3.492943
     128A      3.512359   129A      3.528390   130A      3.575001
     131A      3.581675   132A      3.581791   133A      3.670817
     134A      3.671422   135A      3.692972   136A      3.725584
     137A      3.725934   138A      3.781279   139A      3.781395
     140A      3.817661   141A      3.921661   142A      3.922411
     143A      4.045347   144A      4.117969   145A      4.118411
     146A      4.155185   147A      4.155486   148A      4.187309
     149A      4.208961   150A      4.209037   151A      4.210630
     152A      4.215323   153A      4.322571   154A      4.324216
     155A      4.362330   156A      4.432088   157A      4.433201
     158A      4.446347   159A      4.524462   160A      4.524805
     161A      4.588610   162A      4.589143   163A      4.624720
     164A      4.719807   165A      4.781412   166A      4.781682
     167A      4.839831   168A      4.967657   169A      5.006701
     170A      5.007265   171A      5.233748   172A      5.248377
     173A      5.248839   174A      5.361942   175A      5.362027
     176A      5.481676

    Final Occupation by Irrep:
              A
    DOCC [    16 ]
    SOCC [     1 ]

  @DF-UKS Final Energy:  -157.81306910726056

   => Energetics <=

    Nuclear Repulsion Energy =            125.3946135554605661
    One-Electron Energy =                -458.7488913486517390
    Two-Electron Energy =                 195.8483511802234318
    DFT Exchange-Correlation Energy =     -20.3071424942928225
    Empirical Dispersion Energy =           0.0000000000000000
    VV10 Nonlocal Energy =                  0.0000000000000000
    Total Energy =                       -157.8130691072605600

  UHF NO Occupations:
  HONO-2 :   15  A 1.9996009
  HONO-1 :   16  A 1.9989805
  HONO-0 :   17  A 1.0000000
  LUNO+0 :   18  A 0.0010195
  LUNO+1 :   19  A 0.0003991
  LUNO+2 :   20  A 0.0001980
  LUNO+3 :   21  A 0.0001971

Computation Completed

Properties will be evaluated at   0.000000,   0.000000,   0.000000 [a0]

Properties computed using the SCF density matrix

  Nuclear Dipole Moment: [e a0]
     X:     0.8272      Y:    -0.0000      Z:     0.0031

  Electronic Dipole Moment: [e a0]
     X:    -0.7493      Y:     0.0000      Z:    -0.0030

  Dipole Moment: [e a0]
     X:     0.0779      Y:     0.0000      Z:     0.0000     Total:     0.0779

  Dipole Moment: [D]
     X:     0.1980      Y:     0.0000      Z:     0.0001     Total:     0.1980

*** tstop() called on n082 at Fri Nov  5 11:59:23 2021
Module time:
	user time   =     498.07 seconds =       8.30 minutes
	system time =       4.54 seconds =       0.08 minutes
	total time  =        126 seconds =       2.10 minutes
Total time:
	user time   =     498.07 seconds =       8.30 minutes
	system time =       4.54 seconds =       0.08 minutes
	total time  =        126 seconds =       2.10 minutes
Grab this energy -157.81306910726056
    Psi4 stopped on: Friday, 05 November 2021 11:59AM
    Psi4 wall time for execution: 0:02:06.38

*** Psi4 exiting successfully. Buy a developer a beer!
