                               Psi4 1.4a2.dev629

  ==> Input File <==

--------------------------------------------------------------------------
import os
memory 14 GB

molecule {
 C   -0.3233611725   -0.0000032487    0.0053449159
 C    0.0611747962   -1.4010010011   -2.4254916435
 C    0.0609264589    2.8010968900    0.0011084811
 C    0.0609185644   -1.4000907871    2.4261320827
 H    2.0898849435   -1.6437433321   -2.8478327182
 H   -0.7665597048   -0.3864521822   -4.0280578829
 H   -0.7675627830   -3.2940467990   -2.3483708001
 H    2.0899503813    3.2877396323   -0.0010018273
 H   -0.7680107450    3.6795903391    1.6785574200
 H   -0.7663342195    3.6813049460   -1.6800220960
 H    2.0902967259   -1.6440891341    2.8464280287
 H   -0.7666288430   -3.2949771005    2.3471633698
 H   -0.7673022791   -0.3853525363    4.0260426697
units bohr
0 2
}

basis {

assign 6-31g_2dfp_

[ 6-31g_2dfp_ ]

spherical

!----------------------------------------------------------------------
! Basis Set Exchange
! Version v0.8.13
! https://www.basissetexchange.org
!----------------------------------------------------------------------
!   Basis set: 6-31G(2df,p)
! Description: 6-31G(2df,p)
!        Role: orbital
!     Version: 0  (Data from the original Basis Set Exchange)
!----------------------------------------------------------------------

****
H     0
S    3   1.00
     18.7311370              0.03349460
      2.8253937              0.23472695
      0.6401217              0.81375733
S    1   1.00
      0.1612778              1.00000000
P    1   1.00
      1.5000000              1.0000000
P    1   1.00
      0.3750000              1.0000000
****
B     0
S    6   1.00
   2068.8823000              0.0018663
    310.6495700              0.0142515
     70.6830330              0.0695516
     19.8610800              0.2325729
      6.2993048              0.4670787
      2.1270270              0.3634314
SP   3   1.00
      4.7279710             -0.1303938              0.0745976
      1.1903377             -0.1307889              0.3078467
      0.3594117              1.1309444              0.7434568
SP   1   1.00
      0.1267512              1.0000000              1.0000000
D    1   1.00
      0.8020000              1.0000000
D    1   1.00
      0.2005000              1.0000000
F    1   1.00
      0.5000000              1.0000000
****
C     0
S    6   1.00
   3047.5249000              0.0018347
    457.3695100              0.0140373
    103.9486900              0.0688426
     29.2101550              0.2321844
      9.2866630              0.4679413
      3.1639270              0.3623120
SP   3   1.00
      7.8682724             -0.1193324              0.0689991
      1.8812885             -0.1608542              0.3164240
      0.5442493              1.1434564              0.7443083
SP   1   1.00
      0.1687144              1.0000000              1.0000000
D    1   1.00
      1.2520000              1.0000000
D    1   1.00
      0.3130000              1.0000000
F    1   1.00
      0.8000000              1.0000000
****
N     0
S    6   1.00
   4173.5110000              0.0018348
    627.4579000              0.0139950
    142.9021000              0.0685870
     40.2343300              0.2322410
     12.8202100              0.4690700
      4.3904370              0.3604550
SP   3   1.00
     11.6263580             -0.1149610              0.0675800
      2.7162800             -0.1691180              0.3239070
      0.7722180              1.1458520              0.7408950
SP   1   1.00
      0.2120313              1.0000000              1.0000000
D    1   1.00
      1.8260000              1.0000000
D    1   1.00
      0.4565000              1.0000000
F    1   1.00
      1.0000000              1.0000000
****
O     0
S    6   1.00
   5484.6717000              0.0018311
    825.2349500              0.0139501
    188.0469600              0.0684451
     52.9645000              0.2327143
     16.8975700              0.4701930
      5.7996353              0.3585209
SP   3   1.00
     15.5396160             -0.1107775              0.0708743
      3.5999336             -0.1480263              0.3397528
      1.0137618              1.1307670              0.7271586
SP   1   1.00
      0.2700058              1.0000000              1.0000000
D    1   1.00
      2.5840000              1.0000000
D    1   1.00
      0.6460000              1.0000000
F    1   1.00
      1.4000000              1.0000000
****
F     0
S    6   1.00
   7001.7130900              0.0018196169
   1051.3660900              0.0139160796
    239.2856900              0.0684053245
     67.3974453              0.233185760
     21.5199573              0.471267439
      7.40310130             0.356618546
SP   3   1.00
     20.8479528             -0.108506975            0.0716287243
      4.80830834            -0.146451658            0.3459121030
      1.34406986             1.128688580            0.7224699570
SP   1   1.00
      0.358151393            1.0000000              1.0000000
D    1   1.00
      3.5000000              1.0000000
D    1   1.00
      0.8750000              1.0000000
F    1   1.00
      1.8500000              1.0000000
****
Al     0
S    6   1.00
  13983.1000000              0.00194267
   2098.7500000              0.0148599
    477.7050000              0.0728494
    134.3600000              0.2468300
     42.8709000              0.4872580
     14.5189000              0.3234960
SP   6   1.00
    239.6680000             -0.00292619             0.00460285
     57.4419000             -0.0374080              0.0331990
     18.2859000             -0.1144870              0.1362820
      6.5991400              0.1156350              0.3304760
      2.4904900              0.6125950              0.4491460
      0.9445400              0.3937990              0.2657040
SP   3   1.00
      1.2779000             -0.2276060             -0.0175130
      0.3975900              0.00144583             0.2445330
      0.1600950              1.0927900              0.8049340
SP   1   1.00
      0.0556577              1.0000000              1.0000000
D    1   1.00
      0.6500000              1.0000000
D    1   1.00
      0.1625000              1.0000000
F    1   1.00
      0.2500000              1.0000000
****
Si     0
S    6   1.00
  16115.9000000              0.00195948
   2425.5800000              0.01492880
    553.8670000              0.07284780
    156.3400000              0.24613000
     50.0683000              0.48591400
     17.0178000              0.32500200
SP   6   1.00
    292.7180000             -0.00278094             0.00443826
     69.8731000             -0.03571460             0.03266790
     22.3363000             -0.11498500             0.13472100
      8.1503900              0.09356340             0.32867800
      3.1345800              0.60301700             0.44964000
      1.2254300              0.41895900             0.26137200
SP   3   1.00
      1.7273800             -0.24463000            -0.01779510
      0.5729220              0.00431572             0.25353900
      0.2221920              1.09818000             0.80066900
SP   1   1.00
      0.0778369              1.00000000             1.00000000
D    1   1.00
      0.9000000              1.0000000
D    1   1.00
      0.2250000              1.0000000
F    1   1.00
      0.3200000              1.0000000
****
P     0
S    6   1.00
  19413.3000000              0.0018516
   2909.4200000              0.0142062
    661.3640000              0.0699995
    185.7590000              0.2400790
     59.1943000              0.4847620
     20.0310000              0.3352000
SP   6   1.00
    339.4780000             -0.00278217             0.00456462
     81.0101000             -0.0360499              0.03369360
     25.8780000             -0.1166310              0.13975500
      9.4522100              0.0968328              0.33936200
      3.6656600              0.6144180              0.45092100
      1.4674600              0.4037980              0.23858600
SP   3   1.00
      2.1562300             -0.2529230             -0.01776530
      0.7489970              0.0328517              0.27405800
      0.2831450              1.0812500              0.78542100
SP   1   1.00
      0.0998317              1.0000000              1.00000000
D    1   1.00
      1.1000000              1.0000000
D    1   1.00
      0.2750000              1.0000000
F    1   1.00
      0.4500000              1.0000000
****
S     0
S    6   1.00
  21917.1000000              0.0018690
   3301.4900000              0.0142300
    754.1460000              0.0696960
    212.7110000              0.2384870
     67.9896000              0.4833070
     23.0515000              0.3380740
SP   6   1.00
    423.7350000             -0.0023767              0.0040610
    100.7100000             -0.0316930              0.0306810
     32.1599000             -0.1133170              0.1304520
     11.8079000              0.0560900              0.3272050
      4.6311000              0.5922550              0.4528510
      1.8702500              0.4550060              0.2560420
SP   3   1.00
      2.6158400             -0.2503740             -0.0145110
      0.9221670              0.0669570              0.3102630
      0.3412870              1.0545100              0.7544830
SP   1   1.00
      0.1171670              1.0000000              1.0000000
D    1   1.00
      1.3000000              1.0000000
D    1   1.00
      0.3250000              1.0000000
F    1   1.00
      0.5500000              1.0000000
****
Cl     0
S    6   1.00
  25180.1000000              0.0018330
   3780.3500000              0.0140340
    860.4740000              0.0690970
    242.1450000              0.2374520
     77.3349000              0.4830340
     26.2470000              0.3398560
SP   6   1.00
    491.7650000             -0.0022974              0.0039894
    116.9840000             -0.0307140              0.0303180
     37.4153000             -0.1125280              0.1298800
     13.7834000              0.0450160              0.3279510
      5.4521500              0.5893530              0.4535270
      2.2258800              0.4652060              0.2521540
SP   3   1.00
      3.1864900             -0.2518300             -0.0142990
      1.1442700              0.0615890              0.3235720
      0.4203770              1.0601800              0.7435070
SP   1   1.00
      0.1426570              1.0000000              1.0000000
D    1   1.00
      1.5000000              1.0000000
D    1   1.00
      0.3750000              1.0000000
F    1   1.00
      0.7000000              1.0000000
****
}

set {
reference uhf
freeze_core true
e_convergence 10
d_convergence 10
dft_spherical_points 1202
dft_radial_points 99
}

e = energy('b3lyp')

print_out('Grab this energy {0}'.format(e))
--------------------------------------------------------------------------

    Molecular point group: c1

    Geometry (in Bohr), charge = 0, multiplicity = 2:

       Center              X                  Y                   Z               Mass
    ------------   -----------------  -----------------  -----------------  -----------------
         C           -0.323303126823    -0.000003176257     0.003978591955    12.000000000000
         C            0.061232841877    -1.401000928657    -2.426857967445    12.000000000000
         C            0.060984504577     2.801096962443    -0.000257842845    12.000000000000
         C            0.060976610077    -1.400090714657     2.424765758755    12.000000000000
         H            2.089942989177    -1.643743259657    -2.849199042145     1.007825032230
         H           -0.766501659123    -0.386452109757    -4.029424206845     1.007825032230
         H           -0.767504737323    -3.294046726557    -2.349737124045     1.007825032230
         H            2.090008426977     3.287739704743    -0.002368151245     1.007825032230
         H           -0.767952699323     3.679590411543     1.677191096055     1.007825032230
         H           -0.766276173823     3.681305018443    -1.681388419945     1.007825032230
         H            2.090354771577    -1.644089061657     2.845061704755     1.007825032230
         H           -0.766570797323    -3.294977028057     2.345797045855     1.007825032230
         H           -0.767244233423    -0.385352463857     4.024676345755     1.007825032230

  Charge       = 0
  Multiplicity = 2
  Basis Set: ANONYMOUSF27B463E
    Blend: 6-31G_2DFP_
  Basis Set: (ANONYMOUSF27B463E AUX)
    Blend: DEF2-UNIVERSAL-JKFIT

    Orbital Energies [Eh]
    ---------------------

    Alpha Occupied:

       1A    -10.180410     2A    -10.167587     3A    -10.167555
       4A    -10.167508     5A     -0.797809     6A     -0.686017
       7A     -0.685638     8A     -0.530464     9A     -0.441030
      10A     -0.434743    11A     -0.434316    12A     -0.382458
      13A     -0.382226    14A     -0.363293    15A     -0.338512
      16A     -0.337474    17A     -0.169022

    Alpha Virtual:

      18A      0.075739    19A      0.133774    20A      0.133800
      21A      0.142044    22A      0.142391    23A      0.154581
      24A      0.178265    25A      0.178278    26A      0.203653
      27A      0.214347    28A      0.275673    29A      0.276250
      30A      0.399159    31A      0.399408    32A      0.403136
      33A      0.423823    34A      0.423824    35A      0.456459
      36A      0.495118    37A      0.495214    38A      0.511891
      39A      0.513844    40A      0.578285    41A      0.578672
      42A      0.591038    43A      0.591042    44A      0.601925
      45A      0.623780    46A      0.631075    47A      0.635541
      48A      0.635847    49A      0.663013    50A      0.663145
      51A      0.683257    52A      0.683355    53A      0.734684
      54A      0.824482    55A      0.824698    56A      0.853399
      57A      0.914196    58A      0.914425    59A      0.943503
      60A      0.943829    61A      0.960465    62A      0.960813
      63A      1.003354    64A      1.127424    65A      1.127915
      66A      1.141392    67A      1.162624    68A      1.163399
      69A      1.222885    70A      1.273492    71A      1.274421
      72A      1.279800    73A      1.323549    74A      1.323738
      75A      1.355141    76A      1.365286    77A      1.365822
      78A      1.391858    79A      1.402970    80A      1.403070
      81A      1.415859    82A      1.416490    83A      1.427169
      84A      1.490602    85A      1.497722    86A      1.542313
      87A      1.542320    88A      1.574259    89A      1.574303
      90A      1.667659    91A      1.737790    92A      1.738189
      93A      1.766800    94A      1.828655    95A      1.829182
      96A      1.970102    97A      2.017167    98A      2.017327
      99A      2.018422   100A      2.051034   101A      2.052099
     102A      2.737275   103A      2.737747   104A      2.790714
     105A      2.810912   106A      2.888833   107A      2.889938
     108A      2.894863   109A      2.928719   110A      2.929514
     111A      2.958372   112A      2.963584   113A      2.963884
     114A      3.033101   115A      3.069843   116A      3.070848
     117A      3.083429   118A      3.169350   119A      3.169490
     120A      3.180365   121A      3.285047   122A      3.285654
     123A      3.327290   124A      3.328046   125A      3.376300
     126A      3.490613   127A      3.491666   128A      3.514320
     129A      3.525963   130A      3.567966   131A      3.568437
     132A      3.576820   133A      3.665347   134A      3.665929
     135A      3.677830   136A      3.693257   137A      3.693342
     138A      3.775518   139A      3.776973   140A      3.788610
     141A      3.910837   142A      3.911731   143A      4.032083
     144A      4.108588   145A      4.109205   146A      4.143829
     147A      4.145780   148A      4.170309   149A      4.200761
     150A      4.201530   151A      4.202290   152A      4.207204
     153A      4.313150   154A      4.314321   155A      4.356571
     156A      4.421808   157A      4.421936   158A      4.441413
     159A      4.514285   160A      4.514543   161A      4.576438
     162A      4.576855   163A      4.617142   164A      4.707445
     165A      4.772271   166A      4.773401   167A      4.834539
     168A      4.962050   169A      5.001632   170A      5.002151
     171A      5.222752   172A      5.241493   173A      5.241553
     174A      5.350358   175A      5.351480   176A      5.476130

    Beta Occupied:

       1A    -10.168342     2A    -10.168314     3A    -10.168279
       4A    -10.166602     5A     -0.781107     6A     -0.683809
       7A     -0.683455     8A     -0.511493     9A     -0.431107
      10A     -0.430686    11A     -0.421683    12A     -0.376494
      13A     -0.376343    14A     -0.362274    15A     -0.333654
      16A     -0.332596

    Beta Virtual:

      17A     -0.025976    18A      0.076752    19A      0.134665
      20A      0.134673    21A      0.143953    22A      0.144279
      23A      0.163103    24A      0.181934    25A      0.181971
      26A      0.214579    27A      0.219017    28A      0.282046
      29A      0.282554    30A      0.400336    31A      0.400579
      32A      0.419569    33A      0.426622    34A      0.426643
      35A      0.468384    36A      0.497377    37A      0.497478
      38A      0.513632    39A      0.556129    40A      0.583796
      41A      0.584230    42A      0.597191    43A      0.597205
      44A      0.609362    45A      0.627165    46A      0.631236
      47A      0.638836    48A      0.639170    49A      0.666578
      50A      0.666697    51A      0.685927    52A      0.686027
      53A      0.757182    54A      0.829657    55A      0.829865
      56A      0.854776    57A      0.922155    58A      0.922437
      59A      0.945341    60A      0.952736    61A      0.965771
      62A      0.966135    63A      1.008582    64A      1.131500
      65A      1.131940    66A      1.154763    67A      1.167673
      68A      1.168437    69A      1.231874    70A      1.279154
      71A      1.279978    72A      1.285565    73A      1.328525
      74A      1.328689    75A      1.364533    76A      1.370580
      77A      1.371020    78A      1.392922    79A      1.406383
      80A      1.406591    81A      1.420915    82A      1.421532
      83A      1.427451    84A      1.491645    85A      1.508164
      86A      1.546848    87A      1.546864    88A      1.582038
      89A      1.582050    90A      1.672434    91A      1.743542
      92A      1.743949    93A      1.777635    94A      1.832526
      95A      1.833082    96A      1.970966    97A      2.023706
      98A      2.024824    99A      2.038615   100A      2.057766
     101A      2.058806   102A      2.745567   103A      2.746101
     104A      2.811321   105A      2.815824   106A      2.901564
     107A      2.902490   108A      2.924533   109A      2.931195
     110A      2.932103   111A      2.959431   112A      2.968088
     113A      2.968385   114A      3.041116   115A      3.079772
     116A      3.080624   117A      3.085240   118A      3.185006
     119A      3.185254   120A      3.188163   121A      3.289941
     122A      3.290467   123A      3.331085   124A      3.331845
     125A      3.384096   126A      3.493286   127A      3.494357
     128A      3.512683   129A      3.528993   130A      3.576676
     131A      3.581334   132A      3.581714   133A      3.669905
     134A      3.670347   135A      3.691064   136A      3.724919
     137A      3.725231   138A      3.780082   139A      3.781517
     140A      3.817094   141A      3.920672   142A      3.921564
     143A      4.042847   144A      4.115369   145A      4.115900
     146A      4.151104   147A      4.153002   148A      4.184511
     149A      4.207089   150A      4.207883   151A      4.209514
     152A      4.211716   153A      4.320608   154A      4.321905
     155A      4.359943   156A      4.430054   157A      4.430173
     158A      4.444319   159A      4.522041   160A      4.522392
     161A      4.587055   162A      4.587484   163A      4.624364
     164A      4.717796   165A      4.779192   166A      4.780394
     167A      4.837450   168A      4.966868   169A      5.005707
     170A      5.006196   171A      5.228493   172A      5.243289
     173A      5.243337   174A      5.356840   175A      5.358014
     176A      5.478464

    Final Occupation by Irrep:
              A
    DOCC [    16 ]
    SOCC [     1 ]

  @DF-UKS Final Energy:  -157.81308474155057

   => Energetics <=

    Nuclear Repulsion Energy =            125.3573606198446697
    One-Electron Energy =                -458.6782315235966507
    Two-Electron Energy =                 195.8109120500434699
    DFT Exchange-Correlation Energy =     -20.3031258878420324
    Empirical Dispersion Energy =           0.0000000000000000
    VV10 Nonlocal Energy =                  0.0000000000000000
    Total Energy =                       -157.8130847415505684

  UHF NO Occupations:
  HONO-2 :   15  A 1.9995983
  HONO-1 :   16  A 1.9989811
  HONO-0 :   17  A 1.0000000
  LUNO+0 :   18  A 0.0010189
  LUNO+1 :   19  A 0.0004017
  LUNO+2 :   20  A 0.0001982
  LUNO+3 :   21  A 0.0001961

Computation Completed

Properties will be evaluated at   0.000000,   0.000000,   0.000000 [a0]

Properties computed using the SCF density matrix

  Nuclear Dipole Moment: [e a0]
     X:     0.8276      Y:    -0.0000      Z:    -0.0096

  Electronic Dipole Moment: [e a0]
     X:    -0.7503      Y:     0.0000      Z:     0.0108

  Dipole Moment: [e a0]
     X:     0.0773      Y:     0.0000      Z:     0.0012     Total:     0.0773

  Dipole Moment: [D]
     X:     0.1964      Y:     0.0000      Z:     0.0031     Total:     0.1964

*** tstop() called on n023 at Fri Nov  5 13:56:17 2021
Module time:
	user time   =     639.80 seconds =      10.66 minutes
	system time =      12.44 seconds =       0.21 minutes
	total time  =        164 seconds =       2.73 minutes
Total time:
	user time   =     639.80 seconds =      10.66 minutes
	system time =      12.44 seconds =       0.21 minutes
	total time  =        164 seconds =       2.73 minutes
Grab this energy -157.81308474155057
    Psi4 stopped on: Friday, 05 November 2021 01:56PM
    Psi4 wall time for execution: 0:02:43.97

*** Psi4 exiting successfully. Buy a developer a beer!
