                               Psi4 1.4a2.dev629

  ==> Input File <==

--------------------------------------------------------------------------
import os
memory 14 GB

molecule {
 C   -0.3233404892   -0.0000031986   -0.0029161250
 C    0.0617004919   -1.4015079341   -2.4273276812
 C    0.0610183034    2.8017570865    0.0001445993
 C    0.0605774708   -1.4002477660    2.4254343481
 H    2.0893667472   -1.6424664793   -2.8469613637
 H   -0.7667252180   -0.3898227291   -4.0244441148
 H   -0.7616992115   -3.2956981384   -2.3510707568
 H    2.0867932810    3.2881097637   -0.0023532032
 H   -0.7604451855    3.6840022159    1.6805638992
 H   -0.7708356714    3.6764981430   -1.6724176156
 H    2.0845022262   -1.6457273473    2.8479233316
 H   -0.7694341065   -3.2882951642    2.3469059018
 H   -0.7640865152   -0.3866227658    4.0265187802
units bohr
0 2
}

basis {

assign 6-31g_2dfp_

[ 6-31g_2dfp_ ]

spherical

!----------------------------------------------------------------------
! Basis Set Exchange
! Version v0.8.13
! https://www.basissetexchange.org
!----------------------------------------------------------------------
!   Basis set: 6-31G(2df,p)
! Description: 6-31G(2df,p)
!        Role: orbital
!     Version: 0  (Data from the original Basis Set Exchange)
!----------------------------------------------------------------------

****
H     0
S    3   1.00
     18.7311370              0.03349460
      2.8253937              0.23472695
      0.6401217              0.81375733
S    1   1.00
      0.1612778              1.00000000
P    1   1.00
      1.5000000              1.0000000
P    1   1.00
      0.3750000              1.0000000
****
B     0
S    6   1.00
   2068.8823000              0.0018663
    310.6495700              0.0142515
     70.6830330              0.0695516
     19.8610800              0.2325729
      6.2993048              0.4670787
      2.1270270              0.3634314
SP   3   1.00
      4.7279710             -0.1303938              0.0745976
      1.1903377             -0.1307889              0.3078467
      0.3594117              1.1309444              0.7434568
SP   1   1.00
      0.1267512              1.0000000              1.0000000
D    1   1.00
      0.8020000              1.0000000
D    1   1.00
      0.2005000              1.0000000
F    1   1.00
      0.5000000              1.0000000
****
C     0
S    6   1.00
   3047.5249000              0.0018347
    457.3695100              0.0140373
    103.9486900              0.0688426
     29.2101550              0.2321844
      9.2866630              0.4679413
      3.1639270              0.3623120
SP   3   1.00
      7.8682724             -0.1193324              0.0689991
      1.8812885             -0.1608542              0.3164240
      0.5442493              1.1434564              0.7443083
SP   1   1.00
      0.1687144              1.0000000              1.0000000
D    1   1.00
      1.2520000              1.0000000
D    1   1.00
      0.3130000              1.0000000
F    1   1.00
      0.8000000              1.0000000
****
N     0
S    6   1.00
   4173.5110000              0.0018348
    627.4579000              0.0139950
    142.9021000              0.0685870
     40.2343300              0.2322410
     12.8202100              0.4690700
      4.3904370              0.3604550
SP   3   1.00
     11.6263580             -0.1149610              0.0675800
      2.7162800             -0.1691180              0.3239070
      0.7722180              1.1458520              0.7408950
SP   1   1.00
      0.2120313              1.0000000              1.0000000
D    1   1.00
      1.8260000              1.0000000
D    1   1.00
      0.4565000              1.0000000
F    1   1.00
      1.0000000              1.0000000
****
O     0
S    6   1.00
   5484.6717000              0.0018311
    825.2349500              0.0139501
    188.0469600              0.0684451
     52.9645000              0.2327143
     16.8975700              0.4701930
      5.7996353              0.3585209
SP   3   1.00
     15.5396160             -0.1107775              0.0708743
      3.5999336             -0.1480263              0.3397528
      1.0137618              1.1307670              0.7271586
SP   1   1.00
      0.2700058              1.0000000              1.0000000
D    1   1.00
      2.5840000              1.0000000
D    1   1.00
      0.6460000              1.0000000
F    1   1.00
      1.4000000              1.0000000
****
F     0
S    6   1.00
   7001.7130900              0.0018196169
   1051.3660900              0.0139160796
    239.2856900              0.0684053245
     67.3974453              0.233185760
     21.5199573              0.471267439
      7.40310130             0.356618546
SP   3   1.00
     20.8479528             -0.108506975            0.0716287243
      4.80830834            -0.146451658            0.3459121030
      1.34406986             1.128688580            0.7224699570
SP   1   1.00
      0.358151393            1.0000000              1.0000000
D    1   1.00
      3.5000000              1.0000000
D    1   1.00
      0.8750000              1.0000000
F    1   1.00
      1.8500000              1.0000000
****
Al     0
S    6   1.00
  13983.1000000              0.00194267
   2098.7500000              0.0148599
    477.7050000              0.0728494
    134.3600000              0.2468300
     42.8709000              0.4872580
     14.5189000              0.3234960
SP   6   1.00
    239.6680000             -0.00292619             0.00460285
     57.4419000             -0.0374080              0.0331990
     18.2859000             -0.1144870              0.1362820
      6.5991400              0.1156350              0.3304760
      2.4904900              0.6125950              0.4491460
      0.9445400              0.3937990              0.2657040
SP   3   1.00
      1.2779000             -0.2276060             -0.0175130
      0.3975900              0.00144583             0.2445330
      0.1600950              1.0927900              0.8049340
SP   1   1.00
      0.0556577              1.0000000              1.0000000
D    1   1.00
      0.6500000              1.0000000
D    1   1.00
      0.1625000              1.0000000
F    1   1.00
      0.2500000              1.0000000
****
Si     0
S    6   1.00
  16115.9000000              0.00195948
   2425.5800000              0.01492880
    553.8670000              0.07284780
    156.3400000              0.24613000
     50.0683000              0.48591400
     17.0178000              0.32500200
SP   6   1.00
    292.7180000             -0.00278094             0.00443826
     69.8731000             -0.03571460             0.03266790
     22.3363000             -0.11498500             0.13472100
      8.1503900              0.09356340             0.32867800
      3.1345800              0.60301700             0.44964000
      1.2254300              0.41895900             0.26137200
SP   3   1.00
      1.7273800             -0.24463000            -0.01779510
      0.5729220              0.00431572             0.25353900
      0.2221920              1.09818000             0.80066900
SP   1   1.00
      0.0778369              1.00000000             1.00000000
D    1   1.00
      0.9000000              1.0000000
D    1   1.00
      0.2250000              1.0000000
F    1   1.00
      0.3200000              1.0000000
****
P     0
S    6   1.00
  19413.3000000              0.0018516
   2909.4200000              0.0142062
    661.3640000              0.0699995
    185.7590000              0.2400790
     59.1943000              0.4847620
     20.0310000              0.3352000
SP   6   1.00
    339.4780000             -0.00278217             0.00456462
     81.0101000             -0.0360499              0.03369360
     25.8780000             -0.1166310              0.13975500
      9.4522100              0.0968328              0.33936200
      3.6656600              0.6144180              0.45092100
      1.4674600              0.4037980              0.23858600
SP   3   1.00
      2.1562300             -0.2529230             -0.01776530
      0.7489970              0.0328517              0.27405800
      0.2831450              1.0812500              0.78542100
SP   1   1.00
      0.0998317              1.0000000              1.00000000
D    1   1.00
      1.1000000              1.0000000
D    1   1.00
      0.2750000              1.0000000
F    1   1.00
      0.4500000              1.0000000
****
S     0
S    6   1.00
  21917.1000000              0.0018690
   3301.4900000              0.0142300
    754.1460000              0.0696960
    212.7110000              0.2384870
     67.9896000              0.4833070
     23.0515000              0.3380740
SP   6   1.00
    423.7350000             -0.0023767              0.0040610
    100.7100000             -0.0316930              0.0306810
     32.1599000             -0.1133170              0.1304520
     11.8079000              0.0560900              0.3272050
      4.6311000              0.5922550              0.4528510
      1.8702500              0.4550060              0.2560420
SP   3   1.00
      2.6158400             -0.2503740             -0.0145110
      0.9221670              0.0669570              0.3102630
      0.3412870              1.0545100              0.7544830
SP   1   1.00
      0.1171670              1.0000000              1.0000000
D    1   1.00
      1.3000000              1.0000000
D    1   1.00
      0.3250000              1.0000000
F    1   1.00
      0.5500000              1.0000000
****
Cl     0
S    6   1.00
  25180.1000000              0.0018330
   3780.3500000              0.0140340
    860.4740000              0.0690970
    242.1450000              0.2374520
     77.3349000              0.4830340
     26.2470000              0.3398560
SP   6   1.00
    491.7650000             -0.0022974              0.0039894
    116.9840000             -0.0307140              0.0303180
     37.4153000             -0.1125280              0.1298800
     13.7834000              0.0450160              0.3279510
      5.4521500              0.5893530              0.4535270
      2.2258800              0.4652060              0.2521540
SP   3   1.00
      3.1864900             -0.2518300             -0.0142990
      1.1442700              0.0615890              0.3235720
      0.4203770              1.0601800              0.7435070
SP   1   1.00
      0.1426570              1.0000000              1.0000000
D    1   1.00
      1.5000000              1.0000000
D    1   1.00
      0.3750000              1.0000000
F    1   1.00
      0.7000000              1.0000000
****
}

set {
reference uhf
freeze_core true
e_convergence 10
d_convergence 10
dft_spherical_points 1202
dft_radial_points 99
}

e = energy('b3lyp')

print_out('Grab this energy {0}'.format(e))
--------------------------------------------------------------------------

    Molecular point group: c1

    Geometry (in Bohr), charge = 0, multiplicity = 2:

       Center              X                  Y                   Z               Mass
    ------------   -----------------  -----------------  -----------------  -----------------
         C           -0.323339672880    -0.000002420194    -0.002017639594    12.000000000000
         C            0.061701308220    -1.401507155694    -2.426429195794    12.000000000000
         C            0.061019119720     2.801757864906     0.001043084706    12.000000000000
         C            0.060578287120    -1.400246987594     2.426332833506    12.000000000000
         H            2.089367563520    -1.642465700894    -2.846062878294     1.007825032230
         H           -0.766724401680    -0.389821950694    -4.023545629394     1.007825032230
         H           -0.761698395180    -3.295697359994    -2.350172271394     1.007825032230
         H            2.086794097320     3.288110542106    -0.001454717794     1.007825032230
         H           -0.760444369180     3.684002994306     1.681462384606     1.007825032230
         H           -0.770834855080     3.676498921406    -1.671519130194     1.007825032230
         H            2.084503042520    -1.645726568894     2.848821817006     1.007825032230
         H           -0.769433290180    -3.288294385794     2.347804387206     1.007825032230
         H           -0.764085698880    -0.386621987394     4.027417265606     1.007825032230

  Charge       = 0
  Multiplicity = 2
  Basis Set: ANONYMOUS5AADE365
    Blend: 6-31G_2DFP_
  Basis Set: (ANONYMOUS5AADE365 AUX)
    Blend: DEF2-UNIVERSAL-JKFIT

    Orbital Energies [Eh]
    ---------------------

    Alpha Occupied:

       1A    -10.180342     2A    -10.167175     3A    -10.167015
       4A    -10.166854     5A     -0.797766     6A     -0.686233
       7A     -0.686141     8A     -0.530775     9A     -0.441132
      10A     -0.434810    11A     -0.434525    12A     -0.382674
      13A     -0.382531    14A     -0.363606    15A     -0.338368
      16A     -0.337626    17A     -0.168961

    Alpha Virtual:

      18A      0.076072    19A      0.134079    20A      0.134233
      21A      0.142439    22A      0.142814    23A      0.154879
      24A      0.178768    25A      0.178788    26A      0.203548
      27A      0.214803    28A      0.275938    29A      0.276032
      30A      0.399108    31A      0.399344    32A      0.403352
      33A      0.424063    34A      0.424132    35A      0.456595
      36A      0.495291    37A      0.495488    38A      0.512161
      39A      0.513979    40A      0.578809    41A      0.578826
      42A      0.591404    43A      0.591865    44A      0.602570
      45A      0.624743    46A      0.631773    47A      0.636195
      48A      0.636319    49A      0.663142    50A      0.663684
      51A      0.683824    52A      0.683883    53A      0.734993
      54A      0.825330    55A      0.825486    56A      0.853916
      57A      0.914776    58A      0.915268    59A      0.944122
      60A      0.944619    61A      0.961158    62A      0.961428
      63A      1.003453    64A      1.127809    65A      1.128386
      66A      1.142224    67A      1.162766    68A      1.163779
      69A      1.223338    70A      1.273834    71A      1.275133
      72A      1.279371    73A      1.324323    74A      1.324379
      75A      1.356007    76A      1.366027    77A      1.366081
      78A      1.392409    79A      1.403796    80A      1.404332
      81A      1.416535    82A      1.417702    83A      1.427920
      84A      1.491495    85A      1.499079    86A      1.542694
      87A      1.542960    88A      1.574241    89A      1.574643
      90A      1.669830    91A      1.739360    92A      1.739492
      93A      1.768316    94A      1.831232    95A      1.831539
      96A      1.971741    97A      2.018202    98A      2.018528
      99A      2.019675   100A      2.052198   101A      2.053073
     102A      2.738301   103A      2.738671   104A      2.790928
     105A      2.811423   106A      2.889786   107A      2.890073
     108A      2.894986   109A      2.928938   110A      2.930061
     111A      2.958985   112A      2.964275   113A      2.964493
     114A      3.034014   115A      3.071075   116A      3.071500
     117A      3.084344   118A      3.168662   119A      3.168899
     120A      3.180589   121A      3.285061   122A      3.285568
     123A      3.326329   124A      3.327982   125A      3.375619
     126A      3.489844   127A      3.490427   128A      3.514011
     129A      3.525316   130A      3.567344   131A      3.569471
     132A      3.575177   133A      3.666262   134A      3.666471
     135A      3.679676   136A      3.693763   137A      3.694489
     138A      3.774745   139A      3.778889   140A      3.789117
     141A      3.912197   142A      3.912255   143A      4.034461
     144A      4.110665   145A      4.112075   146A      4.147693
     147A      4.148543   148A      4.173239   149A      4.202551
     150A      4.203055   151A      4.203194   152A      4.210864
     153A      4.315893   154A      4.316010   155A      4.358997
     156A      4.423901   157A      4.425023   158A      4.443427
     159A      4.516201   160A      4.517456   161A      4.577400
     162A      4.579015   163A      4.617680   164A      4.709439
     165A      4.773411   166A      4.775756   167A      4.836895
     168A      4.962851   169A      5.002082   170A      5.003846
     171A      5.228033   172A      5.246677   173A      5.246981
     174A      5.355110   175A      5.355899   176A      5.479336

    Beta Occupied:

       1A    -10.167934     2A    -10.167775     3A    -10.167615
       4A    -10.166519     5A     -0.781091     6A     -0.684035
       7A     -0.683944     8A     -0.511747     9A     -0.431176
      10A     -0.430912    11A     -0.421817    12A     -0.376731
      13A     -0.376646    14A     -0.362588    15A     -0.333501
      16A     -0.332740

    Beta Virtual:

      17A     -0.025742    18A      0.077081    19A      0.134981
      20A      0.135110    21A      0.144310    22A      0.144685
      23A      0.163337    24A      0.182435    25A      0.182463
      26A      0.215033    27A      0.218930    28A      0.282262
      29A      0.282404    30A      0.400278    31A      0.400518
      32A      0.419792    33A      0.426873    34A      0.426945
      35A      0.468503    36A      0.497555    37A      0.497744
      38A      0.513896    39A      0.556325    40A      0.584348
      41A      0.584386    42A      0.597614    43A      0.598015
      44A      0.609994    45A      0.628119    46A      0.631930
      47A      0.639487    48A      0.639597    49A      0.666723
      50A      0.667230    51A      0.686446    52A      0.686532
      53A      0.757516    54A      0.830475    55A      0.830678
      56A      0.855269    57A      0.922717    58A      0.923269
      59A      0.945959    60A      0.953546    61A      0.966488
      62A      0.966713    63A      1.008693    64A      1.131812
      65A      1.132445    66A      1.155594    67A      1.167910
      68A      1.168783    69A      1.232312    70A      1.279479
      71A      1.280683    72A      1.285124    73A      1.329314
      74A      1.329368    75A      1.365421    76A      1.371261
      77A      1.371333    78A      1.393471    79A      1.407288
      80A      1.407771    81A      1.421600    82A      1.422735
      83A      1.428188    84A      1.492543    85A      1.509522
      86A      1.547138    87A      1.547332    88A      1.582129
      89A      1.582498    90A      1.674678    91A      1.745112
      92A      1.745263    93A      1.779095    94A      1.835094
      95A      1.835387    96A      1.972600    97A      2.024816
      98A      2.026092    99A      2.039679   100A      2.058933
     101A      2.059766   102A      2.746633   103A      2.747011
     104A      2.811835   105A      2.816063   106A      2.902526
     107A      2.902750   108A      2.924639   109A      2.931372
     110A      2.932599   111A      2.960052   112A      2.968832
     113A      2.969024   114A      3.041949   115A      3.081020
     116A      3.081373   117A      3.086161   118A      3.184429
     119A      3.184630   120A      3.188275   121A      3.289903
     122A      3.290322   123A      3.330139   124A      3.331782
     125A      3.383436   126A      3.492584   127A      3.493142
     128A      3.512389   129A      3.528365   130A      3.574989
     131A      3.580777   132A      3.582754   133A      3.670968
     134A      3.671273   135A      3.692964   136A      3.725423
     137A      3.726090   138A      3.779324   139A      3.783360
     140A      3.817661   141A      3.922029   142A      3.922059
     143A      4.045348   144A      4.117439   145A      4.118934
     146A      4.154858   147A      4.155791   148A      4.187301
     149A      4.208934   150A      4.209060   151A      4.210651
     152A      4.215334   153A      4.323304   154A      4.323478
     155A      4.362363   156A      4.432144   157A      4.433212
     158A      4.446307   159A      4.524049   160A      4.525188
     161A      4.587997   162A      4.589614   163A      4.624879
     164A      4.719785   165A      4.780369   166A      4.782706
     167A      4.839811   168A      4.967645   169A      5.006118
     170A      5.007889   171A      5.233748   172A      5.248456
     173A      5.248771   174A      5.361595   175A      5.362375
     176A      5.481658

    Final Occupation by Irrep:
              A
    DOCC [    16 ]
    SOCC [     1 ]

  @DF-UKS Final Energy:  -157.81306571301113

   => Energetics <=

    Nuclear Repulsion Energy =            125.3946029102716011
    One-Electron Energy =                -458.7488667754874996
    Two-Electron Energy =                 195.8483409312807737
    DFT Exchange-Correlation Energy =     -20.3071427790760062
    Empirical Dispersion Energy =           0.0000000000000000
    VV10 Nonlocal Energy =                  0.0000000000000000
    Total Energy =                       -157.8130657130111274

  UHF NO Occupations:
  HONO-2 :   15  A 1.9996009
  HONO-1 :   16  A 1.9989805
  HONO-0 :   17  A 1.0000000
  LUNO+0 :   18  A 0.0010195
  LUNO+1 :   19  A 0.0003991
  LUNO+2 :   20  A 0.0001980
  LUNO+3 :   21  A 0.0001971

Computation Completed

Properties will be evaluated at   0.000000,   0.000000,   0.000000 [a0]

Properties computed using the SCF density matrix

  Nuclear Dipole Moment: [e a0]
     X:     0.8272      Y:    -0.0000      Z:     0.0063

  Electronic Dipole Moment: [e a0]
     X:    -0.7493      Y:     0.0000      Z:    -0.0076

  Dipole Moment: [e a0]
     X:     0.0779      Y:     0.0000      Z:    -0.0013     Total:     0.0779

  Dipole Moment: [D]
     X:     0.1980      Y:     0.0000      Z:    -0.0032     Total:     0.1981

*** tstop() called on n054 at Fri Nov  5 14:00:54 2021
Module time:
	user time   =     550.99 seconds =       9.18 minutes
	system time =      12.29 seconds =       0.20 minutes
	total time  =        142 seconds =       2.37 minutes
Total time:
	user time   =     550.99 seconds =       9.18 minutes
	system time =      12.29 seconds =       0.20 minutes
	total time  =        142 seconds =       2.37 minutes
Grab this energy -157.81306571301113
    Psi4 stopped on: Friday, 05 November 2021 02:00PM
    Psi4 wall time for execution: 0:02:21.64

*** Psi4 exiting successfully. Buy a developer a beer!
