                               Psi4 1.4a2.dev629

  ==> Input File <==

--------------------------------------------------------------------------
import os
memory 14 GB

molecule {
 C   -0.3247919039   -0.0000026252   -0.0019975852
 C    0.0618606711   -1.3999632105   -2.4259519355
 C    0.0618759795    2.8016630254   -0.0011549502
 C    0.0621321731   -1.4016962998    2.4266438036
 H    2.0870789267   -1.6403596543   -2.8450606477
 H   -0.7658117994   -0.3906917102   -4.0275207365
 H   -0.7646077084   -3.2904090314   -2.3468803110
 H    2.0867459867    3.2881472383   -0.0040899276
 H   -0.7644358123    3.6746263889    1.6772297689
 H   -0.7671751028    3.6858742553   -1.6756406405
 H    2.0866915025   -1.6478745602    2.8498968777
 H   -0.7668530172   -3.2934884364    2.3511498510
 H   -0.7653177724   -0.3858496934    4.0233764331
units bohr
0 2
}

basis {

assign 6-31g_2dfp_

[ 6-31g_2dfp_ ]

spherical

!----------------------------------------------------------------------
! Basis Set Exchange
! Version v0.8.13
! https://www.basissetexchange.org
!----------------------------------------------------------------------
!   Basis set: 6-31G(2df,p)
! Description: 6-31G(2df,p)
!        Role: orbital
!     Version: 0  (Data from the original Basis Set Exchange)
!----------------------------------------------------------------------

****
H     0
S    3   1.00
     18.7311370              0.03349460
      2.8253937              0.23472695
      0.6401217              0.81375733
S    1   1.00
      0.1612778              1.00000000
P    1   1.00
      1.5000000              1.0000000
P    1   1.00
      0.3750000              1.0000000
****
B     0
S    6   1.00
   2068.8823000              0.0018663
    310.6495700              0.0142515
     70.6830330              0.0695516
     19.8610800              0.2325729
      6.2993048              0.4670787
      2.1270270              0.3634314
SP   3   1.00
      4.7279710             -0.1303938              0.0745976
      1.1903377             -0.1307889              0.3078467
      0.3594117              1.1309444              0.7434568
SP   1   1.00
      0.1267512              1.0000000              1.0000000
D    1   1.00
      0.8020000              1.0000000
D    1   1.00
      0.2005000              1.0000000
F    1   1.00
      0.5000000              1.0000000
****
C     0
S    6   1.00
   3047.5249000              0.0018347
    457.3695100              0.0140373
    103.9486900              0.0688426
     29.2101550              0.2321844
      9.2866630              0.4679413
      3.1639270              0.3623120
SP   3   1.00
      7.8682724             -0.1193324              0.0689991
      1.8812885             -0.1608542              0.3164240
      0.5442493              1.1434564              0.7443083
SP   1   1.00
      0.1687144              1.0000000              1.0000000
D    1   1.00
      1.2520000              1.0000000
D    1   1.00
      0.3130000              1.0000000
F    1   1.00
      0.8000000              1.0000000
****
N     0
S    6   1.00
   4173.5110000              0.0018348
    627.4579000              0.0139950
    142.9021000              0.0685870
     40.2343300              0.2322410
     12.8202100              0.4690700
      4.3904370              0.3604550
SP   3   1.00
     11.6263580             -0.1149610              0.0675800
      2.7162800             -0.1691180              0.3239070
      0.7722180              1.1458520              0.7408950
SP   1   1.00
      0.2120313              1.0000000              1.0000000
D    1   1.00
      1.8260000              1.0000000
D    1   1.00
      0.4565000              1.0000000
F    1   1.00
      1.0000000              1.0000000
****
O     0
S    6   1.00
   5484.6717000              0.0018311
    825.2349500              0.0139501
    188.0469600              0.0684451
     52.9645000              0.2327143
     16.8975700              0.4701930
      5.7996353              0.3585209
SP   3   1.00
     15.5396160             -0.1107775              0.0708743
      3.5999336             -0.1480263              0.3397528
      1.0137618              1.1307670              0.7271586
SP   1   1.00
      0.2700058              1.0000000              1.0000000
D    1   1.00
      2.5840000              1.0000000
D    1   1.00
      0.6460000              1.0000000
F    1   1.00
      1.4000000              1.0000000
****
F     0
S    6   1.00
   7001.7130900              0.0018196169
   1051.3660900              0.0139160796
    239.2856900              0.0684053245
     67.3974453              0.233185760
     21.5199573              0.471267439
      7.40310130             0.356618546
SP   3   1.00
     20.8479528             -0.108506975            0.0716287243
      4.80830834            -0.146451658            0.3459121030
      1.34406986             1.128688580            0.7224699570
SP   1   1.00
      0.358151393            1.0000000              1.0000000
D    1   1.00
      3.5000000              1.0000000
D    1   1.00
      0.8750000              1.0000000
F    1   1.00
      1.8500000              1.0000000
****
Al     0
S    6   1.00
  13983.1000000              0.00194267
   2098.7500000              0.0148599
    477.7050000              0.0728494
    134.3600000              0.2468300
     42.8709000              0.4872580
     14.5189000              0.3234960
SP   6   1.00
    239.6680000             -0.00292619             0.00460285
     57.4419000             -0.0374080              0.0331990
     18.2859000             -0.1144870              0.1362820
      6.5991400              0.1156350              0.3304760
      2.4904900              0.6125950              0.4491460
      0.9445400              0.3937990              0.2657040
SP   3   1.00
      1.2779000             -0.2276060             -0.0175130
      0.3975900              0.00144583             0.2445330
      0.1600950              1.0927900              0.8049340
SP   1   1.00
      0.0556577              1.0000000              1.0000000
D    1   1.00
      0.6500000              1.0000000
D    1   1.00
      0.1625000              1.0000000
F    1   1.00
      0.2500000              1.0000000
****
Si     0
S    6   1.00
  16115.9000000              0.00195948
   2425.5800000              0.01492880
    553.8670000              0.07284780
    156.3400000              0.24613000
     50.0683000              0.48591400
     17.0178000              0.32500200
SP   6   1.00
    292.7180000             -0.00278094             0.00443826
     69.8731000             -0.03571460             0.03266790
     22.3363000             -0.11498500             0.13472100
      8.1503900              0.09356340             0.32867800
      3.1345800              0.60301700             0.44964000
      1.2254300              0.41895900             0.26137200
SP   3   1.00
      1.7273800             -0.24463000            -0.01779510
      0.5729220              0.00431572             0.25353900
      0.2221920              1.09818000             0.80066900
SP   1   1.00
      0.0778369              1.00000000             1.00000000
D    1   1.00
      0.9000000              1.0000000
D    1   1.00
      0.2250000              1.0000000
F    1   1.00
      0.3200000              1.0000000
****
P     0
S    6   1.00
  19413.3000000              0.0018516
   2909.4200000              0.0142062
    661.3640000              0.0699995
    185.7590000              0.2400790
     59.1943000              0.4847620
     20.0310000              0.3352000
SP   6   1.00
    339.4780000             -0.00278217             0.00456462
     81.0101000             -0.0360499              0.03369360
     25.8780000             -0.1166310              0.13975500
      9.4522100              0.0968328              0.33936200
      3.6656600              0.6144180              0.45092100
      1.4674600              0.4037980              0.23858600
SP   3   1.00
      2.1562300             -0.2529230             -0.01776530
      0.7489970              0.0328517              0.27405800
      0.2831450              1.0812500              0.78542100
SP   1   1.00
      0.0998317              1.0000000              1.00000000
D    1   1.00
      1.1000000              1.0000000
D    1   1.00
      0.2750000              1.0000000
F    1   1.00
      0.4500000              1.0000000
****
S     0
S    6   1.00
  21917.1000000              0.0018690
   3301.4900000              0.0142300
    754.1460000              0.0696960
    212.7110000              0.2384870
     67.9896000              0.4833070
     23.0515000              0.3380740
SP   6   1.00
    423.7350000             -0.0023767              0.0040610
    100.7100000             -0.0316930              0.0306810
     32.1599000             -0.1133170              0.1304520
     11.8079000              0.0560900              0.3272050
      4.6311000              0.5922550              0.4528510
      1.8702500              0.4550060              0.2560420
SP   3   1.00
      2.6158400             -0.2503740             -0.0145110
      0.9221670              0.0669570              0.3102630
      0.3412870              1.0545100              0.7544830
SP   1   1.00
      0.1171670              1.0000000              1.0000000
D    1   1.00
      1.3000000              1.0000000
D    1   1.00
      0.3250000              1.0000000
F    1   1.00
      0.5500000              1.0000000
****
Cl     0
S    6   1.00
  25180.1000000              0.0018330
   3780.3500000              0.0140340
    860.4740000              0.0690970
    242.1450000              0.2374520
     77.3349000              0.4830340
     26.2470000              0.3398560
SP   6   1.00
    491.7650000             -0.0022974              0.0039894
    116.9840000             -0.0307140              0.0303180
     37.4153000             -0.1125280              0.1298800
     13.7834000              0.0450160              0.3279510
      5.4521500              0.5893530              0.4535270
      2.2258800              0.4652060              0.2521540
SP   3   1.00
      3.1864900             -0.2518300             -0.0142990
      1.1442700              0.0615890              0.3235720
      0.4203770              1.0601800              0.7435070
SP   1   1.00
      0.1426570              1.0000000              1.0000000
D    1   1.00
      1.5000000              1.0000000
D    1   1.00
      0.3750000              1.0000000
F    1   1.00
      0.7000000              1.0000000
****
}

set {
reference uhf
freeze_core true
e_convergence 10
d_convergence 10
dft_spherical_points 1202
dft_radial_points 99
}

e = energy('b3lyp')

print_out('Grab this energy {0}'.format(e))
--------------------------------------------------------------------------

    Molecular point group: c1

    Geometry (in Bohr), charge = 0, multiplicity = 2:

       Center              X                  Y                   Z               Mass
    ------------   -----------------  -----------------  -----------------  -----------------
         C           -0.325007027777    -0.000002367241    -0.001523642957    12.000000000000
         C            0.061645547223    -1.399962952541    -2.425477993257    12.000000000000
         C            0.061660855623     2.801663283359    -0.000681007957    12.000000000000
         C            0.061917049223    -1.401696041841     2.427117745843    12.000000000000
         H            2.086863802823    -1.640359396341    -2.844586705457     1.007825032230
         H           -0.766026923277    -0.390691452241    -4.027046794257     1.007825032230
         H           -0.764822832277    -3.290408773441    -2.346406368757     1.007825032230
         H            2.086530862823     3.288147496259    -0.003615985357     1.007825032230
         H           -0.764650936177     3.674626646859     1.677703711143     1.007825032230
         H           -0.767390226677     3.685874513259    -1.675166698257     1.007825032230
         H            2.086476378623    -1.647874302241     2.850370819943     1.007825032230
         H           -0.767068141077    -3.293488178441     2.351623793243     1.007825032230
         H           -0.765532896277    -0.385849435441     4.023850375343     1.007825032230

  Charge       = 0
  Multiplicity = 2
  Basis Set: ANONYMOUSC5C0B936
    Blend: 6-31G_2DFP_
  Basis Set: (ANONYMOUSC5C0B936 AUX)
    Blend: DEF2-UNIVERSAL-JKFIT

    Orbital Energies [Eh]
    ---------------------

    Alpha Occupied:

       1A    -10.180407     2A    -10.167166     3A    -10.167007
       4A    -10.166846     5A     -0.797751     6A     -0.686291
       7A     -0.686047     8A     -0.530781     9A     -0.441185
      10A     -0.434677    11A     -0.434536    12A     -0.382740
      13A     -0.382671    14A     -0.363486    15A     -0.337972
      16A     -0.337840    17A     -0.169144

    Alpha Virtual:

      18A      0.076076    19A      0.134121    20A      0.134184
      21A      0.142542    22A      0.142664    23A      0.154959
      24A      0.178807    25A      0.178886    26A      0.203574
      27A      0.214756    28A      0.275544    29A      0.276082
      30A      0.399169    31A      0.399241    32A      0.403272
      33A      0.424015    34A      0.424125    35A      0.456686
      36A      0.495305    37A      0.495424    38A      0.512205
      39A      0.513880    40A      0.578657    41A      0.579233
      42A      0.591365    43A      0.591952    44A      0.602794
      45A      0.624678    46A      0.631717    47A      0.636054
      48A      0.636132    49A      0.663537    50A      0.663603
      51A      0.683715    52A      0.683771    53A      0.734797
      54A      0.825136    55A      0.825567    56A      0.853918
      57A      0.914817    58A      0.915094    59A      0.944172
      60A      0.944661    61A      0.960623    62A      0.962002
      63A      1.003464    64A      1.127982    65A      1.128417
      66A      1.142237    67A      1.163604    68A      1.163812
      69A      1.223164    70A      1.274270    71A      1.274580
      72A      1.279590    73A      1.324104    74A      1.324113
      75A      1.356233    76A      1.365513    77A      1.365841
      78A      1.392462    79A      1.403783    80A      1.404414
      81A      1.416956    82A      1.417744    83A      1.427960
      84A      1.491312    85A      1.499471    86A      1.542607
      87A      1.543152    88A      1.574153    89A      1.574167
      90A      1.669561    91A      1.738805    92A      1.739550
      93A      1.768365    94A      1.830518    95A      1.831508
      96A      1.971464    97A      2.017164    98A      2.019331
      99A      2.019490   100A      2.052221   101A      2.053836
     102A      2.738010   103A      2.738564   104A      2.791126
     105A      2.811385   106A      2.889426   107A      2.889960
     108A      2.895301   109A      2.929496   110A      2.929537
     111A      2.958927   112A      2.964113   113A      2.964416
     114A      3.034357   115A      3.070307   116A      3.070572
     117A      3.084278   118A      3.168702   119A      3.169107
     120A      3.180553   121A      3.286061   122A      3.286156
     123A      3.327192   124A      3.327845   125A      3.375786
     126A      3.489770   127A      3.490073   128A      3.513845
     129A      3.525770   130A      3.567759   131A      3.568380
     132A      3.575847   133A      3.665639   134A      3.665942
     135A      3.679405   136A      3.693776   137A      3.694633
     138A      3.775281   139A      3.777782   140A      3.787885
     141A      3.911942   142A      3.912476   143A      4.034140
     144A      4.109872   145A      4.112384   146A      4.147195
     147A      4.148960   148A      4.173230   149A      4.202285
     150A      4.203296   151A      4.203396   152A      4.210914
     153A      4.315345   154A      4.316927   155A      4.359510
     156A      4.424039   157A      4.424559   158A      4.443187
     159A      4.516719   160A      4.517541   161A      4.578054
     162A      4.578711   163A      4.617028   164A      4.709777
     165A      4.773374   166A      4.775499   167A      4.835755
     168A      4.962957   169A      5.002744   170A      5.003450
     171A      5.227932   172A      5.246233   173A      5.247173
     174A      5.354506   175A      5.355944   176A      5.478989

    Beta Occupied:

       1A    -10.167922     2A    -10.167764     3A    -10.167606
       4A    -10.166580     5A     -0.781081     6A     -0.684084
       7A     -0.683855     8A     -0.511744     9A     -0.431032
      10A     -0.430910    11A     -0.421906    12A     -0.376832
      13A     -0.376772    14A     -0.362468    15A     -0.333095
      16A     -0.332971

    Beta Virtual:

      17A     -0.025844    18A      0.077080    19A      0.135009
      20A      0.135055    21A      0.144414    22A      0.144539
      23A      0.163408    24A      0.182498    25A      0.182540
      26A      0.214986    27A      0.218934    28A      0.281914
      29A      0.282432    30A      0.400342    31A      0.400413
      32A      0.419683    33A      0.426828    34A      0.426941
      35A      0.468607    36A      0.497573    37A      0.497686
      38A      0.513936    39A      0.556225    40A      0.584192
      41A      0.584770    42A      0.597565    43A      0.598125
      44A      0.610189    45A      0.628078    46A      0.631873
      47A      0.639326    48A      0.639442    49A      0.667102
      50A      0.667171    51A      0.686322    52A      0.686422
      53A      0.757341    54A      0.830286    55A      0.830761
      56A      0.855267    57A      0.922832    58A      0.923041
      59A      0.946006    60A      0.953578    61A      0.965954
      62A      0.967223    63A      1.008724    64A      1.131945
      65A      1.132527    66A      1.155586    67A      1.168754
      68A      1.168801    69A      1.232133    70A      1.279885
      71A      1.280192    72A      1.285352    73A      1.329094
      74A      1.329118    75A      1.365625    76A      1.370779
      77A      1.371051    78A      1.393515    79A      1.407223
      80A      1.407903    81A      1.421989    82A      1.422768
      83A      1.428234    84A      1.492358    85A      1.509921
      86A      1.547012    87A      1.547559    88A      1.582027
      89A      1.582039    90A      1.674424    91A      1.744557
      92A      1.745318    93A      1.779124    94A      1.834367
      95A      1.835352    96A      1.972322    97A      2.025673
      98A      2.025799    99A      2.038692   100A      2.058928
     101A      2.060597   102A      2.746362   103A      2.746885
     104A      2.811807   105A      2.816241   106A      2.902232
     107A      2.902647   108A      2.924965   109A      2.931977
     110A      2.931993   111A      2.959988   112A      2.968685
     113A      2.968953   114A      3.042251   115A      3.080265
     116A      3.080511   117A      3.086090   118A      3.184324
     119A      3.184796   120A      3.188277   121A      3.290795
     122A      3.290940   123A      3.331021   124A      3.331640
     125A      3.383614   126A      3.492535   127A      3.492802
     128A      3.512217   129A      3.528831   130A      3.575516
     131A      3.581192   132A      3.581895   133A      3.670464
     134A      3.670607   135A      3.692698   136A      3.725703
     137A      3.725947   138A      3.779894   139A      3.782307
     140A      3.816423   141A      3.921739   142A      3.922238
     143A      4.045055   144A      4.116785   145A      4.119075
     146A      4.154395   147A      4.156208   148A      4.187243
     149A      4.209211   150A      4.209337   151A      4.210285
     152A      4.215367   153A      4.322779   154A      4.324409
     155A      4.362877   156A      4.432259   157A      4.432685
     158A      4.446074   159A      4.524502   160A      4.525302
     161A      4.588690   162A      4.589342   163A      4.624216
     164A      4.720148   165A      4.780384   166A      4.782424
     167A      4.838685   168A      4.967748   169A      5.006761
     170A      5.007485   171A      5.233649   172A      5.248010
     173A      5.248964   174A      5.360974   175A      5.362454
     176A      5.481317

    Final Occupation by Irrep:
              A
    DOCC [    16 ]
    SOCC [     1 ]

  @DF-UKS Final Energy:  -157.81306017252271

   => Energetics <=

    Nuclear Repulsion Energy =            125.3922104575503198
    One-Electron Energy =                -458.7442506649323377
    Two-Electron Energy =                 195.8460540061060726
    DFT Exchange-Correlation Energy =     -20.3070739712467869
    Empirical Dispersion Energy =           0.0000000000000000
    VV10 Nonlocal Energy =                  0.0000000000000000
    Total Energy =                       -157.8130601725227109

  UHF NO Occupations:
  HONO-2 :   15  A 1.9996024
  HONO-1 :   16  A 1.9989820
  HONO-0 :   17  A 1.0000000
  LUNO+0 :   18  A 0.0010180
  LUNO+1 :   19  A 0.0003976
  LUNO+2 :   20  A 0.0001980
  LUNO+3 :   21  A 0.0001973

Computation Completed

Properties will be evaluated at   0.000000,   0.000000,   0.000000 [a0]

Properties computed using the SCF density matrix

  Nuclear Dipole Moment: [e a0]
     X:     0.8257      Y:    -0.0000      Z:     0.0033

  Electronic Dipole Moment: [e a0]
     X:    -0.7470      Y:     0.0000      Z:    -0.0034

  Dipole Moment: [e a0]
     X:     0.0787      Y:    -0.0000      Z:    -0.0000     Total:     0.0787

  Dipole Moment: [D]
     X:     0.2000      Y:    -0.0000      Z:    -0.0001     Total:     0.2000

*** tstop() called on n046 at Fri Nov  5 11:40:08 2021
Module time:
	user time   =     543.74 seconds =       9.06 minutes
	system time =      12.05 seconds =       0.20 minutes
	total time  =        140 seconds =       2.33 minutes
Total time:
	user time   =     543.74 seconds =       9.06 minutes
	system time =      12.05 seconds =       0.20 minutes
	total time  =        140 seconds =       2.33 minutes
Grab this energy -157.8130601725227
    Psi4 stopped on: Friday, 05 November 2021 11:40AM
    Psi4 wall time for execution: 0:02:19.75

*** Psi4 exiting successfully. Buy a developer a beer!
