                               Psi4 1.4a2.dev629

  ==> Input File <==

--------------------------------------------------------------------------
import os
memory 14 GB

molecule {
 C   -0.3233409910    0.0029210001    0.0000000000
 C    0.0614901035   -1.4000071345   -2.4271111216
 C    0.0603188810    2.8013647865    0.0000000000
 C    0.0614901035   -1.4000071345    2.4271111216
 H    2.0903105334   -1.6463028130   -2.8454009647
 H   -0.7620836515   -0.3862127345   -4.0310090085
 H   -0.7696425061   -3.2911941091   -2.3490167858
 H    2.0800436016    3.2894147850   -0.0000000000
 H   -0.7648891635    3.6768543485    1.6726980967
 H   -0.7648891635    3.6768543485   -1.6726980967
 H    2.0903105334   -1.6463028130    2.8454009647
 H   -0.7696425061   -3.2911941091    2.3490167858
 H   -0.7620836514   -0.3862127345    4.0310090085
units bohr
0 2
}

basis {

assign 6-31g_2dfp_

[ 6-31g_2dfp_ ]

spherical

!----------------------------------------------------------------------
! Basis Set Exchange
! Version v0.8.13
! https://www.basissetexchange.org
!----------------------------------------------------------------------
!   Basis set: 6-31G(2df,p)
! Description: 6-31G(2df,p)
!        Role: orbital
!     Version: 0  (Data from the original Basis Set Exchange)
!----------------------------------------------------------------------

****
H     0
S    3   1.00
     18.7311370              0.03349460
      2.8253937              0.23472695
      0.6401217              0.81375733
S    1   1.00
      0.1612778              1.00000000
P    1   1.00
      1.5000000              1.0000000
P    1   1.00
      0.3750000              1.0000000
****
B     0
S    6   1.00
   2068.8823000              0.0018663
    310.6495700              0.0142515
     70.6830330              0.0695516
     19.8610800              0.2325729
      6.2993048              0.4670787
      2.1270270              0.3634314
SP   3   1.00
      4.7279710             -0.1303938              0.0745976
      1.1903377             -0.1307889              0.3078467
      0.3594117              1.1309444              0.7434568
SP   1   1.00
      0.1267512              1.0000000              1.0000000
D    1   1.00
      0.8020000              1.0000000
D    1   1.00
      0.2005000              1.0000000
F    1   1.00
      0.5000000              1.0000000
****
C     0
S    6   1.00
   3047.5249000              0.0018347
    457.3695100              0.0140373
    103.9486900              0.0688426
     29.2101550              0.2321844
      9.2866630              0.4679413
      3.1639270              0.3623120
SP   3   1.00
      7.8682724             -0.1193324              0.0689991
      1.8812885             -0.1608542              0.3164240
      0.5442493              1.1434564              0.7443083
SP   1   1.00
      0.1687144              1.0000000              1.0000000
D    1   1.00
      1.2520000              1.0000000
D    1   1.00
      0.3130000              1.0000000
F    1   1.00
      0.8000000              1.0000000
****
N     0
S    6   1.00
   4173.5110000              0.0018348
    627.4579000              0.0139950
    142.9021000              0.0685870
     40.2343300              0.2322410
     12.8202100              0.4690700
      4.3904370              0.3604550
SP   3   1.00
     11.6263580             -0.1149610              0.0675800
      2.7162800             -0.1691180              0.3239070
      0.7722180              1.1458520              0.7408950
SP   1   1.00
      0.2120313              1.0000000              1.0000000
D    1   1.00
      1.8260000              1.0000000
D    1   1.00
      0.4565000              1.0000000
F    1   1.00
      1.0000000              1.0000000
****
O     0
S    6   1.00
   5484.6717000              0.0018311
    825.2349500              0.0139501
    188.0469600              0.0684451
     52.9645000              0.2327143
     16.8975700              0.4701930
      5.7996353              0.3585209
SP   3   1.00
     15.5396160             -0.1107775              0.0708743
      3.5999336             -0.1480263              0.3397528
      1.0137618              1.1307670              0.7271586
SP   1   1.00
      0.2700058              1.0000000              1.0000000
D    1   1.00
      2.5840000              1.0000000
D    1   1.00
      0.6460000              1.0000000
F    1   1.00
      1.4000000              1.0000000
****
F     0
S    6   1.00
   7001.7130900              0.0018196169
   1051.3660900              0.0139160796
    239.2856900              0.0684053245
     67.3974453              0.233185760
     21.5199573              0.471267439
      7.40310130             0.356618546
SP   3   1.00
     20.8479528             -0.108506975            0.0716287243
      4.80830834            -0.146451658            0.3459121030
      1.34406986             1.128688580            0.7224699570
SP   1   1.00
      0.358151393            1.0000000              1.0000000
D    1   1.00
      3.5000000              1.0000000
D    1   1.00
      0.8750000              1.0000000
F    1   1.00
      1.8500000              1.0000000
****
Al     0
S    6   1.00
  13983.1000000              0.00194267
   2098.7500000              0.0148599
    477.7050000              0.0728494
    134.3600000              0.2468300
     42.8709000              0.4872580
     14.5189000              0.3234960
SP   6   1.00
    239.6680000             -0.00292619             0.00460285
     57.4419000             -0.0374080              0.0331990
     18.2859000             -0.1144870              0.1362820
      6.5991400              0.1156350              0.3304760
      2.4904900              0.6125950              0.4491460
      0.9445400              0.3937990              0.2657040
SP   3   1.00
      1.2779000             -0.2276060             -0.0175130
      0.3975900              0.00144583             0.2445330
      0.1600950              1.0927900              0.8049340
SP   1   1.00
      0.0556577              1.0000000              1.0000000
D    1   1.00
      0.6500000              1.0000000
D    1   1.00
      0.1625000              1.0000000
F    1   1.00
      0.2500000              1.0000000
****
Si     0
S    6   1.00
  16115.9000000              0.00195948
   2425.5800000              0.01492880
    553.8670000              0.07284780
    156.3400000              0.24613000
     50.0683000              0.48591400
     17.0178000              0.32500200
SP   6   1.00
    292.7180000             -0.00278094             0.00443826
     69.8731000             -0.03571460             0.03266790
     22.3363000             -0.11498500             0.13472100
      8.1503900              0.09356340             0.32867800
      3.1345800              0.60301700             0.44964000
      1.2254300              0.41895900             0.26137200
SP   3   1.00
      1.7273800             -0.24463000            -0.01779510
      0.5729220              0.00431572             0.25353900
      0.2221920              1.09818000             0.80066900
SP   1   1.00
      0.0778369              1.00000000             1.00000000
D    1   1.00
      0.9000000              1.0000000
D    1   1.00
      0.2250000              1.0000000
F    1   1.00
      0.3200000              1.0000000
****
P     0
S    6   1.00
  19413.3000000              0.0018516
   2909.4200000              0.0142062
    661.3640000              0.0699995
    185.7590000              0.2400790
     59.1943000              0.4847620
     20.0310000              0.3352000
SP   6   1.00
    339.4780000             -0.00278217             0.00456462
     81.0101000             -0.0360499              0.03369360
     25.8780000             -0.1166310              0.13975500
      9.4522100              0.0968328              0.33936200
      3.6656600              0.6144180              0.45092100
      1.4674600              0.4037980              0.23858600
SP   3   1.00
      2.1562300             -0.2529230             -0.01776530
      0.7489970              0.0328517              0.27405800
      0.2831450              1.0812500              0.78542100
SP   1   1.00
      0.0998317              1.0000000              1.00000000
D    1   1.00
      1.1000000              1.0000000
D    1   1.00
      0.2750000              1.0000000
F    1   1.00
      0.4500000              1.0000000
****
S     0
S    6   1.00
  21917.1000000              0.0018690
   3301.4900000              0.0142300
    754.1460000              0.0696960
    212.7110000              0.2384870
     67.9896000              0.4833070
     23.0515000              0.3380740
SP   6   1.00
    423.7350000             -0.0023767              0.0040610
    100.7100000             -0.0316930              0.0306810
     32.1599000             -0.1133170              0.1304520
     11.8079000              0.0560900              0.3272050
      4.6311000              0.5922550              0.4528510
      1.8702500              0.4550060              0.2560420
SP   3   1.00
      2.6158400             -0.2503740             -0.0145110
      0.9221670              0.0669570              0.3102630
      0.3412870              1.0545100              0.7544830
SP   1   1.00
      0.1171670              1.0000000              1.0000000
D    1   1.00
      1.3000000              1.0000000
D    1   1.00
      0.3250000              1.0000000
F    1   1.00
      0.5500000              1.0000000
****
Cl     0
S    6   1.00
  25180.1000000              0.0018330
   3780.3500000              0.0140340
    860.4740000              0.0690970
    242.1450000              0.2374520
     77.3349000              0.4830340
     26.2470000              0.3398560
SP   6   1.00
    491.7650000             -0.0022974              0.0039894
    116.9840000             -0.0307140              0.0303180
     37.4153000             -0.1125280              0.1298800
     13.7834000              0.0450160              0.3279510
      5.4521500              0.5893530              0.4535270
      2.2258800              0.4652060              0.2521540
SP   3   1.00
      3.1864900             -0.2518300             -0.0142990
      1.1442700              0.0615890              0.3235720
      0.4203770              1.0601800              0.7435070
SP   1   1.00
      0.1426570              1.0000000              1.0000000
D    1   1.00
      1.5000000              1.0000000
D    1   1.00
      0.3750000              1.0000000
F    1   1.00
      0.7000000              1.0000000
****
}

set {
reference uhf
freeze_core true
e_convergence 10
d_convergence 10
dft_spherical_points 1202
dft_radial_points 99
}

e = energy('b3lyp')

print_out('Grab this energy {0}'.format(e))
--------------------------------------------------------------------------

    Molecular point group: cs

    Geometry (in Bohr), charge = 0, multiplicity = 2:

       Center              X                  Y                   Z               Mass
    ------------   -----------------  -----------------  -----------------  -----------------
         C           -0.323340621549     0.002098704406     0.000000000000    12.000000000000
         C            0.061490472951    -1.400829430194    -2.427111121600    12.000000000000
         C            0.060319250451     2.800542490806     0.000000000000    12.000000000000
         C            0.061490472951    -1.400829430194     2.427111121600    12.000000000000
         H            2.090310902851    -1.647125108694    -2.845400964700     1.007825032230
         H           -0.762083281999    -0.387035030194    -4.031009008500     1.007825032230
         H           -0.769642136649    -3.292016404794    -2.349016785800     1.007825032230
         H            2.080043971051     3.288592489306     0.000000000000     1.007825032230
         H           -0.764888794049     3.676032052806     1.672698096700     1.007825032230
         H           -0.764888794049     3.676032052806    -1.672698096700     1.007825032230
         H            2.090310902851    -1.647125108694     2.845400964700     1.007825032230
         H           -0.769642136649    -3.292016404794     2.349016785800     1.007825032230
         H           -0.762083281999    -0.387035030194     4.031009008500     1.007825032230

  Charge       = 0
  Multiplicity = 2
  Basis Set: ANONYMOUS3245243D
    Blend: 6-31G_2DFP_
  Basis Set: (ANONYMOUS3245243D AUX)
    Blend: DEF2-UNIVERSAL-JKFIT

    Orbital Energies [Eh]
    ---------------------

    Alpha Occupied:

       1Ap   -10.180342     1App  -10.167473     2Ap   -10.167443
       3Ap   -10.166127     4Ap    -0.797769     5Ap    -0.686650
       2App   -0.685722     6Ap    -0.530777     7Ap    -0.441127
       3App   -0.434834     8Ap    -0.434512     9Ap    -0.382864
       4App   -0.382331     5App   -0.363609    10Ap    -0.338116
       6App   -0.337882    11Ap    -0.168961

    Alpha Virtual:

      12Ap     0.076070     7App    0.134088    13Ap     0.134210
      14Ap     0.142519     8App    0.142748    15Ap     0.154870
       9App    0.178458    16Ap     0.179104    17Ap     0.203547
      10App    0.214803    11App    0.275694    18Ap     0.276276
      12App    0.399145    19Ap     0.399307    20Ap     0.403348
      21Ap     0.424037    13App    0.424160    22Ap     0.456594
      14App    0.495371    23Ap     0.495409    15App    0.512160
      24Ap     0.513978    16App    0.578509    25Ap     0.579119
      17App    0.591108    26Ap     0.592125    27Ap     0.602608
      28Ap     0.624766    18App    0.631653    29Ap     0.635959
      19App    0.636664    20App    0.663027    30Ap     0.663807
      21App    0.683563    31Ap     0.684155    32Ap     0.734995
      33Ap     0.825038    22App    0.825767    23App    0.853908
      24App    0.914908    34Ap     0.915149    25App    0.944131
      35Ap     0.944617    36Ap     0.961094    26App    0.961500
      37Ap     1.003453    27App    1.127827    38Ap     1.128380
      39Ap     1.142192    40Ap     1.163090    28App    1.163491
      41Ap     1.223327    29App    1.274125    42Ap     1.274840
      43Ap     1.279363    44Ap     1.324126    30App    1.324582
      45Ap     1.355978    31App    1.365479    46Ap     1.366621
      32App    1.392427    33App    1.403355    47Ap     1.404736
      34App    1.416529    48Ap     1.417686    35App    1.427927
      36App    1.491490    49Ap     1.499097    37App    1.542756
      50Ap     1.542916    51Ap     1.573951    38App    1.574958
      52Ap     1.669809    39App    1.739237    53Ap     1.739564
      54Ap     1.768318    40App    1.829387    55Ap     1.833472
      41App    1.971681    56Ap     2.017816    42App    2.019104
      57Ap     2.019428    43App    2.051791    58Ap     2.053598
      59Ap     2.738089    44App    2.738881    60Ap     2.790929
      45App    2.811425    46App    2.889264    61Ap     2.890643
      62Ap     2.894931    63Ap     2.929223    47App    2.929773
      48App    2.959007    49App    2.964125    64Ap     2.964631
      65Ap     3.034031    50App    3.070753    66Ap     3.071811
      51App    3.084369    67Ap     3.168634    52App    3.168861
      68Ap     3.180654    69Ap     3.285298    53App    3.285344
      54App    3.326768    70Ap     3.327558    71Ap     3.375604
      72Ap     3.489571    55App    3.490754    56App    3.514016
      73Ap     3.525356    57App    3.567490    74Ap     3.569271
      58App    3.575159    59App    3.665859    75Ap     3.666662
      76Ap     3.679820    60App    3.693307    77Ap     3.694943
      78Ap     3.776043    61App    3.777572    79Ap     3.789174
      62App    3.911298    80Ap     3.913166    81Ap     4.034401
      63App    4.109554    82Ap     4.113021    83Ap     4.146695
      64App    4.149400    84Ap     4.173353    85Ap     4.201602
      65App    4.201759    86Ap     4.205283    66App    4.211341
      67App    4.314716    87Ap     4.317172    68App    4.358953
      88Ap     4.423747    69App    4.424966    70App    4.443630
      71App    4.515849    89Ap     4.517773    72App    4.578134
      90Ap     4.578452    91Ap     4.617531    92Ap     4.709512
      93Ap     4.774163    73App    4.775105    74App    4.836901
      94Ap     4.962831    75App    5.001757    95Ap     5.004226
      96Ap     5.227756    97Ap     5.243020    76App    5.250502
      77App    5.351553    98Ap     5.359757    78App    5.479470

    Beta Occupied:

       1App  -10.168228     1Ap   -10.168207     2Ap   -10.166899
       3Ap   -10.166507     4Ap    -0.781095     5Ap    -0.684440
       2App   -0.683536     6Ap    -0.511748     3App   -0.431222
       7Ap    -0.430865     8Ap    -0.421825     9Ap    -0.376946
       4App   -0.376419     5App   -0.362593    10Ap    -0.333246
       6App   -0.332997

    Beta Virtual:

      11Ap    -0.025742    12Ap     0.077079     7App    0.135030
      13Ap     0.135047    14Ap     0.144427     8App    0.144581
      15Ap     0.163328     9App    0.182131    16Ap     0.182776
      10App    0.215033    17Ap     0.218929    11App    0.282055
      18Ap     0.282612    12App    0.400315    19Ap     0.400479
      20Ap     0.419790    21Ap     0.426859    13App    0.426960
      22Ap     0.468502    14App    0.497624    23Ap     0.497676
      15App    0.513895    24Ap     0.556321    16App    0.584040
      25Ap     0.584689    17App    0.597329    26Ap     0.598268
      27Ap     0.610021    28Ap     0.628145    18App    0.631858
      29Ap     0.639290    19App    0.639857    20App    0.666588
      30Ap     0.667376    21App    0.686222    31Ap     0.686767
      32Ap     0.757518    33Ap     0.830153    22App    0.830989
      23App    0.855262    24App    0.922872    34Ap     0.923125
      25App    0.945968    35Ap     0.953546    36Ap     0.966459
      26App    0.966748    37Ap     1.008693    27App    1.131892
      38Ap     1.132371    39Ap     1.155559    40Ap     1.168225
      28App    1.168514    41Ap     1.232300    29App    1.279715
      42Ap     1.280440    43Ap     1.285120    44Ap     1.329057
      30App    1.329631    45Ap     1.365385    31App    1.370772
      46Ap     1.371821    32App    1.393489    33App    1.406775
      47Ap     1.408247    34App    1.421536    48Ap     1.422775
      35App    1.428199    36App    1.492539    49Ap     1.509539
      37App    1.547238    50Ap     1.547248    51Ap     1.581876
      38App    1.582778    52Ap     1.674654    39App    1.744967
      53Ap     1.745362    54Ap     1.779094    40App    1.833265
      55Ap     1.837306    41App    1.972546    42App    2.025390
      56Ap     2.025403    57Ap     2.039724    43App    2.058601
      58Ap     2.060221    59Ap     2.746439    44App    2.747203
      45App    2.811837    60Ap     2.816063    46App    2.902088
      61Ap     2.903189    62Ap     2.924619    63Ap     2.931774
      47App    2.932203    48App    2.960070    49App    2.968614
      64Ap     2.969238    65Ap     3.041965    50App    3.080625
      66Ap     3.081737    51App    3.086210    67Ap     3.184272
      52App    3.184582    68Ap     3.188479    69Ap     3.290073
      53App    3.290166    54App    3.330559    70Ap     3.331376
      71Ap     3.383422    72Ap     3.492355    55App    3.493431
      56App    3.512381    73Ap     3.528401    57App    3.574981
      58App    3.580925    74Ap     3.582548    59App    3.670428
      75Ap     3.671664    76Ap     3.693058    60App    3.725100
      77Ap     3.726395    78Ap     3.780614    61App    3.782082
      79Ap     3.817693    62App    3.921172    80Ap     3.922927
      81Ap     4.045282    63App    4.116563    82Ap     4.119619
      83Ap     4.154068    64App    4.156486    84Ap     4.187399
      65App    4.207621    85Ap     4.208765    86Ap     4.212088
      66App    4.215834    67App    4.322243    87Ap     4.324518
      68App    4.362319    88Ap     4.432045    69App    4.433005
      70App    4.446616    71App    4.523708    89Ap     4.525491
      72App    4.588683    90Ap     4.589099    91Ap     4.624726
      92Ap     4.719857    93Ap     4.781190    73App    4.781985
      74App    4.839818    94Ap     4.967627    75App    5.005795
      95Ap     5.008266    96Ap     5.233464    97Ap     5.244803
      76App    5.252298    77App    5.358026    98Ap     5.366242
      78App    5.481792

    Final Occupation by Irrep:
             Ap   App
    DOCC [    10,    6 ]
    SOCC [     1,    0 ]

  @DF-UKS Final Energy:  -157.81305057455535

   => Energetics <=

    Nuclear Repulsion Energy =            125.3947047350906558
    One-Electron Energy =                -458.7490260569225029
    Two-Electron Energy =                 195.8484208017066237
    DFT Exchange-Correlation Energy =     -20.3071500544301458
    Empirical Dispersion Energy =           0.0000000000000000
    VV10 Nonlocal Energy =                  0.0000000000000000
    Total Energy =                       -157.8130505745553478

  UHF NO Occupations:
  HONO-2 :    9 Ap 1.9996009
  HONO-1 :   10 Ap 1.9989805
  HONO-0 :   11 Ap 1.0000000
  LUNO+0 :   12 Ap 0.0010195
  LUNO+1 :   13 Ap 0.0003991
  LUNO+2 :    7App 0.0001982
  LUNO+3 :   14 Ap 0.0001969

Computation Completed

Properties will be evaluated at   0.000000,   0.000000,   0.000000 [a0]

Properties computed using the SCF density matrix

  Nuclear Dipole Moment: [e a0]
     X:     0.8272      Y:    -0.0058      Z:     0.0000

  Electronic Dipole Moment: [e a0]
     X:    -0.7493      Y:     0.0082      Z:     0.0000

  Dipole Moment: [e a0]
     X:     0.0779      Y:     0.0024      Z:     0.0000     Total:     0.0779

  Dipole Moment: [D]
     X:     0.1980      Y:     0.0061      Z:     0.0000     Total:     0.1981

*** tstop() called on n089 at Fri Nov  5 15:12:10 2021
Module time:
	user time   =     505.51 seconds =       8.43 minutes
	system time =       4.57 seconds =       0.08 minutes
	total time  =        128 seconds =       2.13 minutes
Total time:
	user time   =     505.51 seconds =       8.43 minutes
	system time =       4.57 seconds =       0.08 minutes
	total time  =        128 seconds =       2.13 minutes
Grab this energy -157.81305057455535
    Psi4 stopped on: Friday, 05 November 2021 03:12PM
    Psi4 wall time for execution: 0:02:08.26

*** Psi4 exiting successfully. Buy a developer a beer!
