                               Psi4 1.4a2.dev629

  ==> Input File <==

--------------------------------------------------------------------------
import os
memory 14 GB

molecule {
 C   -0.3233310446   -0.0055022125   -0.0000000000
 C    0.0608874873   -1.3984262682   -2.4328446601
 C    0.0615289399    2.7929821054    0.0000000000
 C    0.0608874873   -1.3984262682    2.4328446601
 H    2.0844556507   -1.6381269516   -2.8564397875
 H   -0.7671595615   -0.3813497911   -4.0266145564
 H   -0.7627027288   -3.2879113142   -2.3626815613
 H    2.0917602903    3.2784420516    0.0000000000
 H   -0.7667638789    3.6728411961    1.6803473574
 H   -0.7667638789    3.6728411961   -1.6803473574
 H    2.0844556507   -1.6381269516    2.8564397875
 H   -0.7627027288   -3.2879113142    2.3626815613
 H   -0.7671595615   -0.3813497911    4.0266145564
units bohr
0 2
}

basis {

assign 6-31g_2dfp_

[ 6-31g_2dfp_ ]

spherical

!----------------------------------------------------------------------
! Basis Set Exchange
! Version v0.8.13
! https://www.basissetexchange.org
!----------------------------------------------------------------------
!   Basis set: 6-31G(2df,p)
! Description: 6-31G(2df,p)
!        Role: orbital
!     Version: 0  (Data from the original Basis Set Exchange)
!----------------------------------------------------------------------

****
H     0
S    3   1.00
     18.7311370              0.03349460
      2.8253937              0.23472695
      0.6401217              0.81375733
S    1   1.00
      0.1612778              1.00000000
P    1   1.00
      1.5000000              1.0000000
P    1   1.00
      0.3750000              1.0000000
****
B     0
S    6   1.00
   2068.8823000              0.0018663
    310.6495700              0.0142515
     70.6830330              0.0695516
     19.8610800              0.2325729
      6.2993048              0.4670787
      2.1270270              0.3634314
SP   3   1.00
      4.7279710             -0.1303938              0.0745976
      1.1903377             -0.1307889              0.3078467
      0.3594117              1.1309444              0.7434568
SP   1   1.00
      0.1267512              1.0000000              1.0000000
D    1   1.00
      0.8020000              1.0000000
D    1   1.00
      0.2005000              1.0000000
F    1   1.00
      0.5000000              1.0000000
****
C     0
S    6   1.00
   3047.5249000              0.0018347
    457.3695100              0.0140373
    103.9486900              0.0688426
     29.2101550              0.2321844
      9.2866630              0.4679413
      3.1639270              0.3623120
SP   3   1.00
      7.8682724             -0.1193324              0.0689991
      1.8812885             -0.1608542              0.3164240
      0.5442493              1.1434564              0.7443083
SP   1   1.00
      0.1687144              1.0000000              1.0000000
D    1   1.00
      1.2520000              1.0000000
D    1   1.00
      0.3130000              1.0000000
F    1   1.00
      0.8000000              1.0000000
****
N     0
S    6   1.00
   4173.5110000              0.0018348
    627.4579000              0.0139950
    142.9021000              0.0685870
     40.2343300              0.2322410
     12.8202100              0.4690700
      4.3904370              0.3604550
SP   3   1.00
     11.6263580             -0.1149610              0.0675800
      2.7162800             -0.1691180              0.3239070
      0.7722180              1.1458520              0.7408950
SP   1   1.00
      0.2120313              1.0000000              1.0000000
D    1   1.00
      1.8260000              1.0000000
D    1   1.00
      0.4565000              1.0000000
F    1   1.00
      1.0000000              1.0000000
****
O     0
S    6   1.00
   5484.6717000              0.0018311
    825.2349500              0.0139501
    188.0469600              0.0684451
     52.9645000              0.2327143
     16.8975700              0.4701930
      5.7996353              0.3585209
SP   3   1.00
     15.5396160             -0.1107775              0.0708743
      3.5999336             -0.1480263              0.3397528
      1.0137618              1.1307670              0.7271586
SP   1   1.00
      0.2700058              1.0000000              1.0000000
D    1   1.00
      2.5840000              1.0000000
D    1   1.00
      0.6460000              1.0000000
F    1   1.00
      1.4000000              1.0000000
****
F     0
S    6   1.00
   7001.7130900              0.0018196169
   1051.3660900              0.0139160796
    239.2856900              0.0684053245
     67.3974453              0.233185760
     21.5199573              0.471267439
      7.40310130             0.356618546
SP   3   1.00
     20.8479528             -0.108506975            0.0716287243
      4.80830834            -0.146451658            0.3459121030
      1.34406986             1.128688580            0.7224699570
SP   1   1.00
      0.358151393            1.0000000              1.0000000
D    1   1.00
      3.5000000              1.0000000
D    1   1.00
      0.8750000              1.0000000
F    1   1.00
      1.8500000              1.0000000
****
Al     0
S    6   1.00
  13983.1000000              0.00194267
   2098.7500000              0.0148599
    477.7050000              0.0728494
    134.3600000              0.2468300
     42.8709000              0.4872580
     14.5189000              0.3234960
SP   6   1.00
    239.6680000             -0.00292619             0.00460285
     57.4419000             -0.0374080              0.0331990
     18.2859000             -0.1144870              0.1362820
      6.5991400              0.1156350              0.3304760
      2.4904900              0.6125950              0.4491460
      0.9445400              0.3937990              0.2657040
SP   3   1.00
      1.2779000             -0.2276060             -0.0175130
      0.3975900              0.00144583             0.2445330
      0.1600950              1.0927900              0.8049340
SP   1   1.00
      0.0556577              1.0000000              1.0000000
D    1   1.00
      0.6500000              1.0000000
D    1   1.00
      0.1625000              1.0000000
F    1   1.00
      0.2500000              1.0000000
****
Si     0
S    6   1.00
  16115.9000000              0.00195948
   2425.5800000              0.01492880
    553.8670000              0.07284780
    156.3400000              0.24613000
     50.0683000              0.48591400
     17.0178000              0.32500200
SP   6   1.00
    292.7180000             -0.00278094             0.00443826
     69.8731000             -0.03571460             0.03266790
     22.3363000             -0.11498500             0.13472100
      8.1503900              0.09356340             0.32867800
      3.1345800              0.60301700             0.44964000
      1.2254300              0.41895900             0.26137200
SP   3   1.00
      1.7273800             -0.24463000            -0.01779510
      0.5729220              0.00431572             0.25353900
      0.2221920              1.09818000             0.80066900
SP   1   1.00
      0.0778369              1.00000000             1.00000000
D    1   1.00
      0.9000000              1.0000000
D    1   1.00
      0.2250000              1.0000000
F    1   1.00
      0.3200000              1.0000000
****
P     0
S    6   1.00
  19413.3000000              0.0018516
   2909.4200000              0.0142062
    661.3640000              0.0699995
    185.7590000              0.2400790
     59.1943000              0.4847620
     20.0310000              0.3352000
SP   6   1.00
    339.4780000             -0.00278217             0.00456462
     81.0101000             -0.0360499              0.03369360
     25.8780000             -0.1166310              0.13975500
      9.4522100              0.0968328              0.33936200
      3.6656600              0.6144180              0.45092100
      1.4674600              0.4037980              0.23858600
SP   3   1.00
      2.1562300             -0.2529230             -0.01776530
      0.7489970              0.0328517              0.27405800
      0.2831450              1.0812500              0.78542100
SP   1   1.00
      0.0998317              1.0000000              1.00000000
D    1   1.00
      1.1000000              1.0000000
D    1   1.00
      0.2750000              1.0000000
F    1   1.00
      0.4500000              1.0000000
****
S     0
S    6   1.00
  21917.1000000              0.0018690
   3301.4900000              0.0142300
    754.1460000              0.0696960
    212.7110000              0.2384870
     67.9896000              0.4833070
     23.0515000              0.3380740
SP   6   1.00
    423.7350000             -0.0023767              0.0040610
    100.7100000             -0.0316930              0.0306810
     32.1599000             -0.1133170              0.1304520
     11.8079000              0.0560900              0.3272050
      4.6311000              0.5922550              0.4528510
      1.8702500              0.4550060              0.2560420
SP   3   1.00
      2.6158400             -0.2503740             -0.0145110
      0.9221670              0.0669570              0.3102630
      0.3412870              1.0545100              0.7544830
SP   1   1.00
      0.1171670              1.0000000              1.0000000
D    1   1.00
      1.3000000              1.0000000
D    1   1.00
      0.3250000              1.0000000
F    1   1.00
      0.5500000              1.0000000
****
Cl     0
S    6   1.00
  25180.1000000              0.0018330
   3780.3500000              0.0140340
    860.4740000              0.0690970
    242.1450000              0.2374520
     77.3349000              0.4830340
     26.2470000              0.3398560
SP   6   1.00
    491.7650000             -0.0022974              0.0039894
    116.9840000             -0.0307140              0.0303180
     37.4153000             -0.1125280              0.1298800
     13.7834000              0.0450160              0.3279510
      5.4521500              0.5893530              0.4535270
      2.2258800              0.4652060              0.2521540
SP   3   1.00
      3.1864900             -0.2518300             -0.0142990
      1.1442700              0.0615890              0.3235720
      0.4203770              1.0601800              0.7435070
SP   1   1.00
      0.1426570              1.0000000              1.0000000
D    1   1.00
      1.5000000              1.0000000
D    1   1.00
      0.3750000              1.0000000
F    1   1.00
      0.7000000              1.0000000
****
}

set {
reference uhf
freeze_core true
e_convergence 10
d_convergence 10
dft_spherical_points 1202
dft_radial_points 99
}

e = energy('b3lyp')

print_out('Grab this energy {0}'.format(e))
--------------------------------------------------------------------------

    Molecular point group: cs

    Geometry (in Bohr), charge = 0, multiplicity = 2:

       Center              X                  Y                   Z               Mass
    ------------   -----------------  -----------------  -----------------  -----------------
         C           -0.323333520515    -0.003696544494     0.000000000000    12.000000000000
         C            0.060885011385    -1.396620600194    -2.432844660100    12.000000000000
         C            0.061526463985     2.794787773406     0.000000000000    12.000000000000
         C            0.060885011385    -1.396620600194     2.432844660100    12.000000000000
         H            2.084453174785    -1.636321283594    -2.856439787500     1.007825032230
         H           -0.767162037415    -0.379544123094    -4.026614556400     1.007825032230
         H           -0.762705204715    -3.286105646194    -2.362681561300     1.007825032230
         H            2.091757814385     3.280247719606     0.000000000000     1.007825032230
         H           -0.766766354815     3.674646864106     1.680347357400     1.007825032230
         H           -0.766766354815     3.674646864106    -1.680347357400     1.007825032230
         H            2.084453174785    -1.636321283594     2.856439787500     1.007825032230
         H           -0.762705204715    -3.286105646194     2.362681561300     1.007825032230
         H           -0.767162037415    -0.379544123094     4.026614556400     1.007825032230

  Charge       = 0
  Multiplicity = 2
  Basis Set: ANONYMOUSECE74FD1
    Blend: 6-31G_2DFP_
  Basis Set: (ANONYMOUSECE74FD1 AUX)
    Blend: DEF2-UNIVERSAL-JKFIT

    Orbital Energies [Eh]
    ---------------------

    Alpha Occupied:

       1Ap   -10.180342     2Ap   -10.167374     1App  -10.166851
       3Ap   -10.166820     4Ap    -0.797769     2App   -0.686727
       5Ap    -0.685649     6Ap    -0.530775     7Ap    -0.441125
       3App   -0.434851     8Ap    -0.434494     4App   -0.382966
       9Ap    -0.382233     5App   -0.363615     6App   -0.338230
      10Ap    -0.337760    11Ap    -0.168962

    Alpha Virtual:

      12Ap     0.076070     7App    0.133905    13Ap     0.134386
       8App    0.142399    14Ap     0.142874    15Ap     0.154876
      16Ap     0.178684     9App    0.178880    17Ap     0.203544
      10App    0.214806    11App    0.275770    18Ap     0.276201
      12App    0.399172    19Ap     0.399200    20Ap     0.403433
      13App    0.423871    21Ap     0.424332    22Ap     0.456593
      14App    0.495060    23Ap     0.495714    15App    0.512168
      24Ap     0.513986    16App    0.578688    25Ap     0.578917
      26Ap     0.591349    17App    0.591913    27Ap     0.602602
      28Ap     0.624757    18App    0.631733    19App    0.636125
      29Ap     0.636410    20App    0.663381    30Ap     0.663450
      31Ap     0.683790    21App    0.683935    32Ap     0.734993
      22App    0.824172    33Ap     0.826621    23App    0.853935
      24App    0.914771    34Ap     0.915273    25App    0.944078
      35Ap     0.944546    36Ap     0.961371    26App    0.961375
      37Ap     1.003467    27App    1.127305    38Ap     1.128940
      39Ap     1.142191    28App    1.162700    40Ap     1.163830
      41Ap     1.223347    29App    1.274154    42Ap     1.274848
      43Ap     1.279337    30App    1.324074    44Ap     1.324634
      45Ap     1.355970    31App    1.365509    46Ap     1.366533
      32App    1.392474    33App    1.403674    47Ap     1.404472
      34App    1.416927    48Ap     1.417321    35App    1.427913
      36App    1.491445    49Ap     1.499085    37App    1.542439
      50Ap     1.543221    38App    1.572380    51Ap     1.576612
      52Ap     1.669790    39App    1.738270    53Ap     1.740551
      54Ap     1.768319    55Ap     1.830355    40App    1.832508
      41App    1.971746    42App    2.017548    56Ap     2.018117
      57Ap     2.020708    43App    2.050051    58Ap     2.055319
      44App    2.737771    59Ap     2.739194    60Ap     2.790920
      45App    2.811439    61Ap     2.889484    46App    2.890324
      62Ap     2.895017    47App    2.929230    63Ap     2.929780
      48App    2.959006    49App    2.964035    64Ap     2.964725
      65Ap     3.034043    50App    3.070524    66Ap     3.072084
      51App    3.084362    52App    3.167916    67Ap     3.169693
      68Ap     3.180553    69Ap     3.284666    53App    3.285952
      54App    3.326177    70Ap     3.328163    71Ap     3.375652
      55App    3.488787    72Ap     3.491493    56App    3.514013
      73Ap     3.525255    57App    3.566945    74Ap     3.569580
      58App    3.575549    75Ap     3.665705    59App    3.667021
      76Ap     3.679615    77Ap     3.693235    60App    3.695032
      78Ap     3.775282    61App    3.778240    79Ap     3.789298
      62App    3.911246    80Ap     3.913163    81Ap     4.034474
      63App    4.110710    82Ap     4.111976    64App    4.144453
      83Ap     4.151803    84Ap     4.173262    85Ap     4.201051
      65App    4.201667    86Ap     4.205776    66App    4.211336
      87Ap     4.315277    67App    4.316649    68App    4.358926
      69App    4.424141    88Ap     4.424797    70App    4.443458
      71App    4.516276    89Ap     4.517450    72App    4.576777
      90Ap     4.579739    91Ap     4.617528    92Ap     4.709449
      73App    4.773380    93Ap     4.775822    74App    4.836902
      94Ap     4.962879    75App    5.002543    95Ap     5.003403
      96Ap     5.227921    76App    5.243245    97Ap     5.250348
      98Ap     5.353324    77App    5.357823    78App    5.479386

    Beta Occupied:

       1Ap   -10.168139     1App  -10.167601     2Ap   -10.167586
       3Ap   -10.166519     4Ap    -0.781095     2App   -0.684533
       5Ap    -0.683448     6Ap    -0.511746     3App   -0.431220
       7Ap    -0.430867     8Ap    -0.421824     4App   -0.377070
       9Ap    -0.376298     5App   -0.362597     6App   -0.333365
      10Ap    -0.332872

    Beta Virtual:

      11Ap    -0.025744    12Ap     0.077079     7App    0.134730
      13Ap     0.135346     8App    0.144322    14Ap     0.144690
      15Ap     0.163335    16Ap     0.182374     9App    0.182533
      10App    0.215035    17Ap     0.218926    11App    0.282104
      18Ap     0.282563    12App    0.400368    19Ap     0.400417
      20Ap     0.419800    13App    0.426664    21Ap     0.427163
      22Ap     0.468503    14App    0.497316    23Ap     0.497984
      15App    0.513903    24Ap     0.556327    16App    0.584274
      25Ap     0.584435    26Ap     0.597563    17App    0.598055
      27Ap     0.610024    28Ap     0.628134    18App    0.631912
      19App    0.639429    29Ap     0.639658    20App    0.666930
      30Ap     0.667025    21App    0.686486    31Ap     0.686512
      32Ap     0.757515    22App    0.829303    33Ap     0.831827
      23App    0.855290    24App    0.922728    34Ap     0.923253
      25App    0.945934    35Ap     0.953465    36Ap     0.966610
      26App    0.966743    37Ap     1.008706    27App    1.131356
      38Ap     1.132946    39Ap     1.155560    28App    1.167726
      40Ap     1.168962    41Ap     1.232317    29App    1.279749
      42Ap     1.280446    43Ap     1.285090    30App    1.329033
      44Ap     1.329654    45Ap     1.365376    31App    1.370629
      46Ap     1.371900    32App    1.393535    33App    1.407194
      47Ap     1.407894    34App    1.422018    48Ap     1.422325
      35App    1.428183    36App    1.492496    49Ap     1.509526
      37App    1.546701    50Ap     1.547768    38App    1.580403
      51Ap     1.584339    52Ap     1.674636    39App    1.744051
      53Ap     1.746291    54Ap     1.779101    55Ap     1.834258
      40App    1.836318    41App    1.972606    42App    2.023954
      56Ap     2.026959    57Ap     2.039614    43App    2.056792
      58Ap     2.062029    44App    2.746047    59Ap     2.747589
      45App    2.811851    60Ap     2.816055    61Ap     2.902337
      46App    2.902886    62Ap     2.924671    47App    2.931858
      63Ap     2.932131    48App    2.960068    49App    2.968650
      64Ap     2.969201    65Ap     3.041975    50App    3.080364
      66Ap     3.082046    51App    3.086203    52App    3.183738
      67Ap     3.185366    68Ap     3.188228    69Ap     3.289561
      53App    3.290657    54App    3.329994    70Ap     3.331956
      71Ap     3.383472    55App    3.491548    72Ap     3.494183
      56App    3.512391    73Ap     3.528311    57App    3.574438
      58App    3.581229    74Ap     3.582942    75Ap     3.670437
      59App    3.671791    76Ap     3.692925    77Ap     3.724876
      60App    3.726618    78Ap     3.779892    61App    3.782751
      79Ap     3.817771    62App    3.921051    80Ap     3.922994
      81Ap     4.045360    63App    4.117290    82Ap     4.118996
      64App    4.151947    83Ap     4.158760    84Ap     4.187322
      65App    4.207594    85Ap     4.208102    86Ap     4.212603
      66App    4.215852    87Ap     4.322819    67App    4.323985
      68App    4.362293    69App    4.432436    88Ap     4.432933
      70App    4.446339    71App    4.524104    89Ap     4.525202
      72App    4.587343    90Ap     4.590373    91Ap     4.624719
      92Ap     4.719794    73App    4.780328    93Ap     4.782780
      74App    4.839820    94Ap     4.967675    75App    5.006566
      95Ap     5.007459    96Ap     5.233639    76App    5.245036
      97Ap     5.252128    98Ap     5.359833    77App    5.364270
      78App    5.481707

    Final Occupation by Irrep:
             Ap   App
    DOCC [    10,    6 ]
    SOCC [     1,    0 ]

  @DF-UKS Final Energy:  -157.81305001276289

   => Energetics <=

    Nuclear Repulsion Energy =            125.3949037784509528
    One-Electron Energy =                -458.7494153675054918
    Two-Electron Energy =                 195.8486120393688736
    DFT Exchange-Correlation Energy =     -20.3071504630772104
    Empirical Dispersion Energy =           0.0000000000000000
    VV10 Nonlocal Energy =                  0.0000000000000000
    Total Energy =                       -157.8130500127628864

  UHF NO Occupations:
  HONO-2 :    9 Ap 1.9996008
  HONO-1 :   10 Ap 1.9989804
  HONO-0 :   11 Ap 1.0000000
  LUNO+0 :   12 Ap 0.0010196
  LUNO+1 :   13 Ap 0.0003992
  LUNO+2 :   14 Ap 0.0001979
  LUNO+3 :    7App 0.0001972

Computation Completed

Properties will be evaluated at   0.000000,   0.000000,   0.000000 [a0]

Properties computed using the SCF density matrix

  Nuclear Dipole Moment: [e a0]
     X:     0.8272      Y:     0.0127      Z:     0.0000

  Electronic Dipole Moment: [e a0]
     X:    -0.7493      Y:    -0.0159      Z:     0.0000

  Dipole Moment: [e a0]
     X:     0.0779      Y:    -0.0032      Z:     0.0000     Total:     0.0780

  Dipole Moment: [D]
     X:     0.1980      Y:    -0.0081      Z:     0.0000     Total:     0.1982

*** tstop() called on n054 at Fri Nov  5 15:15:09 2021
Module time:
	user time   =     548.12 seconds =       9.14 minutes
	system time =      12.09 seconds =       0.20 minutes
	total time  =        141 seconds =       2.35 minutes
Total time:
	user time   =     548.12 seconds =       9.14 minutes
	system time =      12.09 seconds =       0.20 minutes
	total time  =        141 seconds =       2.35 minutes
Grab this energy -157.8130500127629
    Psi4 stopped on: Friday, 05 November 2021 03:15PM
    Psi4 wall time for execution: 0:02:20.89

*** Psi4 exiting successfully. Buy a developer a beer!
