                               Psi4 1.4a2.dev629

  ==> Input File <==

--------------------------------------------------------------------------
import os
memory 14 GB

molecule {
 C   -0.3233396170   -0.0000006092    0.0006578046
 C    0.0610170039   -1.4027158221   -2.4276941300
 C    0.0610217302    2.8017607343    0.0018719678
 C    0.0612631437   -1.3990377048    2.4250670419
 H    2.0877953084   -1.6452317341   -2.8460934263
 H   -0.7673917165   -0.3877187172   -4.0257723639
 H   -0.7644102066   -3.2899069933   -2.3491703190
 H    2.0867999506    3.2881041910    0.0033104342
 H   -0.7625032334    3.6793595738    1.6740174429
 H   -0.7687917314    3.6811439303   -1.6789835246
 H    2.0860758108   -1.6429649939    2.8487891152
 H   -0.7667259699   -3.2940915705    2.3488117773
 H   -0.7634183495   -0.3887245978    4.0251881798
units bohr
0 2
}

basis {

assign 6-31g_2dfp_

[ 6-31g_2dfp_ ]

spherical

!----------------------------------------------------------------------
! Basis Set Exchange
! Version v0.8.13
! https://www.basissetexchange.org
!----------------------------------------------------------------------
!   Basis set: 6-31G(2df,p)
! Description: 6-31G(2df,p)
!        Role: orbital
!     Version: 0  (Data from the original Basis Set Exchange)
!----------------------------------------------------------------------

****
H     0
S    3   1.00
     18.7311370              0.03349460
      2.8253937              0.23472695
      0.6401217              0.81375733
S    1   1.00
      0.1612778              1.00000000
P    1   1.00
      1.5000000              1.0000000
P    1   1.00
      0.3750000              1.0000000
****
B     0
S    6   1.00
   2068.8823000              0.0018663
    310.6495700              0.0142515
     70.6830330              0.0695516
     19.8610800              0.2325729
      6.2993048              0.4670787
      2.1270270              0.3634314
SP   3   1.00
      4.7279710             -0.1303938              0.0745976
      1.1903377             -0.1307889              0.3078467
      0.3594117              1.1309444              0.7434568
SP   1   1.00
      0.1267512              1.0000000              1.0000000
D    1   1.00
      0.8020000              1.0000000
D    1   1.00
      0.2005000              1.0000000
F    1   1.00
      0.5000000              1.0000000
****
C     0
S    6   1.00
   3047.5249000              0.0018347
    457.3695100              0.0140373
    103.9486900              0.0688426
     29.2101550              0.2321844
      9.2866630              0.4679413
      3.1639270              0.3623120
SP   3   1.00
      7.8682724             -0.1193324              0.0689991
      1.8812885             -0.1608542              0.3164240
      0.5442493              1.1434564              0.7443083
SP   1   1.00
      0.1687144              1.0000000              1.0000000
D    1   1.00
      1.2520000              1.0000000
D    1   1.00
      0.3130000              1.0000000
F    1   1.00
      0.8000000              1.0000000
****
N     0
S    6   1.00
   4173.5110000              0.0018348
    627.4579000              0.0139950
    142.9021000              0.0685870
     40.2343300              0.2322410
     12.8202100              0.4690700
      4.3904370              0.3604550
SP   3   1.00
     11.6263580             -0.1149610              0.0675800
      2.7162800             -0.1691180              0.3239070
      0.7722180              1.1458520              0.7408950
SP   1   1.00
      0.2120313              1.0000000              1.0000000
D    1   1.00
      1.8260000              1.0000000
D    1   1.00
      0.4565000              1.0000000
F    1   1.00
      1.0000000              1.0000000
****
O     0
S    6   1.00
   5484.6717000              0.0018311
    825.2349500              0.0139501
    188.0469600              0.0684451
     52.9645000              0.2327143
     16.8975700              0.4701930
      5.7996353              0.3585209
SP   3   1.00
     15.5396160             -0.1107775              0.0708743
      3.5999336             -0.1480263              0.3397528
      1.0137618              1.1307670              0.7271586
SP   1   1.00
      0.2700058              1.0000000              1.0000000
D    1   1.00
      2.5840000              1.0000000
D    1   1.00
      0.6460000              1.0000000
F    1   1.00
      1.4000000              1.0000000
****
F     0
S    6   1.00
   7001.7130900              0.0018196169
   1051.3660900              0.0139160796
    239.2856900              0.0684053245
     67.3974453              0.233185760
     21.5199573              0.471267439
      7.40310130             0.356618546
SP   3   1.00
     20.8479528             -0.108506975            0.0716287243
      4.80830834            -0.146451658            0.3459121030
      1.34406986             1.128688580            0.7224699570
SP   1   1.00
      0.358151393            1.0000000              1.0000000
D    1   1.00
      3.5000000              1.0000000
D    1   1.00
      0.8750000              1.0000000
F    1   1.00
      1.8500000              1.0000000
****
Al     0
S    6   1.00
  13983.1000000              0.00194267
   2098.7500000              0.0148599
    477.7050000              0.0728494
    134.3600000              0.2468300
     42.8709000              0.4872580
     14.5189000              0.3234960
SP   6   1.00
    239.6680000             -0.00292619             0.00460285
     57.4419000             -0.0374080              0.0331990
     18.2859000             -0.1144870              0.1362820
      6.5991400              0.1156350              0.3304760
      2.4904900              0.6125950              0.4491460
      0.9445400              0.3937990              0.2657040
SP   3   1.00
      1.2779000             -0.2276060             -0.0175130
      0.3975900              0.00144583             0.2445330
      0.1600950              1.0927900              0.8049340
SP   1   1.00
      0.0556577              1.0000000              1.0000000
D    1   1.00
      0.6500000              1.0000000
D    1   1.00
      0.1625000              1.0000000
F    1   1.00
      0.2500000              1.0000000
****
Si     0
S    6   1.00
  16115.9000000              0.00195948
   2425.5800000              0.01492880
    553.8670000              0.07284780
    156.3400000              0.24613000
     50.0683000              0.48591400
     17.0178000              0.32500200
SP   6   1.00
    292.7180000             -0.00278094             0.00443826
     69.8731000             -0.03571460             0.03266790
     22.3363000             -0.11498500             0.13472100
      8.1503900              0.09356340             0.32867800
      3.1345800              0.60301700             0.44964000
      1.2254300              0.41895900             0.26137200
SP   3   1.00
      1.7273800             -0.24463000            -0.01779510
      0.5729220              0.00431572             0.25353900
      0.2221920              1.09818000             0.80066900
SP   1   1.00
      0.0778369              1.00000000             1.00000000
D    1   1.00
      0.9000000              1.0000000
D    1   1.00
      0.2250000              1.0000000
F    1   1.00
      0.3200000              1.0000000
****
P     0
S    6   1.00
  19413.3000000              0.0018516
   2909.4200000              0.0142062
    661.3640000              0.0699995
    185.7590000              0.2400790
     59.1943000              0.4847620
     20.0310000              0.3352000
SP   6   1.00
    339.4780000             -0.00278217             0.00456462
     81.0101000             -0.0360499              0.03369360
     25.8780000             -0.1166310              0.13975500
      9.4522100              0.0968328              0.33936200
      3.6656600              0.6144180              0.45092100
      1.4674600              0.4037980              0.23858600
SP   3   1.00
      2.1562300             -0.2529230             -0.01776530
      0.7489970              0.0328517              0.27405800
      0.2831450              1.0812500              0.78542100
SP   1   1.00
      0.0998317              1.0000000              1.00000000
D    1   1.00
      1.1000000              1.0000000
D    1   1.00
      0.2750000              1.0000000
F    1   1.00
      0.4500000              1.0000000
****
S     0
S    6   1.00
  21917.1000000              0.0018690
   3301.4900000              0.0142300
    754.1460000              0.0696960
    212.7110000              0.2384870
     67.9896000              0.4833070
     23.0515000              0.3380740
SP   6   1.00
    423.7350000             -0.0023767              0.0040610
    100.7100000             -0.0316930              0.0306810
     32.1599000             -0.1133170              0.1304520
     11.8079000              0.0560900              0.3272050
      4.6311000              0.5922550              0.4528510
      1.8702500              0.4550060              0.2560420
SP   3   1.00
      2.6158400             -0.2503740             -0.0145110
      0.9221670              0.0669570              0.3102630
      0.3412870              1.0545100              0.7544830
SP   1   1.00
      0.1171670              1.0000000              1.0000000
D    1   1.00
      1.3000000              1.0000000
D    1   1.00
      0.3250000              1.0000000
F    1   1.00
      0.5500000              1.0000000
****
Cl     0
S    6   1.00
  25180.1000000              0.0018330
   3780.3500000              0.0140340
    860.4740000              0.0690970
    242.1450000              0.2374520
     77.3349000              0.4830340
     26.2470000              0.3398560
SP   6   1.00
    491.7650000             -0.0022974              0.0039894
    116.9840000             -0.0307140              0.0303180
     37.4153000             -0.1125280              0.1298800
     13.7834000              0.0450160              0.3279510
      5.4521500              0.5893530              0.4535270
      2.2258800              0.4652060              0.2521540
SP   3   1.00
      3.1864900             -0.2518300             -0.0142990
      1.1442700              0.0615890              0.3235720
      0.4203770              1.0601800              0.7435070
SP   1   1.00
      0.1426570              1.0000000              1.0000000
D    1   1.00
      1.5000000              1.0000000
D    1   1.00
      0.3750000              1.0000000
F    1   1.00
      0.7000000              1.0000000
****
}

set {
reference uhf
freeze_core true
e_convergence 10
d_convergence 10
dft_spherical_points 1202
dft_radial_points 99
}

e = energy('b3lyp')

print_out('Grab this energy {0}'.format(e))
--------------------------------------------------------------------------

    Molecular point group: c1

    Geometry (in Bohr), charge = 0, multiplicity = 2:

       Center              X                  Y                   Z               Mass
    ------------   -----------------  -----------------  -----------------  -----------------
         C           -0.323340049527    -0.000001450701     0.000676548307    12.000000000000
         C            0.061016571373    -1.402716663601    -2.427675386293    12.000000000000
         C            0.061021297673     2.801759892799     0.001890711507    12.000000000000
         C            0.061262711173    -1.399038546301     2.425085785607    12.000000000000
         H            2.087794875873    -1.645232575601    -2.846074682593     1.007825032230
         H           -0.767392149027    -0.387719558701    -4.025753620193     1.007825032230
         H           -0.764410639127    -3.289907834801    -2.349151575293     1.007825032230
         H            2.086799518073     3.288103349499     0.003329177907     1.007825032230
         H           -0.762503665927     3.679358732299     1.674036186607     1.007825032230
         H           -0.768792163927     3.681143088799    -1.678964780893     1.007825032230
         H            2.086075378273    -1.642965835401     2.848807858907     1.007825032230
         H           -0.766726402427    -3.294092412001     2.348830521007     1.007825032230
         H           -0.763418782027    -0.388725439301     4.025206923507     1.007825032230

  Charge       = 0
  Multiplicity = 2
  Basis Set: ANONYMOUS6B4EC579
    Blend: 6-31G_2DFP_
  Basis Set: (ANONYMOUS6B4EC579 AUX)
    Blend: DEF2-UNIVERSAL-JKFIT

    Orbital Energies [Eh]
    ---------------------

    Alpha Occupied:

       1A    -10.180342     2A    -10.167063     3A    -10.167018
       4A    -10.166963     5A     -0.797767     6A     -0.686271
       7A     -0.686105     8A     -0.530779     9A     -0.441127
      10A     -0.434938    11A     -0.434400    12A     -0.382667
      13A     -0.382532    14A     -0.363617    15A     -0.338041
      16A     -0.337950    17A     -0.168961

    Alpha Virtual:

      18A      0.076070    19A      0.134023    20A      0.134286
      21A      0.142356    22A      0.142894    23A      0.154884
      24A      0.178768    25A      0.178790    26A      0.203545
      27A      0.214803    28A      0.275652    29A      0.276321
      30A      0.398987    31A      0.399459    32A      0.403351
      33A      0.423980    34A      0.424216    35A      0.456594
      36A      0.495361    37A      0.495418    38A      0.512161
      39A      0.513981    40A      0.578720    41A      0.578910
      42A      0.591550    43A      0.591715    44A      0.602574
      45A      0.624704    46A      0.631772    47A      0.635829
      48A      0.636725    49A      0.663139    50A      0.663682
      51A      0.683644    52A      0.684084    53A      0.734993
      54A      0.825210    55A      0.825604    56A      0.853915
      57A      0.914827    58A      0.915225    59A      0.944125
      60A      0.944601    61A      0.961180    62A      0.961413
      63A      1.003455    64A      1.127900    65A      1.128314
      66A      1.142240    67A      1.163041    68A      1.163494
      69A      1.223326    70A      1.273925    71A      1.275015
      72A      1.279392    73A      1.324079    74A      1.324629
      75A      1.355992    76A      1.365599    77A      1.366506
      78A      1.392428    79A      1.403926    80A      1.404190
      81A      1.416560    82A      1.417653    83A      1.427911
      84A      1.491497    85A      1.499071    86A      1.542784
      87A      1.542885    88A      1.574046    89A      1.574840
      90A      1.669820    91A      1.738855    92A      1.739996
      93A      1.768315    94A      1.830109    95A      1.832667
      96A      1.971752    97A      2.017589    98A      2.018538
      99A      2.020291   100A      2.051431   101A      2.053854
     102A      2.738423   103A      2.738544   104A      2.790925
     105A      2.811429   106A      2.889722   107A      2.890176
     108A      2.894945   109A      2.929413   110A      2.929582
     111A      2.958974   112A      2.964253   113A      2.964525
     114A      3.034013   115A      3.070581   116A      3.071941
     117A      3.084418   118A      3.168160   119A      3.169369
     120A      3.180629   121A      3.285157   122A      3.285455
     123A      3.326596   124A      3.327733   125A      3.375620
     126A      3.490102   127A      3.490208   128A      3.514024
     129A      3.525323   130A      3.568043   131A      3.568749
     132A      3.575118   133A      3.666202   134A      3.666596
     135A      3.679665   136A      3.693770   137A      3.694486
     138A      3.776495   139A      3.777079   140A      3.789135
     141A      3.912057   142A      3.912397   143A      4.034449
     144A      4.110630   145A      4.111996   146A      4.148087
     147A      4.148144   148A      4.173268   149A      4.202298
     150A      4.202908   151A      4.203643   152A      4.210913
     153A      4.315866   154A      4.316024   155A      4.358996
     156A      4.422966   157A      4.425913   158A      4.443524
     159A      4.515131   160A      4.518533   161A      4.578224
     162A      4.578295   163A      4.617577   164A      4.709424
     165A      4.773929   166A      4.775269   167A      4.836913
     168A      4.962834   169A      5.002639   170A      5.003324
     171A      5.227539   172A      5.246765   173A      5.247325
     174A      5.354195   175A      5.356849   176A      5.479413

    Beta Occupied:

       1A    -10.167822     2A    -10.167775     3A    -10.167727
       4A    -10.166519     5A     -0.781092     6A     -0.684081
       7A     -0.683900     8A     -0.511750     9A     -0.431314
      10A     -0.430771    11A     -0.421819    12A     -0.376776
      13A     -0.376593    14A     -0.362600    15A     -0.333170
      16A     -0.333068

    Beta Virtual:

      17A     -0.025743    18A      0.077079    19A      0.134908
      20A      0.135179    21A      0.144217    22A      0.144777
      23A      0.163342    24A      0.182427    25A      0.182473
      26A      0.215033    27A      0.218928    28A      0.282009
      29A      0.282660    30A      0.400152    31A      0.400639
      32A      0.419792    33A      0.426792    34A      0.427026
      35A      0.468502    36A      0.497623    37A      0.497678
      38A      0.513896    39A      0.556325    40A      0.584267
      41A      0.584464    42A      0.597706    43A      0.597917
      44A      0.609999    45A      0.628080    46A      0.631928
      47A      0.639139    48A      0.639985    49A      0.666712
      50A      0.667237    51A      0.686313    52A      0.686684
      53A      0.757517    54A      0.830396    55A      0.830756
      56A      0.855269    57A      0.922820    58A      0.923174
      59A      0.945961    60A      0.953525    61A      0.966473
      62A      0.966736    63A      1.008695    64A      1.131932
      65A      1.132347    66A      1.155610    67A      1.168091
      68A      1.168590    69A      1.232298    70A      1.279499
      71A      1.280631    72A      1.285149    73A      1.329083
      74A      1.329602    75A      1.365407    76A      1.370932
      77A      1.371658    78A      1.393493    79A      1.407461
      80A      1.407587    81A      1.421638    82A      1.422666
      83A      1.428184    84A      1.492546    85A      1.509514
      86A      1.547214    87A      1.547273    88A      1.581909
      89A      1.582717    90A      1.674668    91A      1.744608
      92A      1.745769    93A      1.779093    94A      1.833969
      95A      1.836517    96A      1.972613    97A      2.024343
      98A      2.026552    99A      2.039702   100A      2.058132
     101A      2.060582   102A      2.746726   103A      2.746914
     104A      2.811840   105A      2.816060   106A      2.902392
     107A      2.902886   108A      2.924648   109A      2.931955
     110A      2.932004   111A      2.960044   112A      2.968770
     113A      2.969088   114A      3.041948   115A      3.080459
     116A      3.081795   117A      3.086324   118A      3.183879
     119A      3.185037   120A      3.188425   121A      3.289919
     122A      3.290292   123A      3.330373   124A      3.331562
     125A      3.383439   126A      3.492798   127A      3.492973
     128A      3.512390   129A      3.528369   130A      3.574976
     131A      3.581322   132A      3.582150   133A      3.670793
     134A      3.671509   135A      3.692950   136A      3.725579
     137A      3.725941   138A      3.780949   139A      3.781682
     140A      3.817675   141A      3.921990   142A      3.922096
     143A      4.045337   144A      4.117138   145A      4.119127
     146A      4.155006   147A      4.155645   148A      4.187311
     149A      4.208605   150A      4.209313   151A      4.210778
     152A      4.215389   153A      4.323245   154A      4.323529
     155A      4.362357   156A      4.431232   157A      4.434073
     158A      4.446414   159A      4.522918   160A      4.526323
     161A      4.588783   162A      4.588938   163A      4.624772
     164A      4.719766   165A      4.780891   166A      4.782216
     167A      4.839829   168A      4.967628   169A      5.006691
     170A      5.007351   171A      5.233139   172A      5.248554
     173A      5.249226   174A      5.360662   175A      5.363336
     176A      5.481736

    Final Occupation by Irrep:
              A
    DOCC [    16 ]
    SOCC [     1 ]

  @DF-UKS Final Energy:  -157.81305627448660

   => Energetics <=

    Nuclear Repulsion Energy =            125.3946558578212205
    One-Electron Energy =                -458.7489333194253049
    Two-Electron Energy =                 195.8483686985474606
    DFT Exchange-Correlation Energy =     -20.3071475114300135
    Empirical Dispersion Energy =           0.0000000000000000
    VV10 Nonlocal Energy =                  0.0000000000000000
    Total Energy =                       -157.8130562744865983

  UHF NO Occupations:
  HONO-2 :   15  A 1.9996009
  HONO-1 :   16  A 1.9989805
  HONO-0 :   17  A 1.0000000
  LUNO+0 :   18  A 0.0010195
  LUNO+1 :   19  A 0.0003991
  LUNO+2 :   20  A 0.0001979
  LUNO+3 :   21  A 0.0001972

Computation Completed

Properties will be evaluated at   0.000000,   0.000000,   0.000000 [a0]

Properties computed using the SCF density matrix

  Nuclear Dipole Moment: [e a0]
     X:     0.8272      Y:    -0.0000      Z:     0.0001

  Electronic Dipole Moment: [e a0]
     X:    -0.7493      Y:     0.0000      Z:     0.0015

  Dipole Moment: [e a0]
     X:     0.0779      Y:     0.0000      Z:     0.0017     Total:     0.0779

  Dipole Moment: [D]
     X:     0.1981      Y:     0.0000      Z:     0.0043     Total:     0.1981

*** tstop() called on n082 at Fri Nov  5 13:10:07 2021
Module time:
	user time   =     494.29 seconds =       8.24 minutes
	system time =       4.47 seconds =       0.07 minutes
	total time  =        125 seconds =       2.08 minutes
Total time:
	user time   =     494.29 seconds =       8.24 minutes
	system time =       4.47 seconds =       0.07 minutes
	total time  =        125 seconds =       2.08 minutes
Grab this energy -157.8130562744866
    Psi4 stopped on: Friday, 05 November 2021 01:10PM
    Psi4 wall time for execution: 0:02:05.42

*** Psi4 exiting successfully. Buy a developer a beer!
