                               Psi4 1.4a2.dev629

  ==> Input File <==

--------------------------------------------------------------------------
import os
memory 14 GB

molecule {
 C   -0.3233369247   -0.0000031457   -0.0030186233
 C    0.0616546973   -1.4006196377   -2.4252895931
 C    0.0610223253    2.8017563501    0.0006473383
 C    0.0606264636   -1.4011333386    2.4274739589
 H    2.0870583954   -1.6400780077   -2.8452743969
 H   -0.7657611511   -0.3906034732   -4.0276012321
 H   -0.7647025118   -3.2903218975   -2.3470638387
 H    2.0867912875    3.2881100627   -0.0047935316
 H   -0.7644187622    3.6747189170    1.6770062847
 H   -0.7668698625    3.6857858418   -1.6759797241
 H    2.0868094505   -1.6481197906    2.8496160226
 H   -0.7664369123   -3.2936746037    2.3509166615
 H   -0.7650443717   -0.3858415906    4.0233606738
units bohr
0 2
}

basis {

assign 6-31g_2dfp_

[ 6-31g_2dfp_ ]

spherical

!----------------------------------------------------------------------
! Basis Set Exchange
! Version v0.8.13
! https://www.basissetexchange.org
!----------------------------------------------------------------------
!   Basis set: 6-31G(2df,p)
! Description: 6-31G(2df,p)
!        Role: orbital
!     Version: 0  (Data from the original Basis Set Exchange)
!----------------------------------------------------------------------

****
H     0
S    3   1.00
     18.7311370              0.03349460
      2.8253937              0.23472695
      0.6401217              0.81375733
S    1   1.00
      0.1612778              1.00000000
P    1   1.00
      1.5000000              1.0000000
P    1   1.00
      0.3750000              1.0000000
****
B     0
S    6   1.00
   2068.8823000              0.0018663
    310.6495700              0.0142515
     70.6830330              0.0695516
     19.8610800              0.2325729
      6.2993048              0.4670787
      2.1270270              0.3634314
SP   3   1.00
      4.7279710             -0.1303938              0.0745976
      1.1903377             -0.1307889              0.3078467
      0.3594117              1.1309444              0.7434568
SP   1   1.00
      0.1267512              1.0000000              1.0000000
D    1   1.00
      0.8020000              1.0000000
D    1   1.00
      0.2005000              1.0000000
F    1   1.00
      0.5000000              1.0000000
****
C     0
S    6   1.00
   3047.5249000              0.0018347
    457.3695100              0.0140373
    103.9486900              0.0688426
     29.2101550              0.2321844
      9.2866630              0.4679413
      3.1639270              0.3623120
SP   3   1.00
      7.8682724             -0.1193324              0.0689991
      1.8812885             -0.1608542              0.3164240
      0.5442493              1.1434564              0.7443083
SP   1   1.00
      0.1687144              1.0000000              1.0000000
D    1   1.00
      1.2520000              1.0000000
D    1   1.00
      0.3130000              1.0000000
F    1   1.00
      0.8000000              1.0000000
****
N     0
S    6   1.00
   4173.5110000              0.0018348
    627.4579000              0.0139950
    142.9021000              0.0685870
     40.2343300              0.2322410
     12.8202100              0.4690700
      4.3904370              0.3604550
SP   3   1.00
     11.6263580             -0.1149610              0.0675800
      2.7162800             -0.1691180              0.3239070
      0.7722180              1.1458520              0.7408950
SP   1   1.00
      0.2120313              1.0000000              1.0000000
D    1   1.00
      1.8260000              1.0000000
D    1   1.00
      0.4565000              1.0000000
F    1   1.00
      1.0000000              1.0000000
****
O     0
S    6   1.00
   5484.6717000              0.0018311
    825.2349500              0.0139501
    188.0469600              0.0684451
     52.9645000              0.2327143
     16.8975700              0.4701930
      5.7996353              0.3585209
SP   3   1.00
     15.5396160             -0.1107775              0.0708743
      3.5999336             -0.1480263              0.3397528
      1.0137618              1.1307670              0.7271586
SP   1   1.00
      0.2700058              1.0000000              1.0000000
D    1   1.00
      2.5840000              1.0000000
D    1   1.00
      0.6460000              1.0000000
F    1   1.00
      1.4000000              1.0000000
****
F     0
S    6   1.00
   7001.7130900              0.0018196169
   1051.3660900              0.0139160796
    239.2856900              0.0684053245
     67.3974453              0.233185760
     21.5199573              0.471267439
      7.40310130             0.356618546
SP   3   1.00
     20.8479528             -0.108506975            0.0716287243
      4.80830834            -0.146451658            0.3459121030
      1.34406986             1.128688580            0.7224699570
SP   1   1.00
      0.358151393            1.0000000              1.0000000
D    1   1.00
      3.5000000              1.0000000
D    1   1.00
      0.8750000              1.0000000
F    1   1.00
      1.8500000              1.0000000
****
Al     0
S    6   1.00
  13983.1000000              0.00194267
   2098.7500000              0.0148599
    477.7050000              0.0728494
    134.3600000              0.2468300
     42.8709000              0.4872580
     14.5189000              0.3234960
SP   6   1.00
    239.6680000             -0.00292619             0.00460285
     57.4419000             -0.0374080              0.0331990
     18.2859000             -0.1144870              0.1362820
      6.5991400              0.1156350              0.3304760
      2.4904900              0.6125950              0.4491460
      0.9445400              0.3937990              0.2657040
SP   3   1.00
      1.2779000             -0.2276060             -0.0175130
      0.3975900              0.00144583             0.2445330
      0.1600950              1.0927900              0.8049340
SP   1   1.00
      0.0556577              1.0000000              1.0000000
D    1   1.00
      0.6500000              1.0000000
D    1   1.00
      0.1625000              1.0000000
F    1   1.00
      0.2500000              1.0000000
****
Si     0
S    6   1.00
  16115.9000000              0.00195948
   2425.5800000              0.01492880
    553.8670000              0.07284780
    156.3400000              0.24613000
     50.0683000              0.48591400
     17.0178000              0.32500200
SP   6   1.00
    292.7180000             -0.00278094             0.00443826
     69.8731000             -0.03571460             0.03266790
     22.3363000             -0.11498500             0.13472100
      8.1503900              0.09356340             0.32867800
      3.1345800              0.60301700             0.44964000
      1.2254300              0.41895900             0.26137200
SP   3   1.00
      1.7273800             -0.24463000            -0.01779510
      0.5729220              0.00431572             0.25353900
      0.2221920              1.09818000             0.80066900
SP   1   1.00
      0.0778369              1.00000000             1.00000000
D    1   1.00
      0.9000000              1.0000000
D    1   1.00
      0.2250000              1.0000000
F    1   1.00
      0.3200000              1.0000000
****
P     0
S    6   1.00
  19413.3000000              0.0018516
   2909.4200000              0.0142062
    661.3640000              0.0699995
    185.7590000              0.2400790
     59.1943000              0.4847620
     20.0310000              0.3352000
SP   6   1.00
    339.4780000             -0.00278217             0.00456462
     81.0101000             -0.0360499              0.03369360
     25.8780000             -0.1166310              0.13975500
      9.4522100              0.0968328              0.33936200
      3.6656600              0.6144180              0.45092100
      1.4674600              0.4037980              0.23858600
SP   3   1.00
      2.1562300             -0.2529230             -0.01776530
      0.7489970              0.0328517              0.27405800
      0.2831450              1.0812500              0.78542100
SP   1   1.00
      0.0998317              1.0000000              1.00000000
D    1   1.00
      1.1000000              1.0000000
D    1   1.00
      0.2750000              1.0000000
F    1   1.00
      0.4500000              1.0000000
****
S     0
S    6   1.00
  21917.1000000              0.0018690
   3301.4900000              0.0142300
    754.1460000              0.0696960
    212.7110000              0.2384870
     67.9896000              0.4833070
     23.0515000              0.3380740
SP   6   1.00
    423.7350000             -0.0023767              0.0040610
    100.7100000             -0.0316930              0.0306810
     32.1599000             -0.1133170              0.1304520
     11.8079000              0.0560900              0.3272050
      4.6311000              0.5922550              0.4528510
      1.8702500              0.4550060              0.2560420
SP   3   1.00
      2.6158400             -0.2503740             -0.0145110
      0.9221670              0.0669570              0.3102630
      0.3412870              1.0545100              0.7544830
SP   1   1.00
      0.1171670              1.0000000              1.0000000
D    1   1.00
      1.3000000              1.0000000
D    1   1.00
      0.3250000              1.0000000
F    1   1.00
      0.5500000              1.0000000
****
Cl     0
S    6   1.00
  25180.1000000              0.0018330
   3780.3500000              0.0140340
    860.4740000              0.0690970
    242.1450000              0.2374520
     77.3349000              0.4830340
     26.2470000              0.3398560
SP   6   1.00
    491.7650000             -0.0022974              0.0039894
    116.9840000             -0.0307140              0.0303180
     37.4153000             -0.1125280              0.1298800
     13.7834000              0.0450160              0.3279510
      5.4521500              0.5893530              0.4535270
      2.2258800              0.4652060              0.2521540
SP   3   1.00
      3.1864900             -0.2518300             -0.0142990
      1.1442700              0.0615890              0.3235720
      0.4203770              1.0601800              0.7435070
SP   1   1.00
      0.1426570              1.0000000              1.0000000
D    1   1.00
      1.5000000              1.0000000
D    1   1.00
      0.3750000              1.0000000
F    1   1.00
      0.7000000              1.0000000
****
}

set {
reference uhf
freeze_core true
e_convergence 10
d_convergence 10
dft_spherical_points 1202
dft_radial_points 99
}

e = energy('b3lyp')

print_out('Grab this energy {0}'.format(e))
--------------------------------------------------------------------------

    Molecular point group: c1

    Geometry (in Bohr), charge = 0, multiplicity = 2:

       Center              X                  Y                   Z               Mass
    ------------   -----------------  -----------------  -----------------  -----------------
         C           -0.323338185573    -0.000002760270    -0.002982621316    12.000000000000
         C            0.061653436427    -1.400619252270    -2.425253591116    12.000000000000
         C            0.061021064427     2.801756735530     0.000683340284    12.000000000000
         C            0.060625202727    -1.401132953170     2.427509960884    12.000000000000
         H            2.087057134527    -1.640077622270    -2.845238394916     1.007825032230
         H           -0.765762411973    -0.390603087770    -4.027565230116     1.007825032230
         H           -0.764703772673    -3.290321512070    -2.347027836716     1.007825032230
         H            2.086790026627     3.288110448130    -0.004757529616     1.007825032230
         H           -0.764420023073     3.674719302430     1.677042286684     1.007825032230
         H           -0.766871123373     3.685786227230    -1.675943722116     1.007825032230
         H            2.086808189627    -1.648119405170     2.849652024584     1.007825032230
         H           -0.766438173173    -3.293674218270     2.350952663484     1.007825032230
         H           -0.765045632573    -0.385841205170     4.023396675784     1.007825032230

  Charge       = 0
  Multiplicity = 2
  Basis Set: ANONYMOUSEA279731
    Blend: 6-31G_2DFP_
  Basis Set: (ANONYMOUSEA279731 AUX)
    Blend: DEF2-UNIVERSAL-JKFIT

    Orbital Energies [Eh]
    ---------------------

    Alpha Occupied:

       1A    -10.180342     2A    -10.167148     3A    -10.167016
       4A    -10.166881     5A     -0.797768     6A     -0.686388
       7A     -0.685986     8A     -0.530776     9A     -0.441136
      10A     -0.434729    11A     -0.434606    12A     -0.382674
      13A     -0.382527    14A     -0.363607    15A     -0.338358
      16A     -0.337639    17A     -0.168960

    Alpha Virtual:

      18A      0.076072    19A      0.134087    20A      0.134226
      21A      0.142622    22A      0.142628    23A      0.154879
      24A      0.178687    25A      0.178867    26A      0.203546
      27A      0.214807    28A      0.275591    29A      0.276380
      30A      0.399080    31A      0.399369    32A      0.403350
      33A      0.424039    34A      0.424159    35A      0.456592
      36A      0.495295    37A      0.495484    38A      0.512159
      39A      0.513979    40A      0.578484    41A      0.579145
      42A      0.591317    43A      0.591942    44A      0.602579
      45A      0.624750    46A      0.631778    47A      0.636217
      48A      0.636299    49A      0.663355    50A      0.663468
      51A      0.683836    52A      0.683872    53A      0.734994
      54A      0.825188    55A      0.825625    56A      0.853915
      57A      0.914984    58A      0.915052    59A      0.944123
      60A      0.944618    61A      0.960669    62A      0.961921
      63A      1.003459    64A      1.127870    65A      1.128335
      66A      1.142213    67A      1.163154    68A      1.163404
      69A      1.223329    70A      1.274155    71A      1.274824
      72A      1.279348    73A      1.324301    74A      1.324408
      75A      1.355995    76A      1.365981    77A      1.366131
      78A      1.392403    79A      1.403518    80A      1.404626
      81A      1.416451    82A      1.417772    83A      1.427906
      84A      1.491498    85A      1.499080    86A      1.542726
      87A      1.542930    88A      1.574123    89A      1.574772
      90A      1.669821    91A      1.738927    92A      1.739889
      93A      1.768339    94A      1.830985    95A      1.831830
      96A      1.971733    97A      2.017689    98A      2.018892
      99A      2.019811   100A      2.052439   101A      2.052847
     102A      2.738253   103A      2.738714   104A      2.790927
     105A      2.811415   106A      2.889007   107A      2.890869
     108A      2.894990   109A      2.929309   110A      2.929685
     111A      2.958992   112A      2.963934   113A      2.964820
     114A      3.034010   115A      3.071281   116A      3.071290
     117A      3.084349   118A      3.168688   119A      3.168857
     120A      3.180612   121A      3.285054   122A      3.285579
     123A      3.326878   124A      3.327444   125A      3.375618
     126A      3.489934   127A      3.490328   128A      3.514039
     129A      3.525318   130A      3.568107   131A      3.568541
     132A      3.575289   133A      3.666322   134A      3.666399
     135A      3.679595   136A      3.693726   137A      3.694620
     138A      3.775569   139A      3.778058   140A      3.789159
     141A      3.911608   142A      3.912848   143A      4.034439
     144A      4.110323   145A      4.112401   146A      4.147053
     147A      4.149185   148A      4.173262   149A      4.202643
     150A      4.203005   151A      4.203143   152A      4.210856
     153A      4.314363   154A      4.317513   155A      4.359009
     156A      4.423635   157A      4.425263   158A      4.443447
     159A      4.516228   160A      4.517428   161A      4.577649
     162A      4.578888   163A      4.617512   164A      4.709471
     165A      4.773386   166A      4.775833   167A      4.836946
     168A      4.962843   169A      5.002881   170A      5.003027
     171A      5.228016   172A      5.246598   173A      5.247060
     174A      5.354762   175A      5.356245   176A      5.479374

    Beta Occupied:

       1A    -10.167905     2A    -10.167775     3A    -10.167644
       4A    -10.166519     5A     -0.781093     6A     -0.684181
       7A     -0.683798     8A     -0.511747     9A     -0.431093
      10A     -0.431002    11A     -0.421814    12A     -0.376763
      13A     -0.376610    14A     -0.362589    15A     -0.333476
      16A     -0.332767

    Beta Virtual:

      17A     -0.025742    18A      0.077081    19A      0.134972
      20A      0.135120    21A      0.144479    22A      0.144513
      23A      0.163338    24A      0.182389    25A      0.182508
      26A      0.215037    27A      0.218928    28A      0.281963
      29A      0.282704    30A      0.400253    31A      0.400542
      32A      0.419782    33A      0.426851    34A      0.426976
      35A      0.468500    36A      0.497561    37A      0.497739
      38A      0.513895    39A      0.556324    40A      0.584033
      41A      0.584696    42A      0.597502    43A      0.598118
      44A      0.609998    45A      0.628131    46A      0.631935
      47A      0.639486    48A      0.639599    49A      0.666916
      50A      0.667034    51A      0.686452    52A      0.686527
      53A      0.757517    54A      0.830338    55A      0.830812
      56A      0.855268    57A      0.922979    58A      0.923000
      59A      0.945961    60A      0.953543    61A      0.966023
      62A      0.967183    63A      1.008700    64A      1.131836
      65A      1.132427    66A      1.155582    67A      1.168301
      68A      1.168411    69A      1.232300    70A      1.279726
      71A      1.280446    72A      1.285103    73A      1.329263
      74A      1.329425    75A      1.365412    76A      1.371170
      77A      1.371429    78A      1.393469    79A      1.406943
      80A      1.408122    81A      1.421527    82A      1.422794
      83A      1.428177    84A      1.492547    85A      1.509524
      86A      1.547145    87A      1.547326    88A      1.582004
      89A      1.582635    90A      1.674669    91A      1.744684
      92A      1.745659    93A      1.779111    94A      1.834842
      95A      1.835686    96A      1.972593    97A      2.024961
      98A      2.025897    99A      2.039710   100A      2.059150
     101A      2.059569   102A      2.746599   103A      2.747040
     104A      2.811829   105A      2.816061   106A      2.901781
     107A      2.903504   108A      2.924662   109A      2.931771
     110A      2.932186   111A      2.960056   112A      2.968507
     113A      2.969334   114A      3.041944   115A      3.081177
     116A      3.081213   117A      3.086165   118A      3.184403
     119A      3.184604   120A      3.188333   121A      3.289858
     122A      3.290371   123A      3.330712   124A      3.331218
     125A      3.383437   126A      3.492663   127A      3.493053
     128A      3.512410   129A      3.528369   130A      3.574849
     131A      3.581505   132A      3.582111   133A      3.670773
     134A      3.671501   135A      3.692913   136A      3.725706
     137A      3.725827   138A      3.780202   139A      3.782482
     140A      3.817703   141A      3.921420   142A      3.922668
     143A      4.045327   144A      4.117252   145A      4.119107
     146A      4.154271   147A      4.156380   148A      4.187321
     149A      4.208907   150A      4.209102   151A      4.210625
     152A      4.215330   153A      4.321743   154A      4.325006
     155A      4.362379   156A      4.431902   157A      4.433431
     158A      4.446328   159A      4.524043   160A      4.525193
     161A      4.588273   162A      4.589463   163A      4.624710
     164A      4.719816   165A      4.780400   166A      4.782723
     167A      4.839866   168A      4.967638   169A      5.006913
     170A      5.007075   171A      5.233729   172A      5.248368
     173A      5.248862   174A      5.361201   175A      5.362766
     176A      5.481696

    Final Occupation by Irrep:
              A
    DOCC [    16 ]
    SOCC [     1 ]

  @DF-UKS Final Energy:  -157.81306420262715

   => Energetics <=

    Nuclear Repulsion Energy =            125.3946493092666685
    One-Electron Energy =                -458.7489453460010509
    Two-Electron Energy =                 195.8483766179142833
    DFT Exchange-Correlation Energy =     -20.3071447838070860
    Empirical Dispersion Energy =           0.0000000000000000
    VV10 Nonlocal Energy =                  0.0000000000000000
    Total Energy =                       -157.8130642026271460

  UHF NO Occupations:
  HONO-2 :   15  A 1.9996009
  HONO-1 :   16  A 1.9989805
  HONO-0 :   17  A 1.0000000
  LUNO+0 :   18  A 0.0010195
  LUNO+1 :   19  A 0.0003991
  LUNO+2 :   20  A 0.0001983
  LUNO+3 :   21  A 0.0001968

Computation Completed

Properties will be evaluated at   0.000000,   0.000000,   0.000000 [a0]

Properties computed using the SCF density matrix

  Nuclear Dipole Moment: [e a0]
     X:     0.8272      Y:    -0.0000      Z:     0.0003

  Electronic Dipole Moment: [e a0]
     X:    -0.7493      Y:     0.0000      Z:    -0.0003

  Dipole Moment: [e a0]
     X:     0.0779      Y:    -0.0000      Z:    -0.0001     Total:     0.0779

  Dipole Moment: [D]
     X:     0.1980      Y:    -0.0000      Z:    -0.0002     Total:     0.1980

*** tstop() called on n046 at Fri Nov  5 12:09:41 2021
Module time:
	user time   =     554.62 seconds =       9.24 minutes
	system time =      12.43 seconds =       0.21 minutes
	total time  =        143 seconds =       2.38 minutes
Total time:
	user time   =     554.62 seconds =       9.24 minutes
	system time =      12.43 seconds =       0.21 minutes
	total time  =        143 seconds =       2.38 minutes
Grab this energy -157.81306420262715
    Psi4 stopped on: Friday, 05 November 2021 12:09PM
    Psi4 wall time for execution: 0:02:22.55

*** Psi4 exiting successfully. Buy a developer a beer!
