                               Psi4 1.4a2.dev629

  ==> Input File <==

--------------------------------------------------------------------------
import os
memory 14 GB

molecule {
 C   -0.3233427404    0.0022022581    0.0000000000
 C    0.0614523597   -1.4000469287   -2.4262741715
 C    0.0603893495    2.8027766854    0.0000000000
 C    0.0614523597   -1.4000469287    2.4262741715
 H    2.0881772457   -1.6464380636   -2.8460093451
 H   -0.7608027190   -0.3879625433   -4.0305623979
 H   -0.7686185985   -3.2888903195   -2.3499473827
 H    2.0843067503    3.2882441835   -0.0000000000
 H   -0.7671889059    3.6767141347    1.6768905273
 H   -0.7671889059    3.6767141347   -1.6768905273
 H    2.0881772457   -1.6464380636    2.8460093451
 H   -0.7686185985   -3.2888903195    2.3499473827
 H   -0.7608027190   -0.3879625433    4.0305623979
units bohr
0 2
}

basis {

assign 6-31g_2dfp_

[ 6-31g_2dfp_ ]

spherical

!----------------------------------------------------------------------
! Basis Set Exchange
! Version v0.8.13
! https://www.basissetexchange.org
!----------------------------------------------------------------------
!   Basis set: 6-31G(2df,p)
! Description: 6-31G(2df,p)
!        Role: orbital
!     Version: 0  (Data from the original Basis Set Exchange)
!----------------------------------------------------------------------

****
H     0
S    3   1.00
     18.7311370              0.03349460
      2.8253937              0.23472695
      0.6401217              0.81375733
S    1   1.00
      0.1612778              1.00000000
P    1   1.00
      1.5000000              1.0000000
P    1   1.00
      0.3750000              1.0000000
****
B     0
S    6   1.00
   2068.8823000              0.0018663
    310.6495700              0.0142515
     70.6830330              0.0695516
     19.8610800              0.2325729
      6.2993048              0.4670787
      2.1270270              0.3634314
SP   3   1.00
      4.7279710             -0.1303938              0.0745976
      1.1903377             -0.1307889              0.3078467
      0.3594117              1.1309444              0.7434568
SP   1   1.00
      0.1267512              1.0000000              1.0000000
D    1   1.00
      0.8020000              1.0000000
D    1   1.00
      0.2005000              1.0000000
F    1   1.00
      0.5000000              1.0000000
****
C     0
S    6   1.00
   3047.5249000              0.0018347
    457.3695100              0.0140373
    103.9486900              0.0688426
     29.2101550              0.2321844
      9.2866630              0.4679413
      3.1639270              0.3623120
SP   3   1.00
      7.8682724             -0.1193324              0.0689991
      1.8812885             -0.1608542              0.3164240
      0.5442493              1.1434564              0.7443083
SP   1   1.00
      0.1687144              1.0000000              1.0000000
D    1   1.00
      1.2520000              1.0000000
D    1   1.00
      0.3130000              1.0000000
F    1   1.00
      0.8000000              1.0000000
****
N     0
S    6   1.00
   4173.5110000              0.0018348
    627.4579000              0.0139950
    142.9021000              0.0685870
     40.2343300              0.2322410
     12.8202100              0.4690700
      4.3904370              0.3604550
SP   3   1.00
     11.6263580             -0.1149610              0.0675800
      2.7162800             -0.1691180              0.3239070
      0.7722180              1.1458520              0.7408950
SP   1   1.00
      0.2120313              1.0000000              1.0000000
D    1   1.00
      1.8260000              1.0000000
D    1   1.00
      0.4565000              1.0000000
F    1   1.00
      1.0000000              1.0000000
****
O     0
S    6   1.00
   5484.6717000              0.0018311
    825.2349500              0.0139501
    188.0469600              0.0684451
     52.9645000              0.2327143
     16.8975700              0.4701930
      5.7996353              0.3585209
SP   3   1.00
     15.5396160             -0.1107775              0.0708743
      3.5999336             -0.1480263              0.3397528
      1.0137618              1.1307670              0.7271586
SP   1   1.00
      0.2700058              1.0000000              1.0000000
D    1   1.00
      2.5840000              1.0000000
D    1   1.00
      0.6460000              1.0000000
F    1   1.00
      1.4000000              1.0000000
****
F     0
S    6   1.00
   7001.7130900              0.0018196169
   1051.3660900              0.0139160796
    239.2856900              0.0684053245
     67.3974453              0.233185760
     21.5199573              0.471267439
      7.40310130             0.356618546
SP   3   1.00
     20.8479528             -0.108506975            0.0716287243
      4.80830834            -0.146451658            0.3459121030
      1.34406986             1.128688580            0.7224699570
SP   1   1.00
      0.358151393            1.0000000              1.0000000
D    1   1.00
      3.5000000              1.0000000
D    1   1.00
      0.8750000              1.0000000
F    1   1.00
      1.8500000              1.0000000
****
Al     0
S    6   1.00
  13983.1000000              0.00194267
   2098.7500000              0.0148599
    477.7050000              0.0728494
    134.3600000              0.2468300
     42.8709000              0.4872580
     14.5189000              0.3234960
SP   6   1.00
    239.6680000             -0.00292619             0.00460285
     57.4419000             -0.0374080              0.0331990
     18.2859000             -0.1144870              0.1362820
      6.5991400              0.1156350              0.3304760
      2.4904900              0.6125950              0.4491460
      0.9445400              0.3937990              0.2657040
SP   3   1.00
      1.2779000             -0.2276060             -0.0175130
      0.3975900              0.00144583             0.2445330
      0.1600950              1.0927900              0.8049340
SP   1   1.00
      0.0556577              1.0000000              1.0000000
D    1   1.00
      0.6500000              1.0000000
D    1   1.00
      0.1625000              1.0000000
F    1   1.00
      0.2500000              1.0000000
****
Si     0
S    6   1.00
  16115.9000000              0.00195948
   2425.5800000              0.01492880
    553.8670000              0.07284780
    156.3400000              0.24613000
     50.0683000              0.48591400
     17.0178000              0.32500200
SP   6   1.00
    292.7180000             -0.00278094             0.00443826
     69.8731000             -0.03571460             0.03266790
     22.3363000             -0.11498500             0.13472100
      8.1503900              0.09356340             0.32867800
      3.1345800              0.60301700             0.44964000
      1.2254300              0.41895900             0.26137200
SP   3   1.00
      1.7273800             -0.24463000            -0.01779510
      0.5729220              0.00431572             0.25353900
      0.2221920              1.09818000             0.80066900
SP   1   1.00
      0.0778369              1.00000000             1.00000000
D    1   1.00
      0.9000000              1.0000000
D    1   1.00
      0.2250000              1.0000000
F    1   1.00
      0.3200000              1.0000000
****
P     0
S    6   1.00
  19413.3000000              0.0018516
   2909.4200000              0.0142062
    661.3640000              0.0699995
    185.7590000              0.2400790
     59.1943000              0.4847620
     20.0310000              0.3352000
SP   6   1.00
    339.4780000             -0.00278217             0.00456462
     81.0101000             -0.0360499              0.03369360
     25.8780000             -0.1166310              0.13975500
      9.4522100              0.0968328              0.33936200
      3.6656600              0.6144180              0.45092100
      1.4674600              0.4037980              0.23858600
SP   3   1.00
      2.1562300             -0.2529230             -0.01776530
      0.7489970              0.0328517              0.27405800
      0.2831450              1.0812500              0.78542100
SP   1   1.00
      0.0998317              1.0000000              1.00000000
D    1   1.00
      1.1000000              1.0000000
D    1   1.00
      0.2750000              1.0000000
F    1   1.00
      0.4500000              1.0000000
****
S     0
S    6   1.00
  21917.1000000              0.0018690
   3301.4900000              0.0142300
    754.1460000              0.0696960
    212.7110000              0.2384870
     67.9896000              0.4833070
     23.0515000              0.3380740
SP   6   1.00
    423.7350000             -0.0023767              0.0040610
    100.7100000             -0.0316930              0.0306810
     32.1599000             -0.1133170              0.1304520
     11.8079000              0.0560900              0.3272050
      4.6311000              0.5922550              0.4528510
      1.8702500              0.4550060              0.2560420
SP   3   1.00
      2.6158400             -0.2503740             -0.0145110
      0.9221670              0.0669570              0.3102630
      0.3412870              1.0545100              0.7544830
SP   1   1.00
      0.1171670              1.0000000              1.0000000
D    1   1.00
      1.3000000              1.0000000
D    1   1.00
      0.3250000              1.0000000
F    1   1.00
      0.5500000              1.0000000
****
Cl     0
S    6   1.00
  25180.1000000              0.0018330
   3780.3500000              0.0140340
    860.4740000              0.0690970
    242.1450000              0.2374520
     77.3349000              0.4830340
     26.2470000              0.3398560
SP   6   1.00
    491.7650000             -0.0022974              0.0039894
    116.9840000             -0.0307140              0.0303180
     37.4153000             -0.1125280              0.1298800
     13.7834000              0.0450160              0.3279510
      5.4521500              0.5893530              0.4535270
      2.2258800              0.4652060              0.2521540
SP   3   1.00
      3.1864900             -0.2518300             -0.0142990
      1.1442700              0.0615890              0.3235720
      0.4203770              1.0601800              0.7435070
SP   1   1.00
      0.1426570              1.0000000              1.0000000
D    1   1.00
      1.5000000              1.0000000
D    1   1.00
      0.3750000              1.0000000
F    1   1.00
      0.7000000              1.0000000
****
}

set {
reference uhf
freeze_core true
e_convergence 10
d_convergence 10
dft_spherical_points 1202
dft_radial_points 99
}

e = energy('b3lyp')

print_out('Grab this energy {0}'.format(e))
--------------------------------------------------------------------------

    Molecular point group: cs

    Geometry (in Bohr), charge = 0, multiplicity = 2:

       Center              X                  Y                   Z               Mass
    ------------   -----------------  -----------------  -----------------  -----------------
         C           -0.323341067289     0.001261784697     0.000000000000    12.000000000000
         C            0.061454032811    -1.400987402103    -2.426274171500    12.000000000000
         C            0.060391022611     2.801836211997     0.000000000000    12.000000000000
         C            0.061454032811    -1.400987402103     2.426274171500    12.000000000000
         H            2.088178918811    -1.647378537003    -2.846009345100     1.007825032230
         H           -0.760801045889    -0.388903016703    -4.030562397900     1.007825032230
         H           -0.768616925389    -3.289830792903    -2.349947382700     1.007825032230
         H            2.084308423411     3.287303710097     0.000000000000     1.007825032230
         H           -0.767187232789     3.675773661297     1.676890527300     1.007825032230
         H           -0.767187232789     3.675773661297    -1.676890527300     1.007825032230
         H            2.088178918811    -1.647378537003     2.846009345100     1.007825032230
         H           -0.768616925389    -3.289830792903     2.349947382700     1.007825032230
         H           -0.760801045889    -0.388903016703     4.030562397900     1.007825032230

  Charge       = 0
  Multiplicity = 2
  Basis Set: ANONYMOUSF3E4C7E4
    Blend: 6-31G_2DFP_
  Basis Set: (ANONYMOUSF3E4C7E4 AUX)
    Blend: DEF2-UNIVERSAL-JKFIT

    Orbital Energies [Eh]
    ---------------------

    Alpha Occupied:

       1Ap   -10.180342     1App  -10.167159     2Ap   -10.167130
       3Ap   -10.166756     4Ap    -0.797766     5Ap    -0.686353
       2App   -0.686020     6Ap    -0.530776     7Ap    -0.441125
       3App   -0.434827     8Ap    -0.434516     9Ap    -0.382733
       4App   -0.382464     5App   -0.363608     6App   -0.338058
      10Ap    -0.337940    11Ap    -0.168961

    Alpha Virtual:

      12Ap     0.076073     7App    0.134076    13Ap     0.134236
      14Ap     0.142551     8App    0.142705    15Ap     0.154880
       9App    0.178699    16Ap     0.178855    17Ap     0.203548
      10App    0.214802    11App    0.275874    18Ap     0.276096
      19Ap     0.399220    12App    0.399235    20Ap     0.403347
      21Ap     0.424088    13App    0.424109    22Ap     0.456593
      23Ap     0.495317    14App    0.495462    15App    0.512160
      24Ap     0.513979    16App    0.578670    25Ap     0.578961
      17App    0.591346    26Ap     0.591920    27Ap     0.602575
      28Ap     0.624761    18App    0.631757    29Ap     0.636176
      19App    0.636338    20App    0.663270    30Ap     0.663555
      31Ap     0.683850    21App    0.683854    32Ap     0.734993
      22App    0.825322    33Ap     0.825494    23App    0.853916
      24App    0.914908    34Ap     0.915146    25App    0.944123
      35Ap     0.944614    26App    0.961213    36Ap     0.961371
      37Ap     1.003452    38Ap     1.127947    27App    1.128230
      39Ap     1.142250    40Ap     1.162862    28App    1.163692
      41Ap     1.223319    42Ap     1.274381    29App    1.274609
      43Ap     1.279358    30App    1.324299    44Ap     1.324411
      45Ap     1.356000    31App    1.365899    46Ap     1.366205
      32App    1.392421    33App    1.403573    47Ap     1.404544
      34App    1.417006    48Ap     1.417219    35App    1.427919
      36App    1.491492    49Ap     1.499084    37App    1.542761
      50Ap     1.542889    51Ap     1.574027    38App    1.574860
      52Ap     1.669829    39App    1.739022    53Ap     1.739822
      54Ap     1.768307    40App    1.830473    55Ap     1.832322
      41App    1.971736    56Ap     2.018277    57Ap     2.018565
      42App    2.019549    43App    2.052357    58Ap     2.052935
      44App    2.738311    59Ap     2.738660    60Ap     2.790927
      45App    2.811424    46App    2.889621    61Ap     2.890267
      62Ap     2.894963    63Ap     2.929258    47App    2.929731
      48App    2.958990    64Ap     2.964028    49App    2.964731
      65Ap     3.034009    50App    3.070845    66Ap     3.071719
      51App    3.084349    67Ap     3.168642    52App    3.168930
      68Ap     3.180583    53App    3.285278    69Ap     3.285350
      54App    3.326908    70Ap     3.327406    71Ap     3.375624
      72Ap     3.490078    55App    3.490242    56App    3.514020
      73Ap     3.525320    57App    3.567626    74Ap     3.569150
      58App    3.575140    59App    3.665914    75Ap     3.666705
      76Ap     3.679788    60App    3.693654    77Ap     3.694593
      78Ap     3.775266    61App    3.778332    79Ap     3.789148
      80Ap     3.911965    62App    3.912486    81Ap     4.034447
      63App    4.110500    82Ap     4.112246    64App    4.147879
      83Ap     4.148381    84Ap     4.173249    85Ap     4.202648
      65App    4.202994    86Ap     4.203149    66App    4.210851
      87Ap     4.315749    67App    4.316133    68App    4.358996
      88Ap     4.423026    69App    4.425710    70App    4.443605
      71App    4.516761    89Ap     4.516941    72App    4.577629
      90Ap     4.578911    91Ap     4.617495    92Ap     4.709440
      93Ap     4.774327    73App    4.774875    74App    4.836913
      94Ap     4.962787    75App    5.001613    95Ap     5.004380
      96Ap     5.228019    97Ap     5.246501    76App    5.247125
      77App    5.354617    98Ap     5.356404    78App    5.479346

    Beta Occupied:

       1App  -10.167913     1Ap   -10.167895     2Ap   -10.167516
       3Ap   -10.166519     4Ap    -0.781091     5Ap    -0.684149
       2App   -0.683829     6Ap    -0.511747     3App   -0.431206
       7Ap    -0.430879     8Ap    -0.421823     9Ap    -0.376826
       4App   -0.376542     5App   -0.362592     6App   -0.333182
      10Ap    -0.333062

    Beta Virtual:

      11Ap    -0.025742    12Ap     0.077082     7App    0.134982
      13Ap     0.135108    14Ap     0.144428     8App    0.144569
      15Ap     0.163339     9App    0.182375    16Ap     0.182522
      10App    0.215031    17Ap     0.218930    11App    0.282223
      18Ap     0.282442    19Ap     0.400390    12App    0.400406
      20Ap     0.419791    13App    0.426908    21Ap     0.426912
      22Ap     0.468501    23Ap     0.497578    14App    0.497722
      15App    0.513895    24Ap     0.556324    16App    0.584213
      25Ap     0.584518    17App    0.597547    26Ap     0.598079
      27Ap     0.609999    28Ap     0.628137    18App    0.631921
      29Ap     0.639487    19App    0.639590    20App    0.666850
      30Ap     0.667103    31Ap     0.686485    21App    0.686489
      32Ap     0.757516    22App    0.830513    33Ap     0.830640
      23App    0.855270    24App    0.922878    34Ap     0.923119
      25App    0.945960    35Ap     0.953543    26App    0.966492
      36Ap     0.966704    37Ap     1.008692    38Ap     1.131942
      27App    1.132306    39Ap     1.155615    40Ap     1.167979
      28App    1.168719    41Ap     1.232291    42Ap     1.279983
      29App    1.280204    43Ap     1.285110    30App    1.329288
      44Ap     1.329402    45Ap     1.365416    31App    1.371152
      46Ap     1.371437    32App    1.393483    33App    1.407063
      47Ap     1.407986    34App    1.422042    48Ap     1.422280
      35App    1.428189    36App    1.492539    49Ap     1.509527
      37App    1.547207    50Ap     1.547257    51Ap     1.581937
      38App    1.582694    52Ap     1.674676    39App    1.744766
      53Ap     1.745601    54Ap     1.779087    40App    1.834331
      55Ap     1.836175    41App    1.972595    56Ap     2.024977
      42App    2.025914    57Ap     2.039679    43App    2.059106
      58Ap     2.059616    44App    2.746642    59Ap     2.747001
      45App    2.811836    60Ap     2.816062    46App    2.902344
      61Ap     2.902942    62Ap     2.924645    63Ap     2.931761
      47App    2.932193    48App    2.960054    64Ap     2.968575
      49App    2.969272    65Ap     3.041944    50App    3.080796
      66Ap     3.081581    51App    3.086173    67Ap     3.184456
      52App    3.184624    68Ap     3.188257    53App    3.290047
      69Ap     3.290178    54App    3.330711    70Ap     3.331212
      71Ap     3.383442    72Ap     3.492807    55App    3.492972
      56App    3.512387    73Ap     3.528366    57App    3.574998
      58App    3.581014    74Ap     3.582439    59App    3.670507
      75Ap     3.671666    76Ap     3.693026    60App    3.725433
      77Ap     3.726080    78Ap     3.779815    61App    3.782854
      79Ap     3.817673    80Ap     3.921789    62App    3.922296
      81Ap     4.045333    63App    4.117418    82Ap     4.118959
      64App    4.155058    83Ap     4.155619    84Ap     4.187310
      65App    4.208934    85Ap     4.209083    86Ap     4.210620
      66App    4.215322    87Ap     4.323193    67App    4.323565
      68App    4.362360    88Ap     4.431298    69App    4.433793
      70App    4.446570    71App    4.524554    89Ap     4.524726
      72App    4.588244    90Ap     4.589498    91Ap     4.624690
      92Ap     4.719784    93Ap     4.781303    73App    4.781807
      74App    4.839829    94Ap     4.967582    75App    5.005648
      95Ap     5.008423    96Ap     5.233734    97Ap     5.248282
      76App    5.248914    77App    5.361098    98Ap     5.362884
      78App    5.481668

    Final Occupation by Irrep:
             Ap   App
    DOCC [    10,    6 ]
    SOCC [     1,    0 ]

  @DF-UKS Final Energy:  -157.81306871055025

   => Energetics <=

    Nuclear Repulsion Energy =            125.3945747562047330
    One-Electron Energy =                -458.7488133319200188
    Two-Electron Energy =                 195.8483121067972945
    DFT Exchange-Correlation Energy =     -20.3071422416322775
    Empirical Dispersion Energy =           0.0000000000000000
    VV10 Nonlocal Energy =                  0.0000000000000000
    Total Energy =                       -157.8130687105502545

  UHF NO Occupations:
  HONO-2 :    9 Ap 1.9996009
  HONO-1 :   10 Ap 1.9989805
  HONO-0 :   11 Ap 1.0000000
  LUNO+0 :   12 Ap 0.0010195
  LUNO+1 :   13 Ap 0.0003991
  LUNO+2 :    7App 0.0001977
  LUNO+3 :   14 Ap 0.0001973

Computation Completed

Properties will be evaluated at   0.000000,   0.000000,   0.000000 [a0]

Properties computed using the SCF density matrix

  Nuclear Dipole Moment: [e a0]
     X:     0.8272      Y:    -0.0066      Z:     0.0000

  Electronic Dipole Moment: [e a0]
     X:    -0.7493      Y:     0.0067      Z:     0.0000

  Dipole Moment: [e a0]
     X:     0.0779      Y:     0.0000      Z:     0.0000     Total:     0.0779

  Dipole Moment: [D]
     X:     0.1980      Y:     0.0001      Z:     0.0000     Total:     0.1980

*** tstop() called on n079 at Fri Nov  5 13:04:09 2021
Module time:
	user time   =     499.15 seconds =       8.32 minutes
	system time =       4.64 seconds =       0.08 minutes
	total time  =        127 seconds =       2.12 minutes
Total time:
	user time   =     499.15 seconds =       8.32 minutes
	system time =       4.64 seconds =       0.08 minutes
	total time  =        127 seconds =       2.12 minutes
Grab this energy -157.81306871055025
    Psi4 stopped on: Friday, 05 November 2021 01:04PM
    Psi4 wall time for execution: 0:02:06.68

*** Psi4 exiting successfully. Buy a developer a beer!
