                               Psi4 1.4a2.dev629

  ==> Input File <==

--------------------------------------------------------------------------
import os
memory 14 GB

molecule {
 C   -0.3233407820   -0.0000038565   -0.0004954230
 C    0.0599475232   -1.4007151791   -2.4265734677
 C    0.0610214016    2.8017576307   -0.0003355392
 C    0.0623307692   -1.4010441552    2.4261877424
 H    2.0905051324   -1.6397658191   -2.8494492947
 H   -0.7704615389   -0.3924469396   -4.0230837467
 H   -0.7638117343   -3.2915378954   -2.3493145960
 H    2.0867945602    3.2881005533    0.0044703958
 H   -0.7708505823    3.6809463442    1.6748031073
 H   -0.7604390922    3.6795585053   -1.6781819901
 H    2.0833590375   -1.6484119335    2.8454377387
 H   -0.7673327543   -3.2924609504    2.3486644759
 H   -0.7603298170   -0.3840006185    4.0278705971
units bohr
0 2
}

basis {

assign 6-31g_2dfp_

[ 6-31g_2dfp_ ]

spherical

!----------------------------------------------------------------------
! Basis Set Exchange
! Version v0.8.13
! https://www.basissetexchange.org
!----------------------------------------------------------------------
!   Basis set: 6-31G(2df,p)
! Description: 6-31G(2df,p)
!        Role: orbital
!     Version: 0  (Data from the original Basis Set Exchange)
!----------------------------------------------------------------------

****
H     0
S    3   1.00
     18.7311370              0.03349460
      2.8253937              0.23472695
      0.6401217              0.81375733
S    1   1.00
      0.1612778              1.00000000
P    1   1.00
      1.5000000              1.0000000
P    1   1.00
      0.3750000              1.0000000
****
B     0
S    6   1.00
   2068.8823000              0.0018663
    310.6495700              0.0142515
     70.6830330              0.0695516
     19.8610800              0.2325729
      6.2993048              0.4670787
      2.1270270              0.3634314
SP   3   1.00
      4.7279710             -0.1303938              0.0745976
      1.1903377             -0.1307889              0.3078467
      0.3594117              1.1309444              0.7434568
SP   1   1.00
      0.1267512              1.0000000              1.0000000
D    1   1.00
      0.8020000              1.0000000
D    1   1.00
      0.2005000              1.0000000
F    1   1.00
      0.5000000              1.0000000
****
C     0
S    6   1.00
   3047.5249000              0.0018347
    457.3695100              0.0140373
    103.9486900              0.0688426
     29.2101550              0.2321844
      9.2866630              0.4679413
      3.1639270              0.3623120
SP   3   1.00
      7.8682724             -0.1193324              0.0689991
      1.8812885             -0.1608542              0.3164240
      0.5442493              1.1434564              0.7443083
SP   1   1.00
      0.1687144              1.0000000              1.0000000
D    1   1.00
      1.2520000              1.0000000
D    1   1.00
      0.3130000              1.0000000
F    1   1.00
      0.8000000              1.0000000
****
N     0
S    6   1.00
   4173.5110000              0.0018348
    627.4579000              0.0139950
    142.9021000              0.0685870
     40.2343300              0.2322410
     12.8202100              0.4690700
      4.3904370              0.3604550
SP   3   1.00
     11.6263580             -0.1149610              0.0675800
      2.7162800             -0.1691180              0.3239070
      0.7722180              1.1458520              0.7408950
SP   1   1.00
      0.2120313              1.0000000              1.0000000
D    1   1.00
      1.8260000              1.0000000
D    1   1.00
      0.4565000              1.0000000
F    1   1.00
      1.0000000              1.0000000
****
O     0
S    6   1.00
   5484.6717000              0.0018311
    825.2349500              0.0139501
    188.0469600              0.0684451
     52.9645000              0.2327143
     16.8975700              0.4701930
      5.7996353              0.3585209
SP   3   1.00
     15.5396160             -0.1107775              0.0708743
      3.5999336             -0.1480263              0.3397528
      1.0137618              1.1307670              0.7271586
SP   1   1.00
      0.2700058              1.0000000              1.0000000
D    1   1.00
      2.5840000              1.0000000
D    1   1.00
      0.6460000              1.0000000
F    1   1.00
      1.4000000              1.0000000
****
F     0
S    6   1.00
   7001.7130900              0.0018196169
   1051.3660900              0.0139160796
    239.2856900              0.0684053245
     67.3974453              0.233185760
     21.5199573              0.471267439
      7.40310130             0.356618546
SP   3   1.00
     20.8479528             -0.108506975            0.0716287243
      4.80830834            -0.146451658            0.3459121030
      1.34406986             1.128688580            0.7224699570
SP   1   1.00
      0.358151393            1.0000000              1.0000000
D    1   1.00
      3.5000000              1.0000000
D    1   1.00
      0.8750000              1.0000000
F    1   1.00
      1.8500000              1.0000000
****
Al     0
S    6   1.00
  13983.1000000              0.00194267
   2098.7500000              0.0148599
    477.7050000              0.0728494
    134.3600000              0.2468300
     42.8709000              0.4872580
     14.5189000              0.3234960
SP   6   1.00
    239.6680000             -0.00292619             0.00460285
     57.4419000             -0.0374080              0.0331990
     18.2859000             -0.1144870              0.1362820
      6.5991400              0.1156350              0.3304760
      2.4904900              0.6125950              0.4491460
      0.9445400              0.3937990              0.2657040
SP   3   1.00
      1.2779000             -0.2276060             -0.0175130
      0.3975900              0.00144583             0.2445330
      0.1600950              1.0927900              0.8049340
SP   1   1.00
      0.0556577              1.0000000              1.0000000
D    1   1.00
      0.6500000              1.0000000
D    1   1.00
      0.1625000              1.0000000
F    1   1.00
      0.2500000              1.0000000
****
Si     0
S    6   1.00
  16115.9000000              0.00195948
   2425.5800000              0.01492880
    553.8670000              0.07284780
    156.3400000              0.24613000
     50.0683000              0.48591400
     17.0178000              0.32500200
SP   6   1.00
    292.7180000             -0.00278094             0.00443826
     69.8731000             -0.03571460             0.03266790
     22.3363000             -0.11498500             0.13472100
      8.1503900              0.09356340             0.32867800
      3.1345800              0.60301700             0.44964000
      1.2254300              0.41895900             0.26137200
SP   3   1.00
      1.7273800             -0.24463000            -0.01779510
      0.5729220              0.00431572             0.25353900
      0.2221920              1.09818000             0.80066900
SP   1   1.00
      0.0778369              1.00000000             1.00000000
D    1   1.00
      0.9000000              1.0000000
D    1   1.00
      0.2250000              1.0000000
F    1   1.00
      0.3200000              1.0000000
****
P     0
S    6   1.00
  19413.3000000              0.0018516
   2909.4200000              0.0142062
    661.3640000              0.0699995
    185.7590000              0.2400790
     59.1943000              0.4847620
     20.0310000              0.3352000
SP   6   1.00
    339.4780000             -0.00278217             0.00456462
     81.0101000             -0.0360499              0.03369360
     25.8780000             -0.1166310              0.13975500
      9.4522100              0.0968328              0.33936200
      3.6656600              0.6144180              0.45092100
      1.4674600              0.4037980              0.23858600
SP   3   1.00
      2.1562300             -0.2529230             -0.01776530
      0.7489970              0.0328517              0.27405800
      0.2831450              1.0812500              0.78542100
SP   1   1.00
      0.0998317              1.0000000              1.00000000
D    1   1.00
      1.1000000              1.0000000
D    1   1.00
      0.2750000              1.0000000
F    1   1.00
      0.4500000              1.0000000
****
S     0
S    6   1.00
  21917.1000000              0.0018690
   3301.4900000              0.0142300
    754.1460000              0.0696960
    212.7110000              0.2384870
     67.9896000              0.4833070
     23.0515000              0.3380740
SP   6   1.00
    423.7350000             -0.0023767              0.0040610
    100.7100000             -0.0316930              0.0306810
     32.1599000             -0.1133170              0.1304520
     11.8079000              0.0560900              0.3272050
      4.6311000              0.5922550              0.4528510
      1.8702500              0.4550060              0.2560420
SP   3   1.00
      2.6158400             -0.2503740             -0.0145110
      0.9221670              0.0669570              0.3102630
      0.3412870              1.0545100              0.7544830
SP   1   1.00
      0.1171670              1.0000000              1.0000000
D    1   1.00
      1.3000000              1.0000000
D    1   1.00
      0.3250000              1.0000000
F    1   1.00
      0.5500000              1.0000000
****
Cl     0
S    6   1.00
  25180.1000000              0.0018330
   3780.3500000              0.0140340
    860.4740000              0.0690970
    242.1450000              0.2374520
     77.3349000              0.4830340
     26.2470000              0.3398560
SP   6   1.00
    491.7650000             -0.0022974              0.0039894
    116.9840000             -0.0307140              0.0303180
     37.4153000             -0.1125280              0.1298800
     13.7834000              0.0450160              0.3279510
      5.4521500              0.5893530              0.4535270
      2.2258800              0.4652060              0.2521540
SP   3   1.00
      3.1864900             -0.2518300             -0.0142990
      1.1442700              0.0615890              0.3235720
      0.4203770              1.0601800              0.7435070
SP   1   1.00
      0.1426570              1.0000000              1.0000000
D    1   1.00
      1.5000000              1.0000000
D    1   1.00
      0.3750000              1.0000000
F    1   1.00
      0.7000000              1.0000000
****
}

set {
reference uhf
freeze_core true
e_convergence 10
d_convergence 10
dft_spherical_points 1202
dft_radial_points 99
}

e = energy('b3lyp')

print_out('Grab this energy {0}'.format(e))
--------------------------------------------------------------------------

    Molecular point group: c1

    Geometry (in Bohr), charge = 0, multiplicity = 2:

       Center              X                  Y                   Z               Mass
    ------------   -----------------  -----------------  -----------------  -----------------
         C           -0.323340569521    -0.000002356219    -0.000261080221    12.000000000000
         C            0.059947735679    -1.400713678819    -2.426339124921    12.000000000000
         C            0.061021614079     2.801759130981    -0.000101196421    12.000000000000
         C            0.062330981679    -1.401042654919     2.426422085179    12.000000000000
         H            2.090505344879    -1.639764318819    -2.849214951921     1.007825032230
         H           -0.770461326421    -0.392445439319    -4.022849403921     1.007825032230
         H           -0.763811521821    -3.291536395119    -2.349080253221     1.007825032230
         H            2.086794772679     3.288102053581     0.004704738579     1.007825032230
         H           -0.770850369821     3.680947844481     1.675037450079     1.007825032230
         H           -0.760438879721     3.679560005581    -1.677947647321     1.007825032230
         H            2.083359249979    -1.648410433219     2.845672081479     1.007825032230
         H           -0.767332541821    -3.292459450119     2.348898818679     1.007825032230
         H           -0.760329604521    -0.383999118219     4.028104939879     1.007825032230

  Charge       = 0
  Multiplicity = 2
  Basis Set: ANONYMOUSD7BE45E2
    Blend: 6-31G_2DFP_
  Basis Set: (ANONYMOUSD7BE45E2 AUX)
    Blend: DEF2-UNIVERSAL-JKFIT

    Orbital Energies [Eh]
    ---------------------

    Alpha Occupied:

       1A    -10.180342     2A    -10.167046     3A    -10.167021
       4A    -10.166978     5A     -0.797766     6A     -0.686188
       7A     -0.686187     8A     -0.530777     9A     -0.441126
      10A     -0.434692    11A     -0.434648    12A     -0.382622
      13A     -0.382575    14A     -0.363611    15A     -0.338031
      16A     -0.337967    17A     -0.168961

    Alpha Virtual:

      18A      0.076071    19A      0.133988    20A      0.134321
      21A      0.142565    22A      0.142688    23A      0.154881
      24A      0.178693    25A      0.178863    26A      0.203547
      27A      0.214802    28A      0.275910    29A      0.276062
      30A      0.399195    31A      0.399262    32A      0.403344
      33A      0.424013    34A      0.424182    35A      0.456592
      36A      0.495244    37A      0.495533    38A      0.512147
      39A      0.513995    40A      0.578641    41A      0.578990
      42A      0.591481    43A      0.591778    44A      0.602579
      45A      0.624761    46A      0.631758    47A      0.636150
      48A      0.636360    49A      0.663046    50A      0.663791
      51A      0.683679    52A      0.684028    53A      0.734995
      54A      0.825384    55A      0.825423    56A      0.853920
      57A      0.914809    58A      0.915237    59A      0.944011
      60A      0.944716    61A      0.961171    62A      0.961430
      63A      1.003464    64A      1.128060    65A      1.128159
      66A      1.142215    67A      1.163149    68A      1.163396
      69A      1.223326    70A      1.274330    71A      1.274627
      72A      1.279368    73A      1.324314    74A      1.324402
      75A      1.355944    76A      1.366023    77A      1.366073
      78A      1.392469    79A      1.403600    80A      1.404519
      81A      1.416588    82A      1.417647    83A      1.427908
      84A      1.491463    85A      1.499100    86A      1.542376
      87A      1.543299    88A      1.574284    89A      1.574600
      90A      1.669820    91A      1.739246    92A      1.739551
      93A      1.768353    94A      1.830594    95A      1.832199
      96A      1.971711    97A      2.018087    98A      2.018752
      99A      2.019557   100A      2.051706   101A      2.053597
     102A      2.738077   103A      2.738896   104A      2.790918
     105A      2.811425   106A      2.889926   107A      2.889955
     108A      2.894970   109A      2.929485   110A      2.929508
     111A      2.958996   112A      2.964048   113A      2.964702
     114A      3.034016   115A      3.071257   116A      3.071299
     117A      3.084365   118A      3.168560   119A      3.169000
     120A      3.180600   121A      3.284990   122A      3.285640
     123A      3.326953   124A      3.327365   125A      3.375629
     126A      3.490000   127A      3.490321   128A      3.513999
     129A      3.525333   130A      3.568277   131A      3.568507
     132A      3.575161   133A      3.665672   134A      3.667104
     135A      3.679648   136A      3.693979   137A      3.694277
     138A      3.776783   139A      3.776819   140A      3.789127
     141A      3.912123   142A      3.912328   143A      4.034441
     144A      4.110911   145A      4.111811   146A      4.147526
     147A      4.148674   148A      4.173230   149A      4.201872
     150A      4.202823   151A      4.204064   152A      4.210918
     153A      4.315144   154A      4.316842   155A      4.358978
     156A      4.424142   157A      4.424793   158A      4.443423
     159A      4.516148   160A      4.517544   161A      4.578144
     162A      4.578388   163A      4.617558   164A      4.709444
     165A      4.774136   166A      4.775045   167A      4.836897
     168A      4.962867   169A      5.002200   170A      5.003691
     171A      5.228009   172A      5.244734   173A      5.248872
     174A      5.354316   175A      5.356751   176A      5.479375

    Beta Occupied:

       1A    -10.167802     2A    -10.167776     3A    -10.167745
       4A    -10.166519     5A     -0.781091     6A     -0.683994
       7A     -0.683986     8A     -0.511749     9A     -0.431059
      10A     -0.431028    11A     -0.421819    12A     -0.376728
      13A     -0.376638    14A     -0.362595    15A     -0.333147
      16A     -0.333097

    Beta Virtual:

      17A     -0.025743    18A      0.077080    19A      0.134889
      20A      0.135202    21A      0.144462    22A      0.144533
      23A      0.163337    24A      0.182346    25A      0.182553
      26A      0.215031    27A      0.218931    28A      0.282255
      29A      0.282413    30A      0.400366    31A      0.400430
      32A      0.419791    33A      0.426825    34A      0.426993
      35A      0.468500    36A      0.497497    37A      0.497802
      38A      0.513895    39A      0.556326    40A      0.584207
      41A      0.584525    42A      0.597639    43A      0.597982
      44A      0.609999    45A      0.628137    46A      0.631923
      47A      0.639431    48A      0.639641    49A      0.666642
      50A      0.667324    51A      0.686332    52A      0.686645
      53A      0.757518    54A      0.830550    55A      0.830593
      56A      0.855274    57A      0.922794    58A      0.923195
      59A      0.945944    60A      0.953549    61A      0.966448
      62A      0.966764    63A      1.008704    64A      1.132126
      65A      1.132149    66A      1.155592    67A      1.168188
      68A      1.168507    69A      1.232298    70A      1.279914
      71A      1.280235    72A      1.285124    73A      1.329305
      74A      1.329389    75A      1.365349    76A      1.371269
      77A      1.371314    78A      1.393533    79A      1.407023
      80A      1.408029    81A      1.421622    82A      1.422716
      83A      1.428176    84A      1.492525    85A      1.509529
      86A      1.546796    87A      1.547691    88A      1.582172
      89A      1.582459    90A      1.674667    91A      1.745012
      92A      1.745315    93A      1.779126    94A      1.834442
      95A      1.836063    96A      1.972572    97A      2.024971
      98A      2.025920    99A      2.039674   100A      2.058467
     101A      2.060271   102A      2.746422   103A      2.747223
     104A      2.811790   105A      2.816101   106A      2.902580
     107A      2.902700   108A      2.924654   109A      2.931935
     110A      2.932017   111A      2.960059   112A      2.968582
     113A      2.969263   114A      3.041949   115A      3.081064
     116A      3.081292   117A      3.086203   118A      3.184198
     119A      3.184853   120A      3.188291   121A      3.289778
     122A      3.290448   123A      3.330736   124A      3.331194
     125A      3.383445   126A      3.492769   127A      3.493013
     128A      3.512369   129A      3.528374   130A      3.575001
     131A      3.581582   132A      3.581901   133A      3.670369
     134A      3.671903   135A      3.692943   136A      3.725598
     137A      3.725918   138A      3.781279   139A      3.781380
     140A      3.817668   141A      3.921917   142A      3.922166
     143A      4.045328   144A      4.117745   145A      4.118604
     146A      4.154791   147A      4.155833   148A      4.187281
     149A      4.208071   150A      4.209558   151A      4.210983
     152A      4.215392   153A      4.322582   154A      4.324282
     155A      4.362341   156A      4.432357   157A      4.433009
     158A      4.446303   159A      4.523936   160A      4.525336
     161A      4.588733   162A      4.589001   163A      4.624752
     164A      4.719789   165A      4.781089   166A      4.781999
     167A      4.839813   168A      4.967663   169A      5.006258
     170A      5.007712   171A      5.233723   172A      5.246530
     173A      5.250646   174A      5.360786   175A      5.363241
     176A      5.481696

    Final Occupation by Irrep:
              A
    DOCC [    16 ]
    SOCC [     1 ]

  @DF-UKS Final Energy:  -157.81306338467826

   => Energetics <=

    Nuclear Repulsion Energy =            125.3946130845670410
    One-Electron Energy =                -458.7488730683817266
    Two-Electron Energy =                 195.8483414572650076
    DFT Exchange-Correlation Energy =     -20.3071448581285772
    Empirical Dispersion Energy =           0.0000000000000000
    VV10 Nonlocal Energy =                  0.0000000000000000
    Total Energy =                       -157.8130633846782587

  UHF NO Occupations:
  HONO-2 :   15  A 1.9996009
  HONO-1 :   16  A 1.9989804
  HONO-0 :   17  A 1.0000000
  LUNO+0 :   18  A 0.0010196
  LUNO+1 :   19  A 0.0003991
  LUNO+2 :   20  A 0.0001975
  LUNO+3 :   21  A 0.0001975

Computation Completed

Properties will be evaluated at   0.000000,   0.000000,   0.000000 [a0]

Properties computed using the SCF density matrix

  Nuclear Dipole Moment: [e a0]
     X:     0.8272      Y:    -0.0000      Z:     0.0016

  Electronic Dipole Moment: [e a0]
     X:    -0.7493      Y:     0.0000      Z:    -0.0023

  Dipole Moment: [e a0]
     X:     0.0779      Y:    -0.0000      Z:    -0.0006     Total:     0.0779

  Dipole Moment: [D]
     X:     0.1980      Y:    -0.0000      Z:    -0.0016     Total:     0.1980

*** tstop() called on n036 at Fri Nov  5 14:10:36 2021
Module time:
	user time   =     599.53 seconds =       9.99 minutes
	system time =      11.49 seconds =       0.19 minutes
	total time  =        153 seconds =       2.55 minutes
Total time:
	user time   =     599.53 seconds =       9.99 minutes
	system time =      11.49 seconds =       0.19 minutes
	total time  =        153 seconds =       2.55 minutes
Grab this energy -157.81306338467826
    Psi4 stopped on: Friday, 05 November 2021 02:10PM
    Psi4 wall time for execution: 0:02:33.66

*** Psi4 exiting successfully. Buy a developer a beer!
