                               Psi4 1.4a2.dev629

  ==> Input File <==

--------------------------------------------------------------------------
import os
memory 14 GB

molecule {
 C   -0.3233414089   -0.0000020506    0.0000000190
 C    0.0611390873   -1.4015687106   -2.4259817829
 C    0.0610192523    2.8017595363   -0.0007979993
 C    0.0611390134   -1.4001865454    2.4267797956
 H    2.0869364636   -1.6454690959   -2.8466515775
 H   -0.7660768397   -0.3868828559   -4.0211361194
 H   -0.7648948501   -3.2950879335   -2.3523266895
 H    2.0867974493    3.2881045854   -0.0015823704
 H   -0.7663176389    3.6758216148    1.6754865500
 H   -0.7649728368    3.6846899989   -1.6775051763
 H    2.0869362757   -1.6427279762    2.8482330987
 H   -0.7662401479   -3.2889057843    2.3456563111
 H   -0.7647316960   -0.3895690967    4.0298259410
units bohr
0 2
}

basis {

assign 6-31g_2dfp_

[ 6-31g_2dfp_ ]

spherical

!----------------------------------------------------------------------
! Basis Set Exchange
! Version v0.8.13
! https://www.basissetexchange.org
!----------------------------------------------------------------------
!   Basis set: 6-31G(2df,p)
! Description: 6-31G(2df,p)
!        Role: orbital
!     Version: 0  (Data from the original Basis Set Exchange)
!----------------------------------------------------------------------

****
H     0
S    3   1.00
     18.7311370              0.03349460
      2.8253937              0.23472695
      0.6401217              0.81375733
S    1   1.00
      0.1612778              1.00000000
P    1   1.00
      1.5000000              1.0000000
P    1   1.00
      0.3750000              1.0000000
****
B     0
S    6   1.00
   2068.8823000              0.0018663
    310.6495700              0.0142515
     70.6830330              0.0695516
     19.8610800              0.2325729
      6.2993048              0.4670787
      2.1270270              0.3634314
SP   3   1.00
      4.7279710             -0.1303938              0.0745976
      1.1903377             -0.1307889              0.3078467
      0.3594117              1.1309444              0.7434568
SP   1   1.00
      0.1267512              1.0000000              1.0000000
D    1   1.00
      0.8020000              1.0000000
D    1   1.00
      0.2005000              1.0000000
F    1   1.00
      0.5000000              1.0000000
****
C     0
S    6   1.00
   3047.5249000              0.0018347
    457.3695100              0.0140373
    103.9486900              0.0688426
     29.2101550              0.2321844
      9.2866630              0.4679413
      3.1639270              0.3623120
SP   3   1.00
      7.8682724             -0.1193324              0.0689991
      1.8812885             -0.1608542              0.3164240
      0.5442493              1.1434564              0.7443083
SP   1   1.00
      0.1687144              1.0000000              1.0000000
D    1   1.00
      1.2520000              1.0000000
D    1   1.00
      0.3130000              1.0000000
F    1   1.00
      0.8000000              1.0000000
****
N     0
S    6   1.00
   4173.5110000              0.0018348
    627.4579000              0.0139950
    142.9021000              0.0685870
     40.2343300              0.2322410
     12.8202100              0.4690700
      4.3904370              0.3604550
SP   3   1.00
     11.6263580             -0.1149610              0.0675800
      2.7162800             -0.1691180              0.3239070
      0.7722180              1.1458520              0.7408950
SP   1   1.00
      0.2120313              1.0000000              1.0000000
D    1   1.00
      1.8260000              1.0000000
D    1   1.00
      0.4565000              1.0000000
F    1   1.00
      1.0000000              1.0000000
****
O     0
S    6   1.00
   5484.6717000              0.0018311
    825.2349500              0.0139501
    188.0469600              0.0684451
     52.9645000              0.2327143
     16.8975700              0.4701930
      5.7996353              0.3585209
SP   3   1.00
     15.5396160             -0.1107775              0.0708743
      3.5999336             -0.1480263              0.3397528
      1.0137618              1.1307670              0.7271586
SP   1   1.00
      0.2700058              1.0000000              1.0000000
D    1   1.00
      2.5840000              1.0000000
D    1   1.00
      0.6460000              1.0000000
F    1   1.00
      1.4000000              1.0000000
****
F     0
S    6   1.00
   7001.7130900              0.0018196169
   1051.3660900              0.0139160796
    239.2856900              0.0684053245
     67.3974453              0.233185760
     21.5199573              0.471267439
      7.40310130             0.356618546
SP   3   1.00
     20.8479528             -0.108506975            0.0716287243
      4.80830834            -0.146451658            0.3459121030
      1.34406986             1.128688580            0.7224699570
SP   1   1.00
      0.358151393            1.0000000              1.0000000
D    1   1.00
      3.5000000              1.0000000
D    1   1.00
      0.8750000              1.0000000
F    1   1.00
      1.8500000              1.0000000
****
Al     0
S    6   1.00
  13983.1000000              0.00194267
   2098.7500000              0.0148599
    477.7050000              0.0728494
    134.3600000              0.2468300
     42.8709000              0.4872580
     14.5189000              0.3234960
SP   6   1.00
    239.6680000             -0.00292619             0.00460285
     57.4419000             -0.0374080              0.0331990
     18.2859000             -0.1144870              0.1362820
      6.5991400              0.1156350              0.3304760
      2.4904900              0.6125950              0.4491460
      0.9445400              0.3937990              0.2657040
SP   3   1.00
      1.2779000             -0.2276060             -0.0175130
      0.3975900              0.00144583             0.2445330
      0.1600950              1.0927900              0.8049340
SP   1   1.00
      0.0556577              1.0000000              1.0000000
D    1   1.00
      0.6500000              1.0000000
D    1   1.00
      0.1625000              1.0000000
F    1   1.00
      0.2500000              1.0000000
****
Si     0
S    6   1.00
  16115.9000000              0.00195948
   2425.5800000              0.01492880
    553.8670000              0.07284780
    156.3400000              0.24613000
     50.0683000              0.48591400
     17.0178000              0.32500200
SP   6   1.00
    292.7180000             -0.00278094             0.00443826
     69.8731000             -0.03571460             0.03266790
     22.3363000             -0.11498500             0.13472100
      8.1503900              0.09356340             0.32867800
      3.1345800              0.60301700             0.44964000
      1.2254300              0.41895900             0.26137200
SP   3   1.00
      1.7273800             -0.24463000            -0.01779510
      0.5729220              0.00431572             0.25353900
      0.2221920              1.09818000             0.80066900
SP   1   1.00
      0.0778369              1.00000000             1.00000000
D    1   1.00
      0.9000000              1.0000000
D    1   1.00
      0.2250000              1.0000000
F    1   1.00
      0.3200000              1.0000000
****
P     0
S    6   1.00
  19413.3000000              0.0018516
   2909.4200000              0.0142062
    661.3640000              0.0699995
    185.7590000              0.2400790
     59.1943000              0.4847620
     20.0310000              0.3352000
SP   6   1.00
    339.4780000             -0.00278217             0.00456462
     81.0101000             -0.0360499              0.03369360
     25.8780000             -0.1166310              0.13975500
      9.4522100              0.0968328              0.33936200
      3.6656600              0.6144180              0.45092100
      1.4674600              0.4037980              0.23858600
SP   3   1.00
      2.1562300             -0.2529230             -0.01776530
      0.7489970              0.0328517              0.27405800
      0.2831450              1.0812500              0.78542100
SP   1   1.00
      0.0998317              1.0000000              1.00000000
D    1   1.00
      1.1000000              1.0000000
D    1   1.00
      0.2750000              1.0000000
F    1   1.00
      0.4500000              1.0000000
****
S     0
S    6   1.00
  21917.1000000              0.0018690
   3301.4900000              0.0142300
    754.1460000              0.0696960
    212.7110000              0.2384870
     67.9896000              0.4833070
     23.0515000              0.3380740
SP   6   1.00
    423.7350000             -0.0023767              0.0040610
    100.7100000             -0.0316930              0.0306810
     32.1599000             -0.1133170              0.1304520
     11.8079000              0.0560900              0.3272050
      4.6311000              0.5922550              0.4528510
      1.8702500              0.4550060              0.2560420
SP   3   1.00
      2.6158400             -0.2503740             -0.0145110
      0.9221670              0.0669570              0.3102630
      0.3412870              1.0545100              0.7544830
SP   1   1.00
      0.1171670              1.0000000              1.0000000
D    1   1.00
      1.3000000              1.0000000
D    1   1.00
      0.3250000              1.0000000
F    1   1.00
      0.5500000              1.0000000
****
Cl     0
S    6   1.00
  25180.1000000              0.0018330
   3780.3500000              0.0140340
    860.4740000              0.0690970
    242.1450000              0.2374520
     77.3349000              0.4830340
     26.2470000              0.3398560
SP   6   1.00
    491.7650000             -0.0022974              0.0039894
    116.9840000             -0.0307140              0.0303180
     37.4153000             -0.1125280              0.1298800
     13.7834000              0.0450160              0.3279510
      5.4521500              0.5893530              0.4535270
      2.2258800              0.4652060              0.2521540
SP   3   1.00
      3.1864900             -0.2518300             -0.0142990
      1.1442700              0.0615890              0.3235720
      0.4203770              1.0601800              0.7435070
SP   1   1.00
      0.1426570              1.0000000              1.0000000
D    1   1.00
      1.5000000              1.0000000
D    1   1.00
      0.3750000              1.0000000
F    1   1.00
      0.7000000              1.0000000
****
}

set {
reference uhf
freeze_core true
e_convergence 10
d_convergence 10
dft_spherical_points 1202
dft_radial_points 99
}

e = energy('b3lyp')

print_out('Grab this energy {0}'.format(e))
--------------------------------------------------------------------------

    Molecular point group: c1

    Geometry (in Bohr), charge = 0, multiplicity = 2:

       Center              X                  Y                   Z               Mass
    ------------   -----------------  -----------------  -----------------  -----------------
         C           -0.323340624785    -0.000002050693     0.000000012758    12.000000000000
         C            0.061139871415    -1.401568710693    -2.425981789142    12.000000000000
         C            0.061020036415     2.801759536207    -0.000798005542    12.000000000000
         C            0.061139797515    -1.400186545493     2.426779789358    12.000000000000
         H            2.086937247715    -1.645469095993    -2.846651583742     1.007825032230
         H           -0.766076055585    -0.386882855993    -4.021136125642     1.007825032230
         H           -0.764894065985    -3.295087933593    -2.352326695742     1.007825032230
         H            2.086798233415     3.288104585307    -0.001582376642     1.007825032230
         H           -0.766316854785     3.675821614707     1.675486543758     1.007825032230
         H           -0.764972052685     3.684689998807    -1.677505182542     1.007825032230
         H            2.086937059815    -1.642727976293     2.848233092458     1.007825032230
         H           -0.766239363785    -3.288905784393     2.345656304858     1.007825032230
         H           -0.764730911885    -0.389569096793     4.029825934758     1.007825032230

  Charge       = 0
  Multiplicity = 2
  Basis Set: ANONYMOUS9054E9C9
    Blend: 6-31G_2DFP_
  Basis Set: (ANONYMOUS9054E9C9 AUX)
    Blend: DEF2-UNIVERSAL-JKFIT

    Orbital Energies [Eh]
    ---------------------

    Alpha Occupied:

       1A    -10.180342     2A    -10.167030     3A    -10.167030
       4A    -10.166984     5A     -0.797766     6A     -0.686187
       7A     -0.686187     8A     -0.530775     9A     -0.441124
      10A     -0.434673    11A     -0.434672    12A     -0.382599
      13A     -0.382597    14A     -0.363610    15A     -0.337999
      16A     -0.337999    17A     -0.168961

    Alpha Virtual:

      18A      0.076073    19A      0.134154    20A      0.134155
      21A      0.142629    22A      0.142629    23A      0.154879
      24A      0.178779    25A      0.178779    26A      0.203529
      27A      0.214819    28A      0.275984    29A      0.275986
      30A      0.399227    31A      0.399231    32A      0.403343
      33A      0.424098    34A      0.424098    35A      0.456593
      36A      0.495390    37A      0.495391    38A      0.512160
      39A      0.513980    40A      0.578813    41A      0.578821
      42A      0.591634    43A      0.591635    44A      0.602570
      45A      0.624688    46A      0.631853    47A      0.636244
      48A      0.636248    49A      0.663411    50A      0.663411
      51A      0.683852    52A      0.683853    53A      0.734993
      54A      0.825406    55A      0.825409    56A      0.853916
      57A      0.915023    58A      0.915029    59A      0.944020
      60A      0.944704    61A      0.961284    62A      0.961300
      63A      1.003468    64A      1.128101    65A      1.128114
      66A      1.142216    67A      1.163263    68A      1.163275
      69A      1.223325    70A      1.274496    71A      1.274500
      72A      1.279349    73A      1.324355    74A      1.324357
      75A      1.355977    76A      1.366047    77A      1.366051
      78A      1.392467    79A      1.404028    80A      1.404030
      81A      1.417124    82A      1.417131    83A      1.427914
      84A      1.491494    85A      1.499082    86A      1.542828
      87A      1.542831    88A      1.574444    89A      1.574446
      90A      1.669832    91A      1.739417    92A      1.739429
      93A      1.768317    94A      1.831395    95A      1.831396
      96A      1.971727    97A      2.018304    98A      2.019045
      99A      2.019049   100A      2.052637   101A      2.052637
     102A      2.738485   103A      2.738485   104A      2.790920
     105A      2.811429   106A      2.889954   107A      2.889960
     108A      2.894937   109A      2.929492   110A      2.929500
     111A      2.958997   112A      2.964368   113A      2.964382
     114A      3.034013   115A      3.071279   116A      3.071292
     117A      3.084345   118A      3.168779   119A      3.168787
     120A      3.180583   121A      3.285302   122A      3.285303
     123A      3.327173   124A      3.327179   125A      3.375615
     126A      3.490144   127A      3.490164   128A      3.513930
     129A      3.525420   130A      3.568377   131A      3.568398
     132A      3.575145   133A      3.666388   134A      3.666397
     135A      3.679649   136A      3.694097   137A      3.694113
     138A      3.776807   139A      3.776833   140A      3.789114
     141A      3.912235   142A      3.912242   143A      4.034462
     144A      4.111370   145A      4.111374   146A      4.148122
     147A      4.148130   148A      4.173229   149A      4.202640
     150A      4.203067   151A      4.203071   152A      4.210857
     153A      4.315949   154A      4.315969   155A      4.358959
     156A      4.424456   157A      4.424458   158A      4.443437
     159A      4.516840   160A      4.516841   161A      4.578265
     162A      4.578277   163A      4.617543   164A      4.709428
     165A      4.774584   166A      4.774592   167A      4.836912
     168A      4.962889   169A      5.002946   170A      5.002958
     171A      5.228039   172A      5.246814   173A      5.246815
     174A      5.355497   175A      5.355510   176A      5.479348

    Beta Occupied:

       1A    -10.167783     2A    -10.167783     3A    -10.167758
       4A    -10.166520     5A     -0.781091     6A     -0.683990
       7A     -0.683989     8A     -0.511747     9A     -0.431043
      10A     -0.431043    11A     -0.421823    12A     -0.376684
      13A     -0.376682    14A     -0.362594    15A     -0.333122
      16A     -0.333122

    Beta Virtual:

      17A     -0.025743    18A      0.077082    19A      0.135044
      20A      0.135044    21A      0.144499    22A      0.144500
      23A      0.163339    24A      0.182450    25A      0.182450
      26A      0.214983    27A      0.218977    28A      0.282332
      29A      0.282334    30A      0.400396    31A      0.400401
      32A      0.419790    33A      0.426909    34A      0.426909
      35A      0.468500    36A      0.497650    37A      0.497651
      38A      0.513896    39A      0.556325    40A      0.584363
      41A      0.584371    42A      0.597814    43A      0.597815
      44A      0.609993    45A      0.628007    46A      0.632065
      47A      0.639530    48A      0.639534    49A      0.666975
      50A      0.666975    51A      0.686487    52A      0.686488
      53A      0.757516    54A      0.830575    55A      0.830577
      56A      0.855269    57A      0.922994    58A      0.923000
      59A      0.945938    60A      0.953553    61A      0.966590
      62A      0.966606    63A      1.008707    64A      1.132128
      65A      1.132140    66A      1.155596    67A      1.168338
      68A      1.168351    69A      1.232297    70A      1.280092
      71A      1.280096    72A      1.285101    73A      1.329345
      74A      1.329347    75A      1.365392    76A      1.371289
      77A      1.371294    78A      1.393526    79A      1.407498
      80A      1.407501    81A      1.422171    82A      1.422178
      83A      1.428182    84A      1.492544    85A      1.509525
      86A      1.547237    87A      1.547237    88A      1.582317
      89A      1.582317    90A      1.674678    91A      1.745179
      92A      1.745190    93A      1.779097    94A      1.835250
      95A      1.835251    96A      1.972588    97A      2.025449
      98A      2.025452    99A      2.039677   100A      2.059350
     101A      2.059351   102A      2.746820   103A      2.746821
     104A      2.811831   105A      2.816065   106A      2.902642
     107A      2.902648   108A      2.924645   109A      2.931970
     110A      2.931979   111A      2.960063   112A      2.968913
     113A      2.968928   114A      3.041948   115A      3.081190
     116A      3.081201   117A      3.086161   118A      3.184536
     119A      3.184540   120A      3.188257   121A      3.290099
     122A      3.290100   123A      3.330980   124A      3.330985
     125A      3.383433   126A      3.492874   127A      3.492895
     128A      3.512317   129A      3.528442   130A      3.575007
     131A      3.581712   132A      3.581734   133A      3.671131
     134A      3.671142   135A      3.692942   136A      3.725735
     137A      3.725751   138A      3.781334   139A      3.781360
     140A      3.817660   141A      3.922051   142A      3.922059
     143A      4.045349   144A      4.118187   145A      4.118189
     146A      4.155328   147A      4.155337   148A      4.187289
     149A      4.209006   150A      4.209010   151A      4.210602
     152A      4.215336   153A      4.323390   154A      4.323410
     155A      4.362323   156A      4.432673   157A      4.432675
     158A      4.446316   159A      4.524631   160A      4.524632
     161A      4.588867   162A      4.588879   163A      4.624733
     164A      4.719771   165A      4.781537   166A      4.781545
     167A      4.839832   168A      4.967683   169A      5.006985
     170A      5.006998   171A      5.233755   172A      5.248599
     173A      5.248599   174A      5.361977   175A      5.361990
     176A      5.481670

    Final Occupation by Irrep:
              A
    DOCC [    16 ]
    SOCC [     1 ]

  @DF-UKS Final Energy:  -157.81306841718558

   => Energetics <=

    Nuclear Repulsion Energy =            125.3945898849620590
    One-Electron Energy =                -458.7488423211194686
    Two-Electron Energy =                 195.8483260049569878
    DFT Exchange-Correlation Energy =     -20.3071419859851474
    Empirical Dispersion Energy =           0.0000000000000000
    VV10 Nonlocal Energy =                  0.0000000000000000
    Total Energy =                       -157.8130684171855762

  UHF NO Occupations:
  HONO-2 :   15  A 1.9996009
  HONO-1 :   16  A 1.9989805
  HONO-0 :   17  A 1.0000000
  LUNO+0 :   18  A 0.0010195
  LUNO+1 :   19  A 0.0003991
  LUNO+2 :   20  A 0.0001975
  LUNO+3 :   21  A 0.0001975

Computation Completed

Properties will be evaluated at   0.000000,   0.000000,   0.000000 [a0]

Properties computed using the SCF density matrix

  Nuclear Dipole Moment: [e a0]
     X:     0.8272      Y:    -0.0000      Z:    -0.0000

  Electronic Dipole Moment: [e a0]
     X:    -0.7493      Y:     0.0000      Z:     0.0000

  Dipole Moment: [e a0]
     X:     0.0779      Y:     0.0000      Z:     0.0000     Total:     0.0779

  Dipole Moment: [D]
     X:     0.1980      Y:     0.0000      Z:     0.0000     Total:     0.1980

*** tstop() called on n056 at Fri Nov  5 15:26:14 2021
Module time:
	user time   =     514.92 seconds =       8.58 minutes
	system time =      11.59 seconds =       0.19 minutes
	total time  =        132 seconds =       2.20 minutes
Total time:
	user time   =     514.92 seconds =       8.58 minutes
	system time =      11.59 seconds =       0.19 minutes
	total time  =        132 seconds =       2.20 minutes
Grab this energy -157.81306841718558
    Psi4 stopped on: Friday, 05 November 2021 03:26PM
    Psi4 wall time for execution: 0:02:12.46

*** Psi4 exiting successfully. Buy a developer a beer!
