                               Psi4 1.4a2.dev629

  ==> Input File <==

--------------------------------------------------------------------------
import os
memory 14 GB

molecule {
 C   -0.3243652974   -0.0004958289   -0.0000000000
 C    0.0601280072   -1.4011991581   -2.4268678410
 C    0.0598632255    2.8010561645   -0.0000000000
 C    0.0601280072   -1.4011991581    2.4268678410
 H    2.0881583358   -1.6444110293   -2.8480313254
 H   -0.7651946216   -0.3917159822   -4.0233637456
 H   -0.7655133018   -3.2874976032   -2.3504984752
 H    2.0942936115    3.2880204266    0.0000000000
 H   -0.7687781278    3.6805212349    1.6781911379
 H   -0.7687781278    3.6805212349   -1.6781911379
 H    2.0881583358   -1.6444110293    2.8480313254
 H   -0.7655133018   -3.2874976032    2.3504984752
 H   -0.7651946216   -0.3917159822    4.0233637456
units bohr
0 2
}

basis {

assign 6-31g_2dfp_

[ 6-31g_2dfp_ ]

spherical

!----------------------------------------------------------------------
! Basis Set Exchange
! Version v0.8.13
! https://www.basissetexchange.org
!----------------------------------------------------------------------
!   Basis set: 6-31G(2df,p)
! Description: 6-31G(2df,p)
!        Role: orbital
!     Version: 0  (Data from the original Basis Set Exchange)
!----------------------------------------------------------------------

****
H     0
S    3   1.00
     18.7311370              0.03349460
      2.8253937              0.23472695
      0.6401217              0.81375733
S    1   1.00
      0.1612778              1.00000000
P    1   1.00
      1.5000000              1.0000000
P    1   1.00
      0.3750000              1.0000000
****
B     0
S    6   1.00
   2068.8823000              0.0018663
    310.6495700              0.0142515
     70.6830330              0.0695516
     19.8610800              0.2325729
      6.2993048              0.4670787
      2.1270270              0.3634314
SP   3   1.00
      4.7279710             -0.1303938              0.0745976
      1.1903377             -0.1307889              0.3078467
      0.3594117              1.1309444              0.7434568
SP   1   1.00
      0.1267512              1.0000000              1.0000000
D    1   1.00
      0.8020000              1.0000000
D    1   1.00
      0.2005000              1.0000000
F    1   1.00
      0.5000000              1.0000000
****
C     0
S    6   1.00
   3047.5249000              0.0018347
    457.3695100              0.0140373
    103.9486900              0.0688426
     29.2101550              0.2321844
      9.2866630              0.4679413
      3.1639270              0.3623120
SP   3   1.00
      7.8682724             -0.1193324              0.0689991
      1.8812885             -0.1608542              0.3164240
      0.5442493              1.1434564              0.7443083
SP   1   1.00
      0.1687144              1.0000000              1.0000000
D    1   1.00
      1.2520000              1.0000000
D    1   1.00
      0.3130000              1.0000000
F    1   1.00
      0.8000000              1.0000000
****
N     0
S    6   1.00
   4173.5110000              0.0018348
    627.4579000              0.0139950
    142.9021000              0.0685870
     40.2343300              0.2322410
     12.8202100              0.4690700
      4.3904370              0.3604550
SP   3   1.00
     11.6263580             -0.1149610              0.0675800
      2.7162800             -0.1691180              0.3239070
      0.7722180              1.1458520              0.7408950
SP   1   1.00
      0.2120313              1.0000000              1.0000000
D    1   1.00
      1.8260000              1.0000000
D    1   1.00
      0.4565000              1.0000000
F    1   1.00
      1.0000000              1.0000000
****
O     0
S    6   1.00
   5484.6717000              0.0018311
    825.2349500              0.0139501
    188.0469600              0.0684451
     52.9645000              0.2327143
     16.8975700              0.4701930
      5.7996353              0.3585209
SP   3   1.00
     15.5396160             -0.1107775              0.0708743
      3.5999336             -0.1480263              0.3397528
      1.0137618              1.1307670              0.7271586
SP   1   1.00
      0.2700058              1.0000000              1.0000000
D    1   1.00
      2.5840000              1.0000000
D    1   1.00
      0.6460000              1.0000000
F    1   1.00
      1.4000000              1.0000000
****
F     0
S    6   1.00
   7001.7130900              0.0018196169
   1051.3660900              0.0139160796
    239.2856900              0.0684053245
     67.3974453              0.233185760
     21.5199573              0.471267439
      7.40310130             0.356618546
SP   3   1.00
     20.8479528             -0.108506975            0.0716287243
      4.80830834            -0.146451658            0.3459121030
      1.34406986             1.128688580            0.7224699570
SP   1   1.00
      0.358151393            1.0000000              1.0000000
D    1   1.00
      3.5000000              1.0000000
D    1   1.00
      0.8750000              1.0000000
F    1   1.00
      1.8500000              1.0000000
****
Al     0
S    6   1.00
  13983.1000000              0.00194267
   2098.7500000              0.0148599
    477.7050000              0.0728494
    134.3600000              0.2468300
     42.8709000              0.4872580
     14.5189000              0.3234960
SP   6   1.00
    239.6680000             -0.00292619             0.00460285
     57.4419000             -0.0374080              0.0331990
     18.2859000             -0.1144870              0.1362820
      6.5991400              0.1156350              0.3304760
      2.4904900              0.6125950              0.4491460
      0.9445400              0.3937990              0.2657040
SP   3   1.00
      1.2779000             -0.2276060             -0.0175130
      0.3975900              0.00144583             0.2445330
      0.1600950              1.0927900              0.8049340
SP   1   1.00
      0.0556577              1.0000000              1.0000000
D    1   1.00
      0.6500000              1.0000000
D    1   1.00
      0.1625000              1.0000000
F    1   1.00
      0.2500000              1.0000000
****
Si     0
S    6   1.00
  16115.9000000              0.00195948
   2425.5800000              0.01492880
    553.8670000              0.07284780
    156.3400000              0.24613000
     50.0683000              0.48591400
     17.0178000              0.32500200
SP   6   1.00
    292.7180000             -0.00278094             0.00443826
     69.8731000             -0.03571460             0.03266790
     22.3363000             -0.11498500             0.13472100
      8.1503900              0.09356340             0.32867800
      3.1345800              0.60301700             0.44964000
      1.2254300              0.41895900             0.26137200
SP   3   1.00
      1.7273800             -0.24463000            -0.01779510
      0.5729220              0.00431572             0.25353900
      0.2221920              1.09818000             0.80066900
SP   1   1.00
      0.0778369              1.00000000             1.00000000
D    1   1.00
      0.9000000              1.0000000
D    1   1.00
      0.2250000              1.0000000
F    1   1.00
      0.3200000              1.0000000
****
P     0
S    6   1.00
  19413.3000000              0.0018516
   2909.4200000              0.0142062
    661.3640000              0.0699995
    185.7590000              0.2400790
     59.1943000              0.4847620
     20.0310000              0.3352000
SP   6   1.00
    339.4780000             -0.00278217             0.00456462
     81.0101000             -0.0360499              0.03369360
     25.8780000             -0.1166310              0.13975500
      9.4522100              0.0968328              0.33936200
      3.6656600              0.6144180              0.45092100
      1.4674600              0.4037980              0.23858600
SP   3   1.00
      2.1562300             -0.2529230             -0.01776530
      0.7489970              0.0328517              0.27405800
      0.2831450              1.0812500              0.78542100
SP   1   1.00
      0.0998317              1.0000000              1.00000000
D    1   1.00
      1.1000000              1.0000000
D    1   1.00
      0.2750000              1.0000000
F    1   1.00
      0.4500000              1.0000000
****
S     0
S    6   1.00
  21917.1000000              0.0018690
   3301.4900000              0.0142300
    754.1460000              0.0696960
    212.7110000              0.2384870
     67.9896000              0.4833070
     23.0515000              0.3380740
SP   6   1.00
    423.7350000             -0.0023767              0.0040610
    100.7100000             -0.0316930              0.0306810
     32.1599000             -0.1133170              0.1304520
     11.8079000              0.0560900              0.3272050
      4.6311000              0.5922550              0.4528510
      1.8702500              0.4550060              0.2560420
SP   3   1.00
      2.6158400             -0.2503740             -0.0145110
      0.9221670              0.0669570              0.3102630
      0.3412870              1.0545100              0.7544830
SP   1   1.00
      0.1171670              1.0000000              1.0000000
D    1   1.00
      1.3000000              1.0000000
D    1   1.00
      0.3250000              1.0000000
F    1   1.00
      0.5500000              1.0000000
****
Cl     0
S    6   1.00
  25180.1000000              0.0018330
   3780.3500000              0.0140340
    860.4740000              0.0690970
    242.1450000              0.2374520
     77.3349000              0.4830340
     26.2470000              0.3398560
SP   6   1.00
    491.7650000             -0.0022974              0.0039894
    116.9840000             -0.0307140              0.0303180
     37.4153000             -0.1125280              0.1298800
     13.7834000              0.0450160              0.3279510
      5.4521500              0.5893530              0.4535270
      2.2258800              0.4652060              0.2521540
SP   3   1.00
      3.1864900             -0.2518300             -0.0142990
      1.1442700              0.0615890              0.3235720
      0.4203770              1.0601800              0.7435070
SP   1   1.00
      0.1426570              1.0000000              1.0000000
D    1   1.00
      1.5000000              1.0000000
D    1   1.00
      0.3750000              1.0000000
F    1   1.00
      0.7000000              1.0000000
****
}

set {
reference uhf
freeze_core true
e_convergence 10
d_convergence 10
dft_spherical_points 1202
dft_radial_points 99
}

e = energy('b3lyp')

print_out('Grab this energy {0}'.format(e))
--------------------------------------------------------------------------

    Molecular point group: cs

    Geometry (in Bohr), charge = 0, multiplicity = 2:

       Center              X                  Y                   Z               Mass
    ------------   -----------------  -----------------  -----------------  -----------------
         C           -0.323555177510    -0.000141391236     0.000000000000    12.000000000000
         C            0.060938127090    -1.400844720436    -2.426867841000    12.000000000000
         C            0.060673345390     2.801410602164     0.000000000000    12.000000000000
         C            0.060938127090    -1.400844720436     2.426867841000    12.000000000000
         H            2.088968455690    -1.644056591636    -2.848031325400     1.007825032230
         H           -0.764384501710    -0.391361544536    -4.023363745600     1.007825032230
         H           -0.764703181910    -3.287143165536    -2.350498475200     1.007825032230
         H            2.095103731390     3.288374864264     0.000000000000     1.007825032230
         H           -0.767968007910     3.680875672564     1.678191137900     1.007825032230
         H           -0.767968007910     3.680875672564    -1.678191137900     1.007825032230
         H            2.088968455690    -1.644056591636     2.848031325400     1.007825032230
         H           -0.764703181910    -3.287143165536     2.350498475200     1.007825032230
         H           -0.764384501710    -0.391361544536     4.023363745600     1.007825032230

  Charge       = 0
  Multiplicity = 2
  Basis Set: ANONYMOUSF49377BD
    Blend: 6-31G_2DFP_
  Basis Set: (ANONYMOUSF49377BD AUX)
    Blend: DEF2-UNIVERSAL-JKFIT

    Orbital Energies [Eh]
    ---------------------

    Alpha Occupied:

       1Ap   -10.180401     2Ap   -10.167688     1App  -10.166698
       3Ap   -10.166667     4Ap    -0.797730     2App   -0.686504
       5Ap    -0.685862     6Ap    -0.530768     7Ap    -0.441026
       8Ap    -0.434803     3App   -0.434630     4App   -0.382684
       9Ap    -0.382239     5App   -0.363791    10Ap    -0.338085
       6App   -0.338020    11Ap    -0.168999

    Alpha Virtual:

      12Ap     0.076155    13Ap     0.134128     7App    0.134152
       8App    0.142592    14Ap     0.142825    15Ap     0.154708
      16Ap     0.178287     9App    0.178926    17Ap     0.203505
      10App    0.215079    11App    0.275915    18Ap     0.276007
      19Ap     0.399026    12App    0.399190    20Ap     0.403256
      13App    0.424190    21Ap     0.424381    22Ap     0.456517
      23Ap     0.495499    14App    0.495641    15App    0.512044
      24Ap     0.513825    25Ap     0.578511    16App    0.578773
      26Ap     0.591052    17App    0.591668    27Ap     0.601839
      28Ap     0.625278    18App    0.632074    19App    0.636325
      29Ap     0.637004    30Ap     0.662753    20App    0.663104
      31Ap     0.683797    21App    0.684425    32Ap     0.735057
      22App    0.824967    33Ap     0.825770    23App    0.853638
      24App    0.914789    34Ap     0.914819    25App    0.944417
      35Ap     0.944751    26App    0.960943    36Ap     0.961457
      37Ap     1.003267    38Ap     1.128024    27App    1.128694
      39Ap     1.141502    28App    1.163454    40Ap     1.163615
      41Ap     1.223738    42Ap     1.274067    29App    1.274434
      43Ap     1.279189    30App    1.323778    44Ap     1.324496
      45Ap     1.356498    46Ap     1.365713    31App    1.366233
      32App    1.392400    47Ap     1.402628    33App    1.403408
      48Ap     1.417776    34App    1.418404    35App    1.427700
      36App    1.491480    49Ap     1.498159    37App    1.542407
      50Ap     1.542527    38App    1.574535    51Ap     1.575095
      52Ap     1.671061    39App    1.738498    53Ap     1.738624
      54Ap     1.766471    55Ap     1.831250    40App    1.834405
      41App    1.972716    56Ap     2.017964    42App    2.018997
      57Ap     2.019283    43App    2.051297    58Ap     2.051568
      44App    2.738357    59Ap     2.739253    60Ap     2.790533
      45App    2.811885    61Ap     2.889257    46App    2.889858
      62Ap     2.894636    47App    2.929600    63Ap     2.929804
      48App    2.958875    64Ap     2.963441    49App    2.964491
      65Ap     3.033331    66Ap     3.071047    50App    3.071456
      51App    3.085786    52App    3.168532    67Ap     3.168781
      68Ap     3.180548    53App    3.285155    69Ap     3.285292
      54App    3.327746    70Ap     3.327841    71Ap     3.375777
      55App    3.489095    72Ap     3.490781    56App    3.512804
      73Ap     3.526546    74Ap     3.567958    57App    3.567963
      58App    3.574372    75Ap     3.665180    59App    3.666760
      76Ap     3.680250    77Ap     3.693930    60App    3.694752
      78Ap     3.776629    61App    3.777838    79Ap     3.788335
      80Ap     3.912326    62App    3.913232    81Ap     4.034859
      82Ap     4.110501    63App    4.112011    64App    4.145374
      83Ap     4.149553    84Ap     4.171540    85Ap     4.200931
      65App    4.204393    86Ap     4.205074    66App    4.210003
      87Ap     4.314833    67App    4.316222    68App    4.360186
      69App    4.423431    88Ap     4.423945    70App    4.443791
      89Ap     4.515913    71App    4.516429    72App    4.578538
      90Ap     4.579437    91Ap     4.617394    92Ap     4.708969
      93Ap     4.774634    73App    4.774822    74App    4.838230
      94Ap     4.963174    95Ap     5.001104    75App    5.002226
      96Ap     5.225131    76App    5.246078    97Ap     5.253508
      98Ap     5.350733    77App    5.356570    78App    5.481393

    Beta Occupied:

       1Ap   -10.168452     1App  -10.167450     2Ap   -10.167439
       3Ap   -10.166582     4Ap    -0.781062     2App   -0.684319
       5Ap    -0.683677     6Ap    -0.511789     7Ap    -0.431209
       3App   -0.431015     8Ap    -0.421665     4App   -0.376753
       9Ap    -0.376289     5App   -0.362784    10Ap    -0.333197
       6App   -0.333147

    Beta Virtual:

      11Ap    -0.025873    12Ap     0.077181     7App    0.135054
      13Ap     0.135150     8App    0.144486    14Ap     0.144618
      15Ap     0.163187    16Ap     0.181938     9App    0.182560
      10App    0.215301    17Ap     0.218886    11App    0.282265
      18Ap     0.282362    19Ap     0.400194    12App    0.400365
      20Ap     0.419799    13App    0.426997    21Ap     0.427195
      22Ap     0.468325    23Ap     0.497768    14App    0.497910
      15App    0.513786    24Ap     0.556132    25Ap     0.584081
      16App    0.584357    26Ap     0.597249    17App    0.597816
      27Ap     0.609380    28Ap     0.628530    18App    0.632272
      19App    0.639553    29Ap     0.640231    30Ap     0.666334
      20App    0.666711    31Ap     0.686454    21App    0.687014
      32Ap     0.757576    22App    0.830130    33Ap     0.830987
      23App    0.855001    24App    0.922780    34Ap     0.922805
      25App    0.946245    35Ap     0.953729    26App    0.966243
      36Ap     0.966701    37Ap     1.008467    38Ap     1.132075
      27App    1.132774    39Ap     1.154958    28App    1.168488
      40Ap     1.168678    41Ap     1.232695    42Ap     1.279640
      29App    1.280011    43Ap     1.284886    30App    1.328767
      44Ap     1.329579    45Ap     1.365887    46Ap     1.371050
      31App    1.371535    32App    1.393475    47Ap     1.406017
      33App    1.406834    48Ap     1.422748    34App    1.423465
      35App    1.427976    36App    1.492503    49Ap     1.508609
      37App    1.546801    50Ap     1.547009    38App    1.582396
      51Ap     1.582943    52Ap     1.675957    39App    1.744269
      53Ap     1.744370    54Ap     1.777236    55Ap     1.835136
      40App    1.838233    41App    1.973566    56Ap     2.025217
      42App    2.025315    57Ap     2.039585    43App    2.058077
      58Ap     2.058475    44App    2.746687    59Ap     2.747612
      45App    2.812299    60Ap     2.815632    61Ap     2.902029
      46App    2.902436    62Ap     2.924115    47App    2.932132
      63Ap     2.932239    48App    2.959936    64Ap     2.967912
      49App    2.969038    65Ap     3.041480    66Ap     3.080889
      50App    3.081383    51App    3.087629    52App    3.184262
      67Ap     3.184564    68Ap     3.188231    53App    3.289958
      69Ap     3.290149    54App    3.331535    70Ap     3.331589
      71Ap     3.383570    55App    3.491817    72Ap     3.493440
      56App    3.511167    73Ap     3.529576    57App    3.574125
      74Ap     3.581500    58App    3.581544    75Ap     3.669803
      59App    3.671466    76Ap     3.693547    77Ap     3.725512
      60App    3.726380    78Ap     3.781121    61App    3.782274
      79Ap     3.816907    80Ap     3.922213    62App    3.923092
      81Ap     4.045804    82Ap     4.117539    63App    4.118587
      64App    4.152802    83Ap     4.156562    84Ap     4.185617
      85Ap     4.207817    65App    4.210482    86Ap     4.212098
      66App    4.214628    87Ap     4.322332    67App    4.323471
      68App    4.363506    69App    4.431656    88Ap     4.432104
      70App    4.446666    89Ap     4.523799    71App    4.524194
      72App    4.589144    90Ap     4.589950    91Ap     4.624494
      92Ap     4.719429    93Ap     4.781506    73App    4.781757
      74App    4.841135    94Ap     4.967983    95Ap     5.005186
      75App    5.006274    96Ap     5.230810    76App    5.247850
      97Ap     5.255283    98Ap     5.357195    77App    5.363008
      78App    5.483701

    Final Occupation by Irrep:
             Ap   App
    DOCC [    10,    6 ]
    SOCC [     1,    0 ]

  @DF-UKS Final Energy:  -157.81304496439117

   => Energetics <=

    Nuclear Repulsion Energy =            125.3893336380202754
    One-Electron Energy =                -458.7382336992966998
    Two-Electron Energy =                 195.8428964616322503
    DFT Exchange-Correlation Energy =     -20.3070413647470041
    Empirical Dispersion Energy =           0.0000000000000000
    VV10 Nonlocal Energy =                  0.0000000000000000
    Total Energy =                       -157.8130449643911675

  UHF NO Occupations:
  HONO-2 :    9 Ap 1.9995985
  HONO-1 :   10 Ap 1.9989796
  HONO-0 :   11 Ap 1.0000000
  LUNO+0 :   12 Ap 0.0010204
  LUNO+1 :   13 Ap 0.0004015
  LUNO+2 :   14 Ap 0.0001976
  LUNO+3 :    7App 0.0001975

Computation Completed

Properties will be evaluated at   0.000000,   0.000000,   0.000000 [a0]

Properties computed using the SCF density matrix

  Nuclear Dipole Moment: [e a0]
     X:     0.8329      Y:     0.0025      Z:     0.0000

  Electronic Dipole Moment: [e a0]
     X:    -0.7582      Y:    -0.0049      Z:     0.0000

  Dipole Moment: [e a0]
     X:     0.0747      Y:    -0.0024      Z:     0.0000     Total:     0.0748

  Dipole Moment: [D]
     X:     0.1899      Y:    -0.0062      Z:     0.0000     Total:     0.1900

*** tstop() called on n031 at Fri Nov  5 14:49:30 2021
Module time:
	user time   =     632.69 seconds =      10.54 minutes
	system time =      12.21 seconds =       0.20 minutes
	total time  =        162 seconds =       2.70 minutes
Total time:
	user time   =     632.69 seconds =      10.54 minutes
	system time =      12.21 seconds =       0.20 minutes
	total time  =        162 seconds =       2.70 minutes
Grab this energy -157.81304496439117
    Psi4 stopped on: Friday, 05 November 2021 02:49PM
    Psi4 wall time for execution: 0:02:42.31

*** Psi4 exiting successfully. Buy a developer a beer!
