                               Psi4 1.4a2.dev629

  ==> Input File <==

--------------------------------------------------------------------------
import os
memory 14 GB

molecule {
 C   -0.3218901055   -0.0002605239   -0.0000000000
 C    0.0592598823   -1.4003501430   -2.4267983780
 C    0.0622141601    2.8018445054    0.0000000000
 C    0.0592598823   -1.4003501430    2.4267983780
 H    2.0870897321   -1.6442516529   -2.8472962473
 H   -0.7650420188   -0.3882281669   -4.0255289034
 H   -0.7649690976   -3.2922455554   -2.3488097162
 H    2.0866465359    3.2880643430   -0.0000000000
 H   -0.7661277316    3.6802391991    1.6763465982
 H   -0.7661277316    3.6802391991   -1.6763465982
 H    2.0870897321   -1.6442516529    2.8472962473
 H   -0.7649690976   -3.2922455554    2.3488097162
 H   -0.7650420188   -0.3882281669    4.0255289034
units bohr
0 2
}

basis {

assign 6-31g_2dfp_

[ 6-31g_2dfp_ ]

spherical

!----------------------------------------------------------------------
! Basis Set Exchange
! Version v0.8.13
! https://www.basissetexchange.org
!----------------------------------------------------------------------
!   Basis set: 6-31G(2df,p)
! Description: 6-31G(2df,p)
!        Role: orbital
!     Version: 0  (Data from the original Basis Set Exchange)
!----------------------------------------------------------------------

****
H     0
S    3   1.00
     18.7311370              0.03349460
      2.8253937              0.23472695
      0.6401217              0.81375733
S    1   1.00
      0.1612778              1.00000000
P    1   1.00
      1.5000000              1.0000000
P    1   1.00
      0.3750000              1.0000000
****
B     0
S    6   1.00
   2068.8823000              0.0018663
    310.6495700              0.0142515
     70.6830330              0.0695516
     19.8610800              0.2325729
      6.2993048              0.4670787
      2.1270270              0.3634314
SP   3   1.00
      4.7279710             -0.1303938              0.0745976
      1.1903377             -0.1307889              0.3078467
      0.3594117              1.1309444              0.7434568
SP   1   1.00
      0.1267512              1.0000000              1.0000000
D    1   1.00
      0.8020000              1.0000000
D    1   1.00
      0.2005000              1.0000000
F    1   1.00
      0.5000000              1.0000000
****
C     0
S    6   1.00
   3047.5249000              0.0018347
    457.3695100              0.0140373
    103.9486900              0.0688426
     29.2101550              0.2321844
      9.2866630              0.4679413
      3.1639270              0.3623120
SP   3   1.00
      7.8682724             -0.1193324              0.0689991
      1.8812885             -0.1608542              0.3164240
      0.5442493              1.1434564              0.7443083
SP   1   1.00
      0.1687144              1.0000000              1.0000000
D    1   1.00
      1.2520000              1.0000000
D    1   1.00
      0.3130000              1.0000000
F    1   1.00
      0.8000000              1.0000000
****
N     0
S    6   1.00
   4173.5110000              0.0018348
    627.4579000              0.0139950
    142.9021000              0.0685870
     40.2343300              0.2322410
     12.8202100              0.4690700
      4.3904370              0.3604550
SP   3   1.00
     11.6263580             -0.1149610              0.0675800
      2.7162800             -0.1691180              0.3239070
      0.7722180              1.1458520              0.7408950
SP   1   1.00
      0.2120313              1.0000000              1.0000000
D    1   1.00
      1.8260000              1.0000000
D    1   1.00
      0.4565000              1.0000000
F    1   1.00
      1.0000000              1.0000000
****
O     0
S    6   1.00
   5484.6717000              0.0018311
    825.2349500              0.0139501
    188.0469600              0.0684451
     52.9645000              0.2327143
     16.8975700              0.4701930
      5.7996353              0.3585209
SP   3   1.00
     15.5396160             -0.1107775              0.0708743
      3.5999336             -0.1480263              0.3397528
      1.0137618              1.1307670              0.7271586
SP   1   1.00
      0.2700058              1.0000000              1.0000000
D    1   1.00
      2.5840000              1.0000000
D    1   1.00
      0.6460000              1.0000000
F    1   1.00
      1.4000000              1.0000000
****
F     0
S    6   1.00
   7001.7130900              0.0018196169
   1051.3660900              0.0139160796
    239.2856900              0.0684053245
     67.3974453              0.233185760
     21.5199573              0.471267439
      7.40310130             0.356618546
SP   3   1.00
     20.8479528             -0.108506975            0.0716287243
      4.80830834            -0.146451658            0.3459121030
      1.34406986             1.128688580            0.7224699570
SP   1   1.00
      0.358151393            1.0000000              1.0000000
D    1   1.00
      3.5000000              1.0000000
D    1   1.00
      0.8750000              1.0000000
F    1   1.00
      1.8500000              1.0000000
****
Al     0
S    6   1.00
  13983.1000000              0.00194267
   2098.7500000              0.0148599
    477.7050000              0.0728494
    134.3600000              0.2468300
     42.8709000              0.4872580
     14.5189000              0.3234960
SP   6   1.00
    239.6680000             -0.00292619             0.00460285
     57.4419000             -0.0374080              0.0331990
     18.2859000             -0.1144870              0.1362820
      6.5991400              0.1156350              0.3304760
      2.4904900              0.6125950              0.4491460
      0.9445400              0.3937990              0.2657040
SP   3   1.00
      1.2779000             -0.2276060             -0.0175130
      0.3975900              0.00144583             0.2445330
      0.1600950              1.0927900              0.8049340
SP   1   1.00
      0.0556577              1.0000000              1.0000000
D    1   1.00
      0.6500000              1.0000000
D    1   1.00
      0.1625000              1.0000000
F    1   1.00
      0.2500000              1.0000000
****
Si     0
S    6   1.00
  16115.9000000              0.00195948
   2425.5800000              0.01492880
    553.8670000              0.07284780
    156.3400000              0.24613000
     50.0683000              0.48591400
     17.0178000              0.32500200
SP   6   1.00
    292.7180000             -0.00278094             0.00443826
     69.8731000             -0.03571460             0.03266790
     22.3363000             -0.11498500             0.13472100
      8.1503900              0.09356340             0.32867800
      3.1345800              0.60301700             0.44964000
      1.2254300              0.41895900             0.26137200
SP   3   1.00
      1.7273800             -0.24463000            -0.01779510
      0.5729220              0.00431572             0.25353900
      0.2221920              1.09818000             0.80066900
SP   1   1.00
      0.0778369              1.00000000             1.00000000
D    1   1.00
      0.9000000              1.0000000
D    1   1.00
      0.2250000              1.0000000
F    1   1.00
      0.3200000              1.0000000
****
P     0
S    6   1.00
  19413.3000000              0.0018516
   2909.4200000              0.0142062
    661.3640000              0.0699995
    185.7590000              0.2400790
     59.1943000              0.4847620
     20.0310000              0.3352000
SP   6   1.00
    339.4780000             -0.00278217             0.00456462
     81.0101000             -0.0360499              0.03369360
     25.8780000             -0.1166310              0.13975500
      9.4522100              0.0968328              0.33936200
      3.6656600              0.6144180              0.45092100
      1.4674600              0.4037980              0.23858600
SP   3   1.00
      2.1562300             -0.2529230             -0.01776530
      0.7489970              0.0328517              0.27405800
      0.2831450              1.0812500              0.78542100
SP   1   1.00
      0.0998317              1.0000000              1.00000000
D    1   1.00
      1.1000000              1.0000000
D    1   1.00
      0.2750000              1.0000000
F    1   1.00
      0.4500000              1.0000000
****
S     0
S    6   1.00
  21917.1000000              0.0018690
   3301.4900000              0.0142300
    754.1460000              0.0696960
    212.7110000              0.2384870
     67.9896000              0.4833070
     23.0515000              0.3380740
SP   6   1.00
    423.7350000             -0.0023767              0.0040610
    100.7100000             -0.0316930              0.0306810
     32.1599000             -0.1133170              0.1304520
     11.8079000              0.0560900              0.3272050
      4.6311000              0.5922550              0.4528510
      1.8702500              0.4550060              0.2560420
SP   3   1.00
      2.6158400             -0.2503740             -0.0145110
      0.9221670              0.0669570              0.3102630
      0.3412870              1.0545100              0.7544830
SP   1   1.00
      0.1171670              1.0000000              1.0000000
D    1   1.00
      1.3000000              1.0000000
D    1   1.00
      0.3250000              1.0000000
F    1   1.00
      0.5500000              1.0000000
****
Cl     0
S    6   1.00
  25180.1000000              0.0018330
   3780.3500000              0.0140340
    860.4740000              0.0690970
    242.1450000              0.2374520
     77.3349000              0.4830340
     26.2470000              0.3398560
SP   6   1.00
    491.7650000             -0.0022974              0.0039894
    116.9840000             -0.0307140              0.0303180
     37.4153000             -0.1125280              0.1298800
     13.7834000              0.0450160              0.3279510
      5.4521500              0.5893530              0.4535270
      2.2258800              0.4652060              0.2521540
SP   3   1.00
      3.1864900             -0.2518300             -0.0142990
      1.1442700              0.0615890              0.3235720
      0.4203770              1.0601800              0.7435070
SP   1   1.00
      0.1426570              1.0000000              1.0000000
D    1   1.00
      1.5000000              1.0000000
D    1   1.00
      0.3750000              1.0000000
F    1   1.00
      0.7000000              1.0000000
****
}

set {
reference uhf
freeze_core true
e_convergence 10
d_convergence 10
dft_spherical_points 1202
dft_radial_points 99
}

e = energy('b3lyp')

print_out('Grab this energy {0}'.format(e))
--------------------------------------------------------------------------

    Molecular point group: cs

    Geometry (in Bohr), charge = 0, multiplicity = 2:

       Center              X                  Y                   Z               Mass
    ------------   -----------------  -----------------  -----------------  -----------------
         C           -0.321675118119    -0.000430300655     0.000000000000    12.000000000000
         C            0.059474869681    -1.400519919755    -2.426798378000    12.000000000000
         C            0.062429147481     2.801674728645     0.000000000000    12.000000000000
         C            0.059474869681    -1.400519919755     2.426798378000    12.000000000000
         H            2.087304719481    -1.644421429655    -2.847296247300     1.007825032230
         H           -0.764827031419    -0.388397943655    -4.025528903400     1.007825032230
         H           -0.764754110219    -3.292415332155    -2.348809716200     1.007825032230
         H            2.086861523281     3.287894566245     0.000000000000     1.007825032230
         H           -0.765912744219     3.680069422345     1.676346598200     1.007825032230
         H           -0.765912744219     3.680069422345    -1.676346598200     1.007825032230
         H            2.087304719481    -1.644421429655     2.847296247300     1.007825032230
         H           -0.764754110219    -3.292415332155     2.348809716200     1.007825032230
         H           -0.764827031419    -0.388397943655     4.025528903400     1.007825032230

  Charge       = 0
  Multiplicity = 2
  Basis Set: ANONYMOUS2A51D8EE
    Blend: 6-31G_2DFP_
  Basis Set: (ANONYMOUS2A51D8EE AUX)
    Blend: DEF2-UNIVERSAL-JKFIT

    Orbital Energies [Eh]
    ---------------------

    Alpha Occupied:

       1Ap   -10.180277     1App  -10.167055     2Ap   -10.167035
       3Ap   -10.166980     4Ap    -0.797781     2App   -0.686237
       5Ap    -0.686171     6Ap    -0.530770     7Ap    -0.441069
       8Ap    -0.434833     3App   -0.434634     9Ap    -0.382643
       4App   -0.382341     5App   -0.363738     6App   -0.338174
      10Ap    -0.338006    11Ap    -0.168778

    Alpha Virtual:

      12Ap     0.076069     7App    0.134127    13Ap     0.134192
       8App    0.142590    14Ap     0.142713    15Ap     0.154799
       9App    0.178596    16Ap     0.178824    17Ap     0.203521
      10App    0.214850    18Ap     0.276104    11App    0.276212
      19Ap     0.399086    12App    0.399409    20Ap     0.403427
      21Ap     0.424077    13App    0.424173    22Ap     0.456499
      23Ap     0.495386    14App    0.495443    15App    0.512115
      24Ap     0.514078    16App    0.578607    25Ap     0.578772
      17App    0.591487    26Ap     0.591725    27Ap     0.602353
      28Ap     0.624843    18App    0.631835    19App    0.636296
      29Ap     0.636514    20App    0.663084    30Ap     0.663424
      31Ap     0.683812    21App    0.684111    32Ap     0.735191
      33Ap     0.825450    22App    0.825474    23App    0.853914
      24App    0.915067    34Ap     0.915114    25App    0.944079
      35Ap     0.944565    26App    0.961189    36Ap     0.961360
      37Ap     1.003452    27App    1.127918    38Ap     1.128113
      39Ap     1.142203    28App    1.162748    40Ap     1.162929
      41Ap     1.223486    29App    1.274417    42Ap     1.274692
      43Ap     1.279117    30App    1.324351    44Ap     1.324864
      45Ap     1.355748    46Ap     1.366130    31App    1.366732
      32App    1.392447    33App    1.403884    47Ap     1.404130
      34App    1.416577    48Ap     1.417171    35App    1.427860
      36App    1.491676    49Ap     1.498687    37App    1.542738
      50Ap     1.542819    51Ap     1.574576    38App    1.574886
      52Ap     1.670095    39App    1.739261    53Ap     1.740052
      54Ap     1.768268    55Ap     1.831585    40App    1.831979
      41App    1.971991    42App    2.018132    56Ap     2.019092
      57Ap     2.019579    43App    2.051873    58Ap     2.052621
      44App    2.738640    59Ap     2.738718    60Ap     2.790726
      45App    2.811458    61Ap     2.889927    46App    2.890481
      62Ap     2.894631    63Ap     2.929441    47App    2.929512
      48App    2.959064    49App    2.964387    64Ap     2.964581
      65Ap     3.033654    66Ap     3.072014    50App    3.072232
      51App    3.084430    52App    3.168547    67Ap     3.168778
      68Ap     3.180621    53App    3.284477    69Ap     3.284554
      54App    3.326662    70Ap     3.326953    71Ap     3.375450
      72Ap     3.490094    55App    3.490691    56App    3.514198
      73Ap     3.524864    57App    3.568558    74Ap     3.568800
      58App    3.574523    59App    3.666674    75Ap     3.667256
      76Ap     3.679872    77Ap     3.694050    60App    3.694060
      61App    3.777055    78Ap     3.777121    79Ap     3.790383
      80Ap     3.912160    62App    3.912331    81Ap     4.034766
      82Ap     4.111520    63App    4.111704    83Ap     4.148099
      64App    4.148215    84Ap     4.173280    65App    4.202612
      85Ap     4.202686    86Ap     4.203307    66App    4.210791
      87Ap     4.315323    67App    4.316190    68App    4.358504
      88Ap     4.424485    69App    4.424737    70App    4.443677
      71App    4.515499    89Ap     4.517593    90Ap     4.577960
      72App    4.578367    91Ap     4.618027    92Ap     4.709120
      73App    4.774228    93Ap     4.775257    74App    4.838104
      94Ap     4.962764    75App    5.002335    95Ap     5.003255
      96Ap     5.228158    76App    5.246894    97Ap     5.246939
      98Ap     5.355509    77App    5.356056    78App    5.479715

    Beta Occupied:

       1App  -10.167811     1Ap   -10.167796     2Ap   -10.167748
       3Ap   -10.166458     4Ap    -0.781102     2App   -0.684042
       5Ap    -0.683976     6Ap    -0.511750     7Ap    -0.431222
       3App   -0.431010     8Ap    -0.421733     9Ap    -0.376725
       4App   -0.376407     5App   -0.362723     6App   -0.333295
      10Ap    -0.333124

    Beta Virtual:

      11Ap    -0.025641    12Ap     0.077083     7App    0.135035
      13Ap     0.135084     8App    0.144461    14Ap     0.144577
      15Ap     0.163269     9App    0.182265    16Ap     0.182496
      10App    0.215079    17Ap     0.218926    18Ap     0.282443
      11App    0.282545    19Ap     0.400258    12App    0.400580
      20Ap     0.419897    21Ap     0.426884    13App    0.426984
      22Ap     0.468393    23Ap     0.497646    14App    0.497695
      15App    0.513854    24Ap     0.556424    16App    0.584175
      25Ap     0.584331    17App    0.597657    26Ap     0.597903
      27Ap     0.609803    28Ap     0.628194    18App    0.631990
      19App    0.639575    29Ap     0.639796    20App    0.666662
      30Ap     0.666969    31Ap     0.686450    21App    0.686754
      32Ap     0.757693    33Ap     0.830617    22App    0.830637
      23App    0.855271    24App    0.923028    34Ap     0.923074
      25App    0.945918    35Ap     0.953500    26App    0.966522
      36Ap     0.966706    37Ap     1.008673    27App    1.131899
      38Ap     1.132172    39Ap     1.155614    28App    1.167872
      40Ap     1.167956    41Ap     1.232462    29App    1.279994
      42Ap     1.280278    43Ap     1.284862    30App    1.329322
      44Ap     1.329855    45Ap     1.365189    46Ap     1.371377
      31App    1.371979    32App    1.393511    33App    1.407338
      47Ap     1.407610    34App    1.421664    48Ap     1.422228
      35App    1.428123    36App    1.492726    49Ap     1.509123
      50Ap     1.547157    37App    1.547217    51Ap     1.582502
      38App    1.582703    52Ap     1.674926    39App    1.745031
      53Ap     1.745809    54Ap     1.779068    55Ap     1.835449
      40App    1.835842    41App    1.972852    42App    2.024520
      56Ap     2.025786    57Ap     2.040681    43App    2.058593
      58Ap     2.059289    44App    2.746980    59Ap     2.747049
      45App    2.811861    60Ap     2.815881    61Ap     2.902582
      46App    2.903116    62Ap     2.924356    63Ap     2.931935
      47App    2.932002    48App    2.960126    49App    2.968925
      64Ap     2.969111    65Ap     3.041631    66Ap     3.081890
      50App    3.082083    51App    3.086264    52App    3.184422
      67Ap     3.184602    68Ap     3.188256    53App    3.289325
      69Ap     3.289382    54App    3.330443    70Ap     3.330763
      71Ap     3.383259    72Ap     3.492807    55App    3.493402
      56App    3.512557    73Ap     3.527901    57App    3.574377
      58App    3.581921    74Ap     3.582034    59App    3.671500
      75Ap     3.671959    76Ap     3.693171    60App    3.725529
      77Ap     3.725834    61App    3.781551    78Ap     3.781597
      79Ap     3.818938    80Ap     3.921997    62App    3.922201
      81Ap     4.045625    82Ap     4.118405    63App    4.118479
      83Ap     4.155247    64App    4.155455    84Ap     4.187382
      65App    4.208549    85Ap     4.208879    86Ap     4.211011
      66App    4.215285    87Ap     4.322718    67App    4.323633
      68App    4.361868    88Ap     4.432753    69App    4.432982
      70App    4.446555    71App    4.523310    89Ap     4.525398
      90Ap     4.588542    72App    4.588921    91Ap     4.625227
      92Ap     4.719440    73App    4.781184    93Ap     4.782178
      74App    4.841010    94Ap     4.967562    75App    5.006406
      95Ap     5.007290    96Ap     5.233872    76App    5.248678
      97Ap     5.248723    98Ap     5.361983    77App    5.362527
      78App    5.482030

    Final Occupation by Irrep:
             Ap   App
    DOCC [    10,    6 ]
    SOCC [     1,    0 ]

  @DF-UKS Final Energy:  -157.81307933092128

   => Energetics <=

    Nuclear Repulsion Energy =            125.3970218990060062
    One-Electron Energy =                -458.7535472714261005
    Two-Electron Energy =                 195.8506567260616862
    DFT Exchange-Correlation Energy =     -20.3072106845628682
    Empirical Dispersion Energy =           0.0000000000000000
    VV10 Nonlocal Energy =                  0.0000000000000000
    Total Energy =                       -157.8130793309212834

  UHF NO Occupations:
  HONO-2 :    9 Ap 1.9995994
  HONO-1 :   10 Ap 1.9989790
  HONO-0 :   11 Ap 1.0000000
  LUNO+0 :   12 Ap 0.0010210
  LUNO+1 :   13 Ap 0.0004006
  LUNO+2 :   14 Ap 0.0001975
  LUNO+3 :    7App 0.0001973

Computation Completed

Properties will be evaluated at   0.000000,   0.000000,   0.000000 [a0]

Properties computed using the SCF density matrix

  Nuclear Dipole Moment: [e a0]
     X:     0.8287      Y:    -0.0012      Z:    -0.0000

  Electronic Dipole Moment: [e a0]
     X:    -0.7516      Y:     0.0011      Z:     0.0000

  Dipole Moment: [e a0]
     X:     0.0771      Y:    -0.0001      Z:    -0.0000     Total:     0.0771

  Dipole Moment: [D]
     X:     0.1961      Y:    -0.0003      Z:    -0.0000     Total:     0.1961

*** tstop() called on n080 at Fri Nov  5 11:29:10 2021
Module time:
	user time   =     562.88 seconds =       9.38 minutes
	system time =       5.26 seconds =       0.09 minutes
	total time  =        143 seconds =       2.38 minutes
Total time:
	user time   =     562.88 seconds =       9.38 minutes
	system time =       5.26 seconds =       0.09 minutes
	total time  =        143 seconds =       2.38 minutes
Grab this energy -157.81307933092128
    Psi4 stopped on: Friday, 05 November 2021 11:29AM
    Psi4 wall time for execution: 0:02:22.85

*** Psi4 exiting successfully. Buy a developer a beer!
