                               Psi4 1.4a2.dev629

  ==> Input File <==

--------------------------------------------------------------------------
import os
memory 14 GB

molecule {
 C   -0.3233418009   -0.0024291032    0.0000010512
 C    0.0607396818   -1.4021930892   -2.4248961409
 C    0.0618152115    2.8030140873   -0.0007981546
 C    0.0607413383   -1.4008115397    2.4256949187
 H    2.0856466705   -1.6431627778   -2.8484590989
 H   -0.7705521568   -0.3873224571   -4.0163241332
 H   -0.7618282048   -3.2982207459   -2.3517490039
 H    2.0893667797    3.2872837768   -0.0015841521
 H   -0.7649029884    3.6787052472    1.6752486912
 H   -0.7635537955    3.6875732562   -1.6772614662
 H    2.0856468193   -1.6404201736    2.8500344942
 H   -0.7631737389   -3.2920471699    2.3450717996
 H   -0.7692116923   -0.3899936247    4.0250211950
units bohr
0 2
}

basis {

assign 6-31g_2dfp_

[ 6-31g_2dfp_ ]

spherical

!----------------------------------------------------------------------
! Basis Set Exchange
! Version v0.8.13
! https://www.basissetexchange.org
!----------------------------------------------------------------------
!   Basis set: 6-31G(2df,p)
! Description: 6-31G(2df,p)
!        Role: orbital
!     Version: 0  (Data from the original Basis Set Exchange)
!----------------------------------------------------------------------

****
H     0
S    3   1.00
     18.7311370              0.03349460
      2.8253937              0.23472695
      0.6401217              0.81375733
S    1   1.00
      0.1612778              1.00000000
P    1   1.00
      1.5000000              1.0000000
P    1   1.00
      0.3750000              1.0000000
****
B     0
S    6   1.00
   2068.8823000              0.0018663
    310.6495700              0.0142515
     70.6830330              0.0695516
     19.8610800              0.2325729
      6.2993048              0.4670787
      2.1270270              0.3634314
SP   3   1.00
      4.7279710             -0.1303938              0.0745976
      1.1903377             -0.1307889              0.3078467
      0.3594117              1.1309444              0.7434568
SP   1   1.00
      0.1267512              1.0000000              1.0000000
D    1   1.00
      0.8020000              1.0000000
D    1   1.00
      0.2005000              1.0000000
F    1   1.00
      0.5000000              1.0000000
****
C     0
S    6   1.00
   3047.5249000              0.0018347
    457.3695100              0.0140373
    103.9486900              0.0688426
     29.2101550              0.2321844
      9.2866630              0.4679413
      3.1639270              0.3623120
SP   3   1.00
      7.8682724             -0.1193324              0.0689991
      1.8812885             -0.1608542              0.3164240
      0.5442493              1.1434564              0.7443083
SP   1   1.00
      0.1687144              1.0000000              1.0000000
D    1   1.00
      1.2520000              1.0000000
D    1   1.00
      0.3130000              1.0000000
F    1   1.00
      0.8000000              1.0000000
****
N     0
S    6   1.00
   4173.5110000              0.0018348
    627.4579000              0.0139950
    142.9021000              0.0685870
     40.2343300              0.2322410
     12.8202100              0.4690700
      4.3904370              0.3604550
SP   3   1.00
     11.6263580             -0.1149610              0.0675800
      2.7162800             -0.1691180              0.3239070
      0.7722180              1.1458520              0.7408950
SP   1   1.00
      0.2120313              1.0000000              1.0000000
D    1   1.00
      1.8260000              1.0000000
D    1   1.00
      0.4565000              1.0000000
F    1   1.00
      1.0000000              1.0000000
****
O     0
S    6   1.00
   5484.6717000              0.0018311
    825.2349500              0.0139501
    188.0469600              0.0684451
     52.9645000              0.2327143
     16.8975700              0.4701930
      5.7996353              0.3585209
SP   3   1.00
     15.5396160             -0.1107775              0.0708743
      3.5999336             -0.1480263              0.3397528
      1.0137618              1.1307670              0.7271586
SP   1   1.00
      0.2700058              1.0000000              1.0000000
D    1   1.00
      2.5840000              1.0000000
D    1   1.00
      0.6460000              1.0000000
F    1   1.00
      1.4000000              1.0000000
****
F     0
S    6   1.00
   7001.7130900              0.0018196169
   1051.3660900              0.0139160796
    239.2856900              0.0684053245
     67.3974453              0.233185760
     21.5199573              0.471267439
      7.40310130             0.356618546
SP   3   1.00
     20.8479528             -0.108506975            0.0716287243
      4.80830834            -0.146451658            0.3459121030
      1.34406986             1.128688580            0.7224699570
SP   1   1.00
      0.358151393            1.0000000              1.0000000
D    1   1.00
      3.5000000              1.0000000
D    1   1.00
      0.8750000              1.0000000
F    1   1.00
      1.8500000              1.0000000
****
Al     0
S    6   1.00
  13983.1000000              0.00194267
   2098.7500000              0.0148599
    477.7050000              0.0728494
    134.3600000              0.2468300
     42.8709000              0.4872580
     14.5189000              0.3234960
SP   6   1.00
    239.6680000             -0.00292619             0.00460285
     57.4419000             -0.0374080              0.0331990
     18.2859000             -0.1144870              0.1362820
      6.5991400              0.1156350              0.3304760
      2.4904900              0.6125950              0.4491460
      0.9445400              0.3937990              0.2657040
SP   3   1.00
      1.2779000             -0.2276060             -0.0175130
      0.3975900              0.00144583             0.2445330
      0.1600950              1.0927900              0.8049340
SP   1   1.00
      0.0556577              1.0000000              1.0000000
D    1   1.00
      0.6500000              1.0000000
D    1   1.00
      0.1625000              1.0000000
F    1   1.00
      0.2500000              1.0000000
****
Si     0
S    6   1.00
  16115.9000000              0.00195948
   2425.5800000              0.01492880
    553.8670000              0.07284780
    156.3400000              0.24613000
     50.0683000              0.48591400
     17.0178000              0.32500200
SP   6   1.00
    292.7180000             -0.00278094             0.00443826
     69.8731000             -0.03571460             0.03266790
     22.3363000             -0.11498500             0.13472100
      8.1503900              0.09356340             0.32867800
      3.1345800              0.60301700             0.44964000
      1.2254300              0.41895900             0.26137200
SP   3   1.00
      1.7273800             -0.24463000            -0.01779510
      0.5729220              0.00431572             0.25353900
      0.2221920              1.09818000             0.80066900
SP   1   1.00
      0.0778369              1.00000000             1.00000000
D    1   1.00
      0.9000000              1.0000000
D    1   1.00
      0.2250000              1.0000000
F    1   1.00
      0.3200000              1.0000000
****
P     0
S    6   1.00
  19413.3000000              0.0018516
   2909.4200000              0.0142062
    661.3640000              0.0699995
    185.7590000              0.2400790
     59.1943000              0.4847620
     20.0310000              0.3352000
SP   6   1.00
    339.4780000             -0.00278217             0.00456462
     81.0101000             -0.0360499              0.03369360
     25.8780000             -0.1166310              0.13975500
      9.4522100              0.0968328              0.33936200
      3.6656600              0.6144180              0.45092100
      1.4674600              0.4037980              0.23858600
SP   3   1.00
      2.1562300             -0.2529230             -0.01776530
      0.7489970              0.0328517              0.27405800
      0.2831450              1.0812500              0.78542100
SP   1   1.00
      0.0998317              1.0000000              1.00000000
D    1   1.00
      1.1000000              1.0000000
D    1   1.00
      0.2750000              1.0000000
F    1   1.00
      0.4500000              1.0000000
****
S     0
S    6   1.00
  21917.1000000              0.0018690
   3301.4900000              0.0142300
    754.1460000              0.0696960
    212.7110000              0.2384870
     67.9896000              0.4833070
     23.0515000              0.3380740
SP   6   1.00
    423.7350000             -0.0023767              0.0040610
    100.7100000             -0.0316930              0.0306810
     32.1599000             -0.1133170              0.1304520
     11.8079000              0.0560900              0.3272050
      4.6311000              0.5922550              0.4528510
      1.8702500              0.4550060              0.2560420
SP   3   1.00
      2.6158400             -0.2503740             -0.0145110
      0.9221670              0.0669570              0.3102630
      0.3412870              1.0545100              0.7544830
SP   1   1.00
      0.1171670              1.0000000              1.0000000
D    1   1.00
      1.3000000              1.0000000
D    1   1.00
      0.3250000              1.0000000
F    1   1.00
      0.5500000              1.0000000
****
Cl     0
S    6   1.00
  25180.1000000              0.0018330
   3780.3500000              0.0140340
    860.4740000              0.0690970
    242.1450000              0.2374520
     77.3349000              0.4830340
     26.2470000              0.3398560
SP   6   1.00
    491.7650000             -0.0022974              0.0039894
    116.9840000             -0.0307140              0.0303180
     37.4153000             -0.1125280              0.1298800
     13.7834000              0.0450160              0.3279510
      5.4521500              0.5893530              0.4535270
      2.2258800              0.4652060              0.2521540
SP   3   1.00
      3.1864900             -0.2518300             -0.0142990
      1.1442700              0.0615890              0.3235720
      0.4203770              1.0601800              0.7435070
SP   1   1.00
      0.1426570              1.0000000              1.0000000
D    1   1.00
      1.5000000              1.0000000
D    1   1.00
      0.3750000              1.0000000
F    1   1.00
      0.7000000              1.0000000
****
}

set {
reference uhf
freeze_core true
e_convergence 10
d_convergence 10
dft_spherical_points 1202
dft_radial_points 99
}

e = energy('b3lyp')

print_out('Grab this energy {0}'.format(e))
--------------------------------------------------------------------------

    Molecular point group: c1

    Geometry (in Bohr), charge = 0, multiplicity = 2:

       Center              X                  Y                   Z               Mass
    ------------   -----------------  -----------------  -----------------  -----------------
         C           -0.323340725297    -0.001962632822     0.000000728697    12.000000000000
         C            0.060740757403    -1.401726618822    -2.424896463403    12.000000000000
         C            0.061816287103     2.803480557678    -0.000798477103    12.000000000000
         C            0.060742413903    -1.400345069322     2.425694596197    12.000000000000
         H            2.085647746103    -1.642696307422    -2.848459421403     1.007825032230
         H           -0.770551081197    -0.386855986722    -4.016324455703     1.007825032230
         H           -0.761827129197    -3.297754275522    -2.351749326403     1.007825032230
         H            2.089367855303     3.287750247178    -0.001584474603     1.007825032230
         H           -0.764901912797     3.679171717578     1.675248368697     1.007825032230
         H           -0.763552719897     3.688039726578    -1.677261788703     1.007825032230
         H            2.085647894903    -1.639953703222     2.850034171697     1.007825032230
         H           -0.763172663297    -3.291580699522     2.345071477097     1.007825032230
         H           -0.769210616697    -0.389527154322     4.025020872497     1.007825032230

  Charge       = 0
  Multiplicity = 2
  Basis Set: ANONYMOUSA5321991
    Blend: 6-31G_2DFP_
  Basis Set: (ANONYMOUSA5321991 AUX)
    Blend: DEF2-UNIVERSAL-JKFIT

    Orbital Energies [Eh]
    ---------------------

    Alpha Occupied:

       1A    -10.180342     2A    -10.167233     3A    -10.166922
       4A    -10.166890     5A     -0.797768     6A     -0.686330
       7A     -0.686044     8A     -0.530775     9A     -0.441125
      10A     -0.434744    11A     -0.434602    12A     -0.382643
      13A     -0.382553    14A     -0.363609    15A     -0.338146
      16A     -0.337849    17A     -0.168961

    Alpha Virtual:

      18A      0.076073    19A      0.134090    20A      0.134218
      21A      0.142617    22A      0.142639    23A      0.154879
      24A      0.178775    25A      0.178781    26A      0.203529
      27A      0.214818    28A      0.275650    29A      0.276320
      30A      0.399209    31A      0.399238    32A      0.403355
      33A      0.424065    34A      0.424133    35A      0.456594
      36A      0.495340    37A      0.495440    38A      0.512160
      39A      0.513979    40A      0.578623    41A      0.579004
      42A      0.591409    43A      0.591864    44A      0.602573
      45A      0.624687    46A      0.631848    47A      0.636161
      48A      0.636341    49A      0.663207    50A      0.663616
      51A      0.683834    52A      0.683872    53A      0.734993
      54A      0.825379    55A      0.825436    56A      0.853916
      57A      0.914895    58A      0.915158    59A      0.944018
      60A      0.944703    61A      0.961260    62A      0.961327
      63A      1.003469    64A      1.128061    65A      1.128130
      66A      1.142205    67A      1.163166    68A      1.163401
      69A      1.223327    70A      1.274311    71A      1.274680
      72A      1.279356    73A      1.324234    74A      1.324477
      75A      1.355980    76A      1.365757    77A      1.366331
      78A      1.392456    79A      1.403707    80A      1.404350
      81A      1.416867    82A      1.417397    83A      1.427923
      84A      1.491494    85A      1.499086    86A      1.542692
      87A      1.542969    88A      1.574222    89A      1.574668
      90A      1.669838    91A      1.739151    92A      1.739696
      93A      1.768315    94A      1.830983    95A      1.831804
      96A      1.971729    97A      2.018191    98A      2.019079
      99A      2.019118   100A      2.051681   101A      2.053617
     102A      2.738428   103A      2.738537   104A      2.790925
     105A      2.811424   106A      2.889480   107A      2.890382
     108A      2.894989   109A      2.929329   110A      2.929669
     111A      2.958995   112A      2.964122   113A      2.964633
     114A      3.034013   115A      3.070998   116A      3.071573
     117A      3.084343   118A      3.168701   119A      3.168839
     120A      3.180613   121A      3.285260   122A      3.285346
     123A      3.326725   124A      3.327625   125A      3.375616
     126A      3.489926   127A      3.490375   128A      3.513918
     129A      3.525405   130A      3.567571   131A      3.569215
     132A      3.575150   133A      3.666188   134A      3.666552
     135A      3.679671   136A      3.693770   137A      3.694445
     138A      3.775492   139A      3.778107   140A      3.789168
     141A      3.911752   142A      3.912738   143A      4.034456
     144A      4.110342   145A      4.112393   146A      4.147569
     147A      4.148677   148A      4.173232   149A      4.202276
     150A      4.202987   151A      4.203506   152A      4.210886
     153A      4.315441   154A      4.316475   155A      4.358963
     156A      4.423949   157A      4.424956   158A      4.443447
     159A      4.516076   160A      4.517602   161A      4.577578
     162A      4.578938   163A      4.617542   164A      4.709429
     165A      4.773978   166A      4.775247   167A      4.836927
     168A      4.962874   169A      5.002350   170A      5.003572
     171A      5.228027   172A      5.246693   173A      5.246947
     174A      5.354557   175A      5.356465   176A      5.479351

    Beta Occupied:

       1A    -10.167989     2A    -10.167675     3A    -10.167659
       4A    -10.166519     5A     -0.781093     6A     -0.684121
       7A     -0.683858     8A     -0.511747     9A     -0.431122
      10A     -0.430965    11A     -0.421824    12A     -0.376716
      13A     -0.376650    14A     -0.362593    15A     -0.333270
      16A     -0.332972

    Beta Virtual:

      17A     -0.025742    18A      0.077082    19A      0.134976
      20A      0.135111    21A      0.144477    22A      0.144521
      23A      0.163338    24A      0.182445    25A      0.182454
      26A      0.214983    27A      0.218977    28A      0.282008
      29A      0.282657    30A      0.400392    31A      0.400402
      32A      0.419792    33A      0.426864    34A      0.426956
      35A      0.468502    36A      0.497607    37A      0.497693
      38A      0.513896    39A      0.556323    40A      0.584163
      41A      0.584566    42A      0.597609    43A      0.598022
      44A      0.609995    45A      0.628008    46A      0.632062
      47A      0.639427    48A      0.639647    49A      0.666782
      50A      0.667169    51A      0.686481    52A      0.686496
      53A      0.757516    54A      0.830574    55A      0.830577
      56A      0.855269    57A      0.922863    58A      0.923132
      59A      0.945936    60A      0.953552    61A      0.966538
      62A      0.966663    63A      1.008707    64A      1.132036
      65A      1.132211    66A      1.155579    67A      1.168303
      68A      1.168417    69A      1.232299    70A      1.279897
      71A      1.280281    72A      1.285113    73A      1.329236
      74A      1.329454    75A      1.365394    76A      1.371038
      77A      1.371534    78A      1.393516    79A      1.407149
      80A      1.407846    81A      1.421922    82A      1.422433
      83A      1.428195    84A      1.492543    85A      1.509529
      86A      1.547129    87A      1.547348    88A      1.582136
      89A      1.582498    90A      1.674685    91A      1.744898
      92A      1.745471    93A      1.779096    94A      1.834833
      95A      1.835666    96A      1.972591    97A      2.025358
      98A      2.025525    99A      2.039678   100A      2.058433
     101A      2.060299   102A      2.746738   103A      2.746898
     104A      2.811827   105A      2.816069   106A      2.902268
     107A      2.903011   108A      2.924634   109A      2.931811
     110A      2.932165   111A      2.960062   112A      2.968682
     113A      2.969164   114A      3.041947   115A      3.080949
     116A      3.081442   117A      3.086160   118A      3.184327
     119A      3.184664   120A      3.188346   121A      3.290054
     122A      3.290146   123A      3.330539   124A      3.331423
     125A      3.383433   126A      3.492637   127A      3.493127
     128A      3.512309   129A      3.528429   130A      3.574999
     131A      3.580936   132A      3.582527   133A      3.671064
     134A      3.671189   135A      3.692947   136A      3.725558
     137A      3.725926   138A      3.780064   139A      3.782616
     140A      3.817686   141A      3.921614   142A      3.922511
     143A      4.045343   144A      4.117163   145A      4.119204
     146A      4.154843   147A      4.155819   148A      4.187289
     149A      4.208485   150A      4.209446   151A      4.210672
     152A      4.215371   153A      4.322850   154A      4.323947
     155A      4.362327   156A      4.432181   157A      4.433152
     158A      4.446334   159A      4.523877   160A      4.525380
     161A      4.588172   162A      4.589545   163A      4.624737
     164A      4.719771   165A      4.780972   166A      4.782162
     167A      4.839848   168A      4.967668   169A      5.006372
     170A      5.007629   171A      5.233742   172A      5.248466
     173A      5.248743   174A      5.361016   175A      5.362966
     176A      5.481672

    Final Occupation by Irrep:
              A
    DOCC [    16 ]
    SOCC [     1 ]

  @DF-UKS Final Energy:  -157.81306327038163

   => Energetics <=

    Nuclear Repulsion Energy =            125.3946409161965363
    One-Electron Energy =                -458.7489306155059694
    Two-Electron Energy =                 195.8483708227070395
    DFT Exchange-Correlation Energy =     -20.3071443937792182
    Empirical Dispersion Energy =           0.0000000000000000
    VV10 Nonlocal Energy =                  0.0000000000000000
    Total Energy =                       -157.8130632703816332

  UHF NO Occupations:
  HONO-2 :   15  A 1.9996009
  HONO-1 :   16  A 1.9989804
  HONO-0 :   17  A 1.0000000
  LUNO+0 :   18  A 0.0010196
  LUNO+1 :   19  A 0.0003991
  LUNO+2 :   20  A 0.0001981
  LUNO+3 :   21  A 0.0001970

Computation Completed

Properties will be evaluated at   0.000000,   0.000000,   0.000000 [a0]

Properties computed using the SCF density matrix

  Nuclear Dipole Moment: [e a0]
     X:     0.8272      Y:     0.0033      Z:    -0.0000

  Electronic Dipole Moment: [e a0]
     X:    -0.7493      Y:    -0.0032      Z:     0.0000

  Dipole Moment: [e a0]
     X:     0.0779      Y:     0.0000      Z:     0.0000     Total:     0.0779

  Dipole Moment: [D]
     X:     0.1980      Y:     0.0001      Z:     0.0000     Total:     0.1980

*** tstop() called on n036 at Fri Nov  5 15:29:06 2021
Module time:
	user time   =     599.26 seconds =       9.99 minutes
	system time =      11.61 seconds =       0.19 minutes
	total time  =        154 seconds =       2.57 minutes
Total time:
	user time   =     599.26 seconds =       9.99 minutes
	system time =      11.61 seconds =       0.19 minutes
	total time  =        154 seconds =       2.57 minutes
Grab this energy -157.81306327038163
    Psi4 stopped on: Friday, 05 November 2021 03:29PM
    Psi4 wall time for execution: 0:02:33.70

*** Psi4 exiting successfully. Buy a developer a beer!
