                               Psi4 1.4a2.dev629

  ==> Input File <==

--------------------------------------------------------------------------
import os
memory 14 GB

molecule {
 C   -0.3233410015   -0.0000024886    0.0004971976
 C    0.0623314408   -1.4010024092   -2.4262119020
 C    0.0610203962    2.8017591086    0.0003838610
 C    0.0599472011   -1.4007539627    2.4265493127
 H    2.0833662842   -1.6443874127   -2.8477587630
 H   -0.7643503917   -0.3858389688   -4.0270744634
 H   -0.7633160865   -3.2940770360   -2.3474696839
 H    2.0867992524    3.2881020028    0.0001820874
 H   -0.7644483345    3.6797892851    1.6761982302
 H   -0.7668450453    3.6807184225   -1.6768022934
 H    2.0905087322   -1.6438063147    2.8471150871
 H   -0.7678208036   -3.2899228123    2.3505038107
 H   -0.7664595205   -0.3906017276    4.0238875189
units bohr
0 2
}

basis {

assign 6-31g_2dfp_

[ 6-31g_2dfp_ ]

spherical

!----------------------------------------------------------------------
! Basis Set Exchange
! Version v0.8.13
! https://www.basissetexchange.org
!----------------------------------------------------------------------
!   Basis set: 6-31G(2df,p)
! Description: 6-31G(2df,p)
!        Role: orbital
!     Version: 0  (Data from the original Basis Set Exchange)
!----------------------------------------------------------------------

****
H     0
S    3   1.00
     18.7311370              0.03349460
      2.8253937              0.23472695
      0.6401217              0.81375733
S    1   1.00
      0.1612778              1.00000000
P    1   1.00
      1.5000000              1.0000000
P    1   1.00
      0.3750000              1.0000000
****
B     0
S    6   1.00
   2068.8823000              0.0018663
    310.6495700              0.0142515
     70.6830330              0.0695516
     19.8610800              0.2325729
      6.2993048              0.4670787
      2.1270270              0.3634314
SP   3   1.00
      4.7279710             -0.1303938              0.0745976
      1.1903377             -0.1307889              0.3078467
      0.3594117              1.1309444              0.7434568
SP   1   1.00
      0.1267512              1.0000000              1.0000000
D    1   1.00
      0.8020000              1.0000000
D    1   1.00
      0.2005000              1.0000000
F    1   1.00
      0.5000000              1.0000000
****
C     0
S    6   1.00
   3047.5249000              0.0018347
    457.3695100              0.0140373
    103.9486900              0.0688426
     29.2101550              0.2321844
      9.2866630              0.4679413
      3.1639270              0.3623120
SP   3   1.00
      7.8682724             -0.1193324              0.0689991
      1.8812885             -0.1608542              0.3164240
      0.5442493              1.1434564              0.7443083
SP   1   1.00
      0.1687144              1.0000000              1.0000000
D    1   1.00
      1.2520000              1.0000000
D    1   1.00
      0.3130000              1.0000000
F    1   1.00
      0.8000000              1.0000000
****
N     0
S    6   1.00
   4173.5110000              0.0018348
    627.4579000              0.0139950
    142.9021000              0.0685870
     40.2343300              0.2322410
     12.8202100              0.4690700
      4.3904370              0.3604550
SP   3   1.00
     11.6263580             -0.1149610              0.0675800
      2.7162800             -0.1691180              0.3239070
      0.7722180              1.1458520              0.7408950
SP   1   1.00
      0.2120313              1.0000000              1.0000000
D    1   1.00
      1.8260000              1.0000000
D    1   1.00
      0.4565000              1.0000000
F    1   1.00
      1.0000000              1.0000000
****
O     0
S    6   1.00
   5484.6717000              0.0018311
    825.2349500              0.0139501
    188.0469600              0.0684451
     52.9645000              0.2327143
     16.8975700              0.4701930
      5.7996353              0.3585209
SP   3   1.00
     15.5396160             -0.1107775              0.0708743
      3.5999336             -0.1480263              0.3397528
      1.0137618              1.1307670              0.7271586
SP   1   1.00
      0.2700058              1.0000000              1.0000000
D    1   1.00
      2.5840000              1.0000000
D    1   1.00
      0.6460000              1.0000000
F    1   1.00
      1.4000000              1.0000000
****
F     0
S    6   1.00
   7001.7130900              0.0018196169
   1051.3660900              0.0139160796
    239.2856900              0.0684053245
     67.3974453              0.233185760
     21.5199573              0.471267439
      7.40310130             0.356618546
SP   3   1.00
     20.8479528             -0.108506975            0.0716287243
      4.80830834            -0.146451658            0.3459121030
      1.34406986             1.128688580            0.7224699570
SP   1   1.00
      0.358151393            1.0000000              1.0000000
D    1   1.00
      3.5000000              1.0000000
D    1   1.00
      0.8750000              1.0000000
F    1   1.00
      1.8500000              1.0000000
****
Al     0
S    6   1.00
  13983.1000000              0.00194267
   2098.7500000              0.0148599
    477.7050000              0.0728494
    134.3600000              0.2468300
     42.8709000              0.4872580
     14.5189000              0.3234960
SP   6   1.00
    239.6680000             -0.00292619             0.00460285
     57.4419000             -0.0374080              0.0331990
     18.2859000             -0.1144870              0.1362820
      6.5991400              0.1156350              0.3304760
      2.4904900              0.6125950              0.4491460
      0.9445400              0.3937990              0.2657040
SP   3   1.00
      1.2779000             -0.2276060             -0.0175130
      0.3975900              0.00144583             0.2445330
      0.1600950              1.0927900              0.8049340
SP   1   1.00
      0.0556577              1.0000000              1.0000000
D    1   1.00
      0.6500000              1.0000000
D    1   1.00
      0.1625000              1.0000000
F    1   1.00
      0.2500000              1.0000000
****
Si     0
S    6   1.00
  16115.9000000              0.00195948
   2425.5800000              0.01492880
    553.8670000              0.07284780
    156.3400000              0.24613000
     50.0683000              0.48591400
     17.0178000              0.32500200
SP   6   1.00
    292.7180000             -0.00278094             0.00443826
     69.8731000             -0.03571460             0.03266790
     22.3363000             -0.11498500             0.13472100
      8.1503900              0.09356340             0.32867800
      3.1345800              0.60301700             0.44964000
      1.2254300              0.41895900             0.26137200
SP   3   1.00
      1.7273800             -0.24463000            -0.01779510
      0.5729220              0.00431572             0.25353900
      0.2221920              1.09818000             0.80066900
SP   1   1.00
      0.0778369              1.00000000             1.00000000
D    1   1.00
      0.9000000              1.0000000
D    1   1.00
      0.2250000              1.0000000
F    1   1.00
      0.3200000              1.0000000
****
P     0
S    6   1.00
  19413.3000000              0.0018516
   2909.4200000              0.0142062
    661.3640000              0.0699995
    185.7590000              0.2400790
     59.1943000              0.4847620
     20.0310000              0.3352000
SP   6   1.00
    339.4780000             -0.00278217             0.00456462
     81.0101000             -0.0360499              0.03369360
     25.8780000             -0.1166310              0.13975500
      9.4522100              0.0968328              0.33936200
      3.6656600              0.6144180              0.45092100
      1.4674600              0.4037980              0.23858600
SP   3   1.00
      2.1562300             -0.2529230             -0.01776530
      0.7489970              0.0328517              0.27405800
      0.2831450              1.0812500              0.78542100
SP   1   1.00
      0.0998317              1.0000000              1.00000000
D    1   1.00
      1.1000000              1.0000000
D    1   1.00
      0.2750000              1.0000000
F    1   1.00
      0.4500000              1.0000000
****
S     0
S    6   1.00
  21917.1000000              0.0018690
   3301.4900000              0.0142300
    754.1460000              0.0696960
    212.7110000              0.2384870
     67.9896000              0.4833070
     23.0515000              0.3380740
SP   6   1.00
    423.7350000             -0.0023767              0.0040610
    100.7100000             -0.0316930              0.0306810
     32.1599000             -0.1133170              0.1304520
     11.8079000              0.0560900              0.3272050
      4.6311000              0.5922550              0.4528510
      1.8702500              0.4550060              0.2560420
SP   3   1.00
      2.6158400             -0.2503740             -0.0145110
      0.9221670              0.0669570              0.3102630
      0.3412870              1.0545100              0.7544830
SP   1   1.00
      0.1171670              1.0000000              1.0000000
D    1   1.00
      1.3000000              1.0000000
D    1   1.00
      0.3250000              1.0000000
F    1   1.00
      0.5500000              1.0000000
****
Cl     0
S    6   1.00
  25180.1000000              0.0018330
   3780.3500000              0.0140340
    860.4740000              0.0690970
    242.1450000              0.2374520
     77.3349000              0.4830340
     26.2470000              0.3398560
SP   6   1.00
    491.7650000             -0.0022974              0.0039894
    116.9840000             -0.0307140              0.0303180
     37.4153000             -0.1125280              0.1298800
     13.7834000              0.0450160              0.3279510
      5.4521500              0.5893530              0.4535270
      2.2258800              0.4652060              0.2521540
SP   3   1.00
      3.1864900             -0.2518300             -0.0142990
      1.1442700              0.0615890              0.3235720
      0.4203770              1.0601800              0.7435070
SP   1   1.00
      0.1426570              1.0000000              1.0000000
D    1   1.00
      1.5000000              1.0000000
D    1   1.00
      0.3750000              1.0000000
F    1   1.00
      0.7000000              1.0000000
****
}

set {
reference uhf
freeze_core true
e_convergence 10
d_convergence 10
dft_spherical_points 1202
dft_radial_points 99
}

e = energy('b3lyp')

print_out('Grab this energy {0}'.format(e))
--------------------------------------------------------------------------

    Molecular point group: c1

    Geometry (in Bohr), charge = 0, multiplicity = 2:

       Center              X                  Y                   Z               Mass
    ------------   -----------------  -----------------  -----------------  -----------------
         C           -0.323340620416    -0.000002107024     0.000262511638    12.000000000000
         C            0.062331821884    -1.401002027624    -2.426446587962    12.000000000000
         C            0.061020777284     2.801759490176     0.000149175038    12.000000000000
         C            0.059947582184    -1.400753581124     2.426314626738    12.000000000000
         H            2.083366665284    -1.644387031124    -2.847993448962     1.007825032230
         H           -0.764350010616    -0.385838587224    -4.027309149362     1.007825032230
         H           -0.763315705416    -3.294076654424    -2.347704369862     1.007825032230
         H            2.086799633484     3.288102384376    -0.000052598562     1.007825032230
         H           -0.764447953416     3.679789666676     1.675963544238     1.007825032230
         H           -0.766844664216     3.680718804076    -1.677036979362     1.007825032230
         H            2.090509113284    -1.643805933124     2.846880401138     1.007825032230
         H           -0.767820422516    -3.289922430724     2.350269124738     1.007825032230
         H           -0.766459139416    -0.390601346024     4.023652832938     1.007825032230

  Charge       = 0
  Multiplicity = 2
  Basis Set: ANONYMOUS7E0273C5
    Blend: 6-31G_2DFP_
  Basis Set: (ANONYMOUS7E0273C5 AUX)
    Blend: DEF2-UNIVERSAL-JKFIT

    Orbital Energies [Eh]
    ---------------------

    Alpha Occupied:

       1A    -10.180342     2A    -10.167046     3A    -10.167021
       4A    -10.166978     5A     -0.797766     6A     -0.686188
       7A     -0.686187     8A     -0.530777     9A     -0.441126
      10A     -0.434692    11A     -0.434648    12A     -0.382621
      13A     -0.382575    14A     -0.363611    15A     -0.338032
      16A     -0.337967    17A     -0.168961

    Alpha Virtual:

      18A      0.076071    19A      0.133988    20A      0.134321
      21A      0.142565    22A      0.142688    23A      0.154880
      24A      0.178694    25A      0.178864    26A      0.203548
      27A      0.214803    28A      0.275910    29A      0.276062
      30A      0.399195    31A      0.399262    32A      0.403343
      33A      0.424012    34A      0.424182    35A      0.456592
      36A      0.495244    37A      0.495533    38A      0.512161
      39A      0.513981    40A      0.578642    41A      0.578990
      42A      0.591481    43A      0.591778    44A      0.602581
      45A      0.624762    46A      0.631756    47A      0.636151
      48A      0.636360    49A      0.663046    50A      0.663790
      51A      0.683679    52A      0.684028    53A      0.734995
      54A      0.825384    55A      0.825422    56A      0.853921
      57A      0.914811    58A      0.915239    59A      0.944125
      60A      0.944611    61A      0.961167    62A      0.961424
      63A      1.003453    64A      1.128060    65A      1.128159
      66A      1.142212    67A      1.163149    68A      1.163396
      69A      1.223326    70A      1.274335    71A      1.274631
      72A      1.279370    73A      1.324313    74A      1.324402
      75A      1.355961    76A      1.366026    77A      1.366076
      78A      1.392455    79A      1.403599    80A      1.404520
      81A      1.416583    82A      1.417642    83A      1.427910
      84A      1.491490    85A      1.499076    86A      1.542376
      87A      1.543299    88A      1.574286    89A      1.574602
      90A      1.669819    91A      1.739247    92A      1.739551
      93A      1.768351    94A      1.830593    95A      1.832199
      96A      1.971713    97A      2.018086    98A      2.018750
      99A      2.019558   100A      2.051706   101A      2.053596
     102A      2.738076   103A      2.738895   104A      2.790924
     105A      2.811425   106A      2.889926   107A      2.889957
     108A      2.894967   109A      2.929485   110A      2.929506
     111A      2.958998   112A      2.964048   113A      2.964702
     114A      3.034017   115A      3.071259   116A      3.071300
     117A      3.084365   118A      3.168560   119A      3.169001
     120A      3.180599   121A      3.284990   122A      3.285640
     123A      3.326953   124A      3.327365   125A      3.375626
     126A      3.489998   127A      3.490320   128A      3.514015
     129A      3.525327   130A      3.568276   131A      3.568507
     132A      3.575153   133A      3.665674   134A      3.667107
     135A      3.679645   136A      3.693979   137A      3.694277
     138A      3.776785   139A      3.776818   140A      3.789125
     141A      3.912123   142A      3.912329   143A      4.034439
     144A      4.110911   145A      4.111810   146A      4.147524
     147A      4.148671   148A      4.173229   149A      4.201870
     150A      4.202827   151A      4.204060   152A      4.210917
     153A      4.315142   154A      4.316839   155A      4.358980
     156A      4.424142   157A      4.424792   158A      4.443425
     159A      4.516148   160A      4.517543   161A      4.578143
     162A      4.578388   163A      4.617556   164A      4.709451
     165A      4.774137   166A      4.775046   167A      4.836895
     168A      4.962868   169A      5.002200   170A      5.003690
     171A      5.228007   172A      5.244733   173A      5.248871
     174A      5.354318   175A      5.356752   176A      5.479376

    Beta Occupied:

       1A    -10.167802     2A    -10.167776     3A    -10.167745
       4A    -10.166519     5A     -0.781091     6A     -0.683995
       7A     -0.683986     8A     -0.511749     9A     -0.431059
      10A     -0.431028    11A     -0.421819    12A     -0.376728
      13A     -0.376638    14A     -0.362595    15A     -0.333147
      16A     -0.333097

    Beta Virtual:

      17A     -0.025743    18A      0.077080    19A      0.134889
      20A      0.135202    21A      0.144461    22A      0.144533
      23A      0.163337    24A      0.182347    25A      0.182554
      26A      0.215032    27A      0.218930    28A      0.282255
      29A      0.282413    30A      0.400366    31A      0.400430
      32A      0.419790    33A      0.426824    34A      0.426993
      35A      0.468500    36A      0.497497    37A      0.497802
      38A      0.513896    39A      0.556325    40A      0.584207
      41A      0.584525    42A      0.597639    43A      0.597982
      44A      0.610001    45A      0.628138    46A      0.631921
      47A      0.639431    48A      0.639641    49A      0.666642
      50A      0.667323    51A      0.686333    52A      0.686645
      53A      0.757518    54A      0.830550    55A      0.830592
      56A      0.855275    57A      0.922796    58A      0.923196
      59A      0.945962    60A      0.953540    61A      0.966443
      62A      0.966759    63A      1.008693    64A      1.132126
      65A      1.132149    66A      1.155589    67A      1.168188
      68A      1.168507    69A      1.232298    70A      1.279919
      71A      1.280239    72A      1.285125    73A      1.329304
      74A      1.329389    75A      1.365372    76A      1.371272
      77A      1.371318    78A      1.393513    79A      1.407022
      80A      1.408029    81A      1.421617    82A      1.422711
      83A      1.428178    84A      1.492538    85A      1.509519
      86A      1.546797    87A      1.547691    88A      1.582174
      89A      1.582461    90A      1.674665    91A      1.745012
      92A      1.745315    93A      1.779124    94A      1.834441
      95A      1.836063    96A      1.972573    97A      2.024972
      98A      2.025921    99A      2.039672   100A      2.058468
     101A      2.060270   102A      2.746421   103A      2.747222
     104A      2.811836   105A      2.816060   106A      2.902580
     107A      2.902701   108A      2.924651   109A      2.931934
     110A      2.932016   111A      2.960059   112A      2.968581
     113A      2.969262   114A      3.041950   115A      3.081065
     116A      3.081293   117A      3.086203   118A      3.184198
     119A      3.184854   120A      3.188290   121A      3.289778
     122A      3.290449   123A      3.330735   124A      3.331194
     125A      3.383444   126A      3.492768   127A      3.493012
     128A      3.512381   129A      3.528373   130A      3.574991
     131A      3.581581   132A      3.581901   133A      3.670371
     134A      3.671906   135A      3.692941   136A      3.725599
     137A      3.725919   138A      3.781279   139A      3.781381
     140A      3.817666   141A      3.921917   142A      3.922167
     143A      4.045326   144A      4.117746   145A      4.118604
     146A      4.154788   147A      4.155831   148A      4.187281
     149A      4.208070   150A      4.209562   151A      4.210979
     152A      4.215390   153A      4.322580   154A      4.324279
     155A      4.362342   156A      4.432357   157A      4.433009
     158A      4.446305   159A      4.523937   160A      4.525336
     161A      4.588731   162A      4.589001   163A      4.624750
     164A      4.719797   165A      4.781090   166A      4.782000
     167A      4.839811   168A      4.967663   169A      5.006258
     170A      5.007711   171A      5.233721   172A      5.246529
     173A      5.250645   174A      5.360789   175A      5.363242
     176A      5.481697

    Final Occupation by Irrep:
              A
    DOCC [    16 ]
    SOCC [     1 ]

  @DF-UKS Final Energy:  -157.81306347710571

   => Energetics <=

    Nuclear Repulsion Energy =            125.3946132673216738
    One-Electron Energy =                -458.7488727374270638
    Two-Electron Energy =                 195.8483408134139836
    DFT Exchange-Correlation Energy =     -20.3071448204143259
    Empirical Dispersion Energy =           0.0000000000000000
    VV10 Nonlocal Energy =                  0.0000000000000000
    Total Energy =                       -157.8130634771057146

  UHF NO Occupations:
  HONO-2 :   15  A 1.9996009
  HONO-1 :   16  A 1.9989805
  HONO-0 :   17  A 1.0000000
  LUNO+0 :   18  A 0.0010195
  LUNO+1 :   19  A 0.0003991
  LUNO+2 :   20  A 0.0001975
  LUNO+3 :   21  A 0.0001975

Computation Completed

Properties will be evaluated at   0.000000,   0.000000,   0.000000 [a0]

Properties computed using the SCF density matrix

  Nuclear Dipole Moment: [e a0]
     X:     0.8272      Y:    -0.0000      Z:    -0.0017

  Electronic Dipole Moment: [e a0]
     X:    -0.7493      Y:     0.0000      Z:     0.0023

  Dipole Moment: [e a0]
     X:     0.0779      Y:     0.0000      Z:     0.0006     Total:     0.0779

  Dipole Moment: [D]
     X:     0.1980      Y:     0.0000      Z:     0.0016     Total:     0.1980

*** tstop() called on n079 at Fri Nov  5 14:02:30 2021
Module time:
	user time   =     464.85 seconds =       7.75 minutes
	system time =       4.39 seconds =       0.07 minutes
	total time  =        118 seconds =       1.97 minutes
Total time:
	user time   =     464.85 seconds =       7.75 minutes
	system time =       4.39 seconds =       0.07 minutes
	total time  =        118 seconds =       1.97 minutes
Grab this energy -157.81306347710571
    Psi4 stopped on: Friday, 05 November 2021 02:02PM
    Psi4 wall time for execution: 0:01:58.04

*** Psi4 exiting successfully. Buy a developer a beer!
