                               Psi4 1.4a2.dev629

  ==> Input File <==

--------------------------------------------------------------------------
import os
memory 14 GB

molecule {
 C   -0.3201645302    0.0000051185    0.0050021605
 C    0.0629879639   -1.3946532954   -2.4218403657
 C    0.0623456176    2.8015648845   -0.0062302000
 C    0.0619477379   -1.4069042390    2.4305990583
 H    2.0872772491   -1.6351748760   -2.8431199658
 H   -0.7668907844   -0.3794060223   -4.0185230850
 H   -0.7643093039   -3.2859837503   -2.3491864059
 H    2.0864631874    3.2878136042   -0.0111324577
 H   -0.7639263461    3.6880665642    1.6666291723
 H   -0.7694246549    3.6728783377   -1.6855266427
 H    2.0859356869   -1.6527452612    2.8512876038
 H   -0.7688836245   -3.2975278180    2.3496061983
 H   -0.7659660755   -0.3979575606    4.0324349296
units bohr
0 2
}

basis {

assign 6-31g_2dfp_

[ 6-31g_2dfp_ ]

spherical

!----------------------------------------------------------------------
! Basis Set Exchange
! Version v0.8.13
! https://www.basissetexchange.org
!----------------------------------------------------------------------
!   Basis set: 6-31G(2df,p)
! Description: 6-31G(2df,p)
!        Role: orbital
!     Version: 0  (Data from the original Basis Set Exchange)
!----------------------------------------------------------------------

****
H     0
S    3   1.00
     18.7311370              0.03349460
      2.8253937              0.23472695
      0.6401217              0.81375733
S    1   1.00
      0.1612778              1.00000000
P    1   1.00
      1.5000000              1.0000000
P    1   1.00
      0.3750000              1.0000000
****
B     0
S    6   1.00
   2068.8823000              0.0018663
    310.6495700              0.0142515
     70.6830330              0.0695516
     19.8610800              0.2325729
      6.2993048              0.4670787
      2.1270270              0.3634314
SP   3   1.00
      4.7279710             -0.1303938              0.0745976
      1.1903377             -0.1307889              0.3078467
      0.3594117              1.1309444              0.7434568
SP   1   1.00
      0.1267512              1.0000000              1.0000000
D    1   1.00
      0.8020000              1.0000000
D    1   1.00
      0.2005000              1.0000000
F    1   1.00
      0.5000000              1.0000000
****
C     0
S    6   1.00
   3047.5249000              0.0018347
    457.3695100              0.0140373
    103.9486900              0.0688426
     29.2101550              0.2321844
      9.2866630              0.4679413
      3.1639270              0.3623120
SP   3   1.00
      7.8682724             -0.1193324              0.0689991
      1.8812885             -0.1608542              0.3164240
      0.5442493              1.1434564              0.7443083
SP   1   1.00
      0.1687144              1.0000000              1.0000000
D    1   1.00
      1.2520000              1.0000000
D    1   1.00
      0.3130000              1.0000000
F    1   1.00
      0.8000000              1.0000000
****
N     0
S    6   1.00
   4173.5110000              0.0018348
    627.4579000              0.0139950
    142.9021000              0.0685870
     40.2343300              0.2322410
     12.8202100              0.4690700
      4.3904370              0.3604550
SP   3   1.00
     11.6263580             -0.1149610              0.0675800
      2.7162800             -0.1691180              0.3239070
      0.7722180              1.1458520              0.7408950
SP   1   1.00
      0.2120313              1.0000000              1.0000000
D    1   1.00
      1.8260000              1.0000000
D    1   1.00
      0.4565000              1.0000000
F    1   1.00
      1.0000000              1.0000000
****
O     0
S    6   1.00
   5484.6717000              0.0018311
    825.2349500              0.0139501
    188.0469600              0.0684451
     52.9645000              0.2327143
     16.8975700              0.4701930
      5.7996353              0.3585209
SP   3   1.00
     15.5396160             -0.1107775              0.0708743
      3.5999336             -0.1480263              0.3397528
      1.0137618              1.1307670              0.7271586
SP   1   1.00
      0.2700058              1.0000000              1.0000000
D    1   1.00
      2.5840000              1.0000000
D    1   1.00
      0.6460000              1.0000000
F    1   1.00
      1.4000000              1.0000000
****
F     0
S    6   1.00
   7001.7130900              0.0018196169
   1051.3660900              0.0139160796
    239.2856900              0.0684053245
     67.3974453              0.233185760
     21.5199573              0.471267439
      7.40310130             0.356618546
SP   3   1.00
     20.8479528             -0.108506975            0.0716287243
      4.80830834            -0.146451658            0.3459121030
      1.34406986             1.128688580            0.7224699570
SP   1   1.00
      0.358151393            1.0000000              1.0000000
D    1   1.00
      3.5000000              1.0000000
D    1   1.00
      0.8750000              1.0000000
F    1   1.00
      1.8500000              1.0000000
****
Al     0
S    6   1.00
  13983.1000000              0.00194267
   2098.7500000              0.0148599
    477.7050000              0.0728494
    134.3600000              0.2468300
     42.8709000              0.4872580
     14.5189000              0.3234960
SP   6   1.00
    239.6680000             -0.00292619             0.00460285
     57.4419000             -0.0374080              0.0331990
     18.2859000             -0.1144870              0.1362820
      6.5991400              0.1156350              0.3304760
      2.4904900              0.6125950              0.4491460
      0.9445400              0.3937990              0.2657040
SP   3   1.00
      1.2779000             -0.2276060             -0.0175130
      0.3975900              0.00144583             0.2445330
      0.1600950              1.0927900              0.8049340
SP   1   1.00
      0.0556577              1.0000000              1.0000000
D    1   1.00
      0.6500000              1.0000000
D    1   1.00
      0.1625000              1.0000000
F    1   1.00
      0.2500000              1.0000000
****
Si     0
S    6   1.00
  16115.9000000              0.00195948
   2425.5800000              0.01492880
    553.8670000              0.07284780
    156.3400000              0.24613000
     50.0683000              0.48591400
     17.0178000              0.32500200
SP   6   1.00
    292.7180000             -0.00278094             0.00443826
     69.8731000             -0.03571460             0.03266790
     22.3363000             -0.11498500             0.13472100
      8.1503900              0.09356340             0.32867800
      3.1345800              0.60301700             0.44964000
      1.2254300              0.41895900             0.26137200
SP   3   1.00
      1.7273800             -0.24463000            -0.01779510
      0.5729220              0.00431572             0.25353900
      0.2221920              1.09818000             0.80066900
SP   1   1.00
      0.0778369              1.00000000             1.00000000
D    1   1.00
      0.9000000              1.0000000
D    1   1.00
      0.2250000              1.0000000
F    1   1.00
      0.3200000              1.0000000
****
P     0
S    6   1.00
  19413.3000000              0.0018516
   2909.4200000              0.0142062
    661.3640000              0.0699995
    185.7590000              0.2400790
     59.1943000              0.4847620
     20.0310000              0.3352000
SP   6   1.00
    339.4780000             -0.00278217             0.00456462
     81.0101000             -0.0360499              0.03369360
     25.8780000             -0.1166310              0.13975500
      9.4522100              0.0968328              0.33936200
      3.6656600              0.6144180              0.45092100
      1.4674600              0.4037980              0.23858600
SP   3   1.00
      2.1562300             -0.2529230             -0.01776530
      0.7489970              0.0328517              0.27405800
      0.2831450              1.0812500              0.78542100
SP   1   1.00
      0.0998317              1.0000000              1.00000000
D    1   1.00
      1.1000000              1.0000000
D    1   1.00
      0.2750000              1.0000000
F    1   1.00
      0.4500000              1.0000000
****
S     0
S    6   1.00
  21917.1000000              0.0018690
   3301.4900000              0.0142300
    754.1460000              0.0696960
    212.7110000              0.2384870
     67.9896000              0.4833070
     23.0515000              0.3380740
SP   6   1.00
    423.7350000             -0.0023767              0.0040610
    100.7100000             -0.0316930              0.0306810
     32.1599000             -0.1133170              0.1304520
     11.8079000              0.0560900              0.3272050
      4.6311000              0.5922550              0.4528510
      1.8702500              0.4550060              0.2560420
SP   3   1.00
      2.6158400             -0.2503740             -0.0145110
      0.9221670              0.0669570              0.3102630
      0.3412870              1.0545100              0.7544830
SP   1   1.00
      0.1171670              1.0000000              1.0000000
D    1   1.00
      1.3000000              1.0000000
D    1   1.00
      0.3250000              1.0000000
F    1   1.00
      0.5500000              1.0000000
****
Cl     0
S    6   1.00
  25180.1000000              0.0018330
   3780.3500000              0.0140340
    860.4740000              0.0690970
    242.1450000              0.2374520
     77.3349000              0.4830340
     26.2470000              0.3398560
SP   6   1.00
    491.7650000             -0.0022974              0.0039894
    116.9840000             -0.0307140              0.0303180
     37.4153000             -0.1125280              0.1298800
     13.7834000              0.0450160              0.3279510
      5.4521500              0.5893530              0.4535270
      2.2258800              0.4652060              0.2521540
SP   3   1.00
      3.1864900             -0.2518300             -0.0142990
      1.1442700              0.0615890              0.3235720
      0.4203770              1.0601800              0.7435070
SP   1   1.00
      0.1426570              1.0000000              1.0000000
D    1   1.00
      1.5000000              1.0000000
D    1   1.00
      0.3750000              1.0000000
F    1   1.00
      0.7000000              1.0000000
****
}

set {
reference uhf
freeze_core true
e_convergence 10
d_convergence 10
dft_spherical_points 1202
dft_radial_points 99
}

e = energy('b3lyp')

print_out('Grab this energy {0}'.format(e))
--------------------------------------------------------------------------

    Molecular point group: c1

    Geometry (in Bohr), charge = 0, multiplicity = 2:

       Center              X                  Y                   Z               Mass
    ------------   -----------------  -----------------  -----------------  -----------------
         C           -0.321542976429     0.000003146321     0.003551702472    12.000000000000
         C            0.061609517671    -1.394655267579    -2.423290823728    12.000000000000
         C            0.060967171371     2.801562912321    -0.007680658028    12.000000000000
         C            0.060569291671    -1.406906211179     2.429148600272    12.000000000000
         H            2.085898802871    -1.635176848179    -2.844570423828     1.007825032230
         H           -0.768269230629    -0.379407994479    -4.019973543028     1.007825032230
         H           -0.765687750129    -3.285985722479    -2.350636863928     1.007825032230
         H            2.085084741171     3.287811632021    -0.012582915728     1.007825032230
         H           -0.765304792329     3.688064592021     1.665178714272     1.007825032230
         H           -0.770803101129     3.672876365521    -1.686977100728     1.007825032230
         H            2.084557240671    -1.652747233379     2.849837145772     1.007825032230
         H           -0.770262070729    -3.297529790179     2.348155740272     1.007825032230
         H           -0.767344521729    -0.397959532779     4.030984471572     1.007825032230

  Charge       = 0
  Multiplicity = 2
  Basis Set: ANONYMOUS889D0BB8
    Blend: 6-31G_2DFP_
  Basis Set: (ANONYMOUS889D0BB8 AUX)
    Blend: DEF2-UNIVERSAL-JKFIT

    Orbital Energies [Eh]
    ---------------------

    Alpha Occupied:

       1A    -10.180229     2A    -10.167263     3A    -10.166992
       4A    -10.166719     5A     -0.797823     6A     -0.686419
       7A     -0.685977     8A     -0.530755     9A     -0.441361
      10A     -0.434791    11A     -0.434261    12A     -0.382991
      13A     -0.382701    14A     -0.363329    15A     -0.338222
      16A     -0.337674    17A     -0.168846

    Alpha Virtual:

      18A      0.076055    19A      0.133906    20A      0.134389
      21A      0.142410    22A      0.142683    23A      0.154945
      24A      0.178660    25A      0.179108    26A      0.203590
      27A      0.214675    28A      0.275955    29A      0.276294
      30A      0.399072    31A      0.399356    32A      0.403453
      33A      0.423974    34A      0.424242    35A      0.456599
      36A      0.494932    37A      0.495736    38A      0.512276
      39A      0.513983    40A      0.578469    41A      0.578959
      42A      0.591916    43A      0.591970    44A      0.602884
      45A      0.624626    46A      0.631628    47A      0.635898
      48A      0.636340    49A      0.663370    50A      0.663801
      51A      0.683585    52A      0.684076    53A      0.735122
      54A      0.824753    55A      0.826396    56A      0.853868
      57A      0.914952    58A      0.915435    59A      0.944155
      60A      0.944534    61A      0.961045    62A      0.961563
      63A      1.002590    64A      1.126711    65A      1.129051
      66A      1.142585    67A      1.162944    68A      1.163903
      69A      1.223750    70A      1.274263    71A      1.275301
      72A      1.279503    73A      1.324158    74A      1.324319
      75A      1.357026    76A      1.364950    77A      1.366407
      78A      1.392359    79A      1.403917    80A      1.405496
      81A      1.417229    82A      1.418229    83A      1.428112
      84A      1.490970    85A      1.499568    86A      1.542048
      87A      1.542814    88A      1.572586    89A      1.576271
      90A      1.669287    91A      1.738550    92A      1.740672
      93A      1.768558    94A      1.830567    95A      1.831589
      96A      1.971165    97A      2.017913    98A      2.018559
      99A      2.020758   100A      2.050498   101A      2.055632
     102A      2.738550   103A      2.739081   104A      2.791142
     105A      2.811163   106A      2.890024   107A      2.890225
     108A      2.894909   109A      2.929170   110A      2.929520
     111A      2.958825   112A      2.963521   113A      2.965322
     114A      3.034053   115A      3.070897   116A      3.072883
     117A      3.084323   118A      3.168052   119A      3.169591
     120A      3.180362   121A      3.284247   122A      3.285665
     123A      3.325291   124A      3.327186   125A      3.375960
     126A      3.489828   127A      3.490798   128A      3.514493
     129A      3.525146   130A      3.567609   131A      3.569879
     132A      3.575823   133A      3.666287   134A      3.666511
     135A      3.678627   136A      3.693945   137A      3.694844
     138A      3.776827   139A      3.778451   140A      3.790607
     141A      3.910700   142A      3.913551   143A      4.035647
     144A      4.109640   145A      4.112380   146A      4.146220
     147A      4.149534   148A      4.173362   149A      4.201680
     150A      4.203069   151A      4.205021   152A      4.211058
     153A      4.316134   154A      4.316176   155A      4.358882
     156A      4.424857   157A      4.425141   158A      4.442684
     159A      4.515924   160A      4.517531   161A      4.577092
     162A      4.579261   163A      4.618363   164A      4.709888
     165A      4.773526   166A      4.776171   167A      4.837174
     168A      4.962792   169A      5.002680   170A      5.004650
     171A      5.228109   172A      5.246642   173A      5.246966
     174A      5.354351   175A      5.355767   176A      5.479841

    Beta Occupied:

       1A    -10.168020     2A    -10.167752     3A    -10.167484
       4A    -10.166403     5A     -0.781133     6A     -0.684221
       7A     -0.683772     8A     -0.511721     9A     -0.431159
      10A     -0.430612    11A     -0.422065    12A     -0.377098
      13A     -0.376788    14A     -0.362311    15A     -0.333352
      16A     -0.332796

    Beta Virtual:

      17A     -0.025595    18A      0.077063    19A      0.134754
      20A      0.135256    21A      0.144295    22A      0.144558
      23A      0.163373    24A      0.182332    25A      0.182800
      26A      0.214908    27A      0.218995    28A      0.282279
      29A      0.282642    30A      0.400291    31A      0.400524
      32A      0.419779    33A      0.426773    34A      0.427072
      35A      0.468574    36A      0.497190    37A      0.498002
      38A      0.514007    39A      0.556372    40A      0.584058
      41A      0.584491    42A      0.598065    43A      0.598143
      44A      0.610278    45A      0.628040    46A      0.631786
      47A      0.639184    48A      0.639659    49A      0.666880
      50A      0.667361    51A      0.686171    52A      0.686766
      53A      0.757638    54A      0.829890    55A      0.831553
      56A      0.855219    57A      0.922904    58A      0.923415
      59A      0.946015    60A      0.953483    61A      0.966317
      62A      0.966936    63A      1.007779    64A      1.130851
      65A      1.133180    66A      1.155947    67A      1.167927
      68A      1.168948    69A      1.232727    70A      1.279840
      71A      1.280885    72A      1.285264    73A      1.329075
      74A      1.329267    75A      1.366460    76A      1.370086
      77A      1.371741    78A      1.393409    79A      1.407433
      80A      1.408957    81A      1.422289    82A      1.423288
      83A      1.428403    84A      1.492018    85A      1.510031
      86A      1.546249    87A      1.547220    88A      1.580703
      89A      1.584096    90A      1.674148    91A      1.744308
      92A      1.746422    93A      1.779330    94A      1.834411
      95A      1.835469    96A      1.972030    97A      2.024301
      98A      2.027258    99A      2.039891   100A      2.057283
     101A      2.062236   102A      2.746838   103A      2.747460
     104A      2.811575   105A      2.816330   106A      2.902735
     107A      2.902863   108A      2.924699   109A      2.931772
     110A      2.931936   111A      2.959892   112A      2.968078
     113A      2.969817   114A      3.041949   115A      3.080617
     116A      3.082779   117A      3.086298   118A      3.183986
     119A      3.185293   120A      3.187983   121A      3.289158
     122A      3.290445   123A      3.329071   124A      3.330984
     125A      3.383815   126A      3.492554   127A      3.493509
     128A      3.512866   129A      3.528237   130A      3.575226
     131A      3.581110   132A      3.583377   133A      3.671077
     134A      3.671353   135A      3.691943   136A      3.725588
     137A      3.726403   138A      3.781335   139A      3.782994
     140A      3.819050   141A      3.920515   142A      3.923365
     143A      4.046523   144A      4.116484   145A      4.119210
     146A      4.153468   147A      4.156673   148A      4.187395
     149A      4.207599   150A      4.210853   151A      4.211151
     152A      4.215528   153A      4.323571   154A      4.323644
     155A      4.362231   156A      4.432994   157A      4.433263
     158A      4.445653   159A      4.523808   160A      4.525218
     161A      4.587637   162A      4.589965   163A      4.625631
     164A      4.720142   165A      4.780466   166A      4.783182
     167A      4.840095   168A      4.967569   169A      5.006708
     170A      5.008676   171A      5.233853   172A      5.248432
     173A      5.248766   174A      5.360831   175A      5.362283
     176A      5.482164

    Final Occupation by Irrep:
              A
    DOCC [    16 ]
    SOCC [     1 ]

  @DF-UKS Final Energy:  -157.81306676420758

   => Energetics <=

    Nuclear Repulsion Energy =            125.4035975414620196
    One-Electron Energy =                -458.7669452590670289
    Two-Electron Energy =                 195.8576818308818872
    DFT Exchange-Correlation Energy =     -20.3074008774844792
    Empirical Dispersion Energy =           0.0000000000000000
    VV10 Nonlocal Energy =                  0.0000000000000000
    Total Energy =                       -157.8130667642075764

  UHF NO Occupations:
  HONO-2 :   15  A 1.9996019
  HONO-1 :   16  A 1.9989795
  HONO-0 :   17  A 1.0000000
  LUNO+0 :   18  A 0.0010205
  LUNO+1 :   19  A 0.0003981
  LUNO+2 :   20  A 0.0001978
  LUNO+3 :   21  A 0.0001971

Computation Completed

Properties will be evaluated at   0.000000,   0.000000,   0.000000 [a0]

Properties computed using the SCF density matrix

  Nuclear Dipole Moment: [e a0]
     X:     0.8175      Y:    -0.0000      Z:    -0.0102

  Electronic Dipole Moment: [e a0]
     X:    -0.7394      Y:     0.0000      Z:     0.0110

  Dipole Moment: [e a0]
     X:     0.0780      Y:    -0.0000      Z:     0.0008     Total:     0.0780

  Dipole Moment: [D]
     X:     0.1984      Y:    -0.0000      Z:     0.0019     Total:     0.1984

*** tstop() called on n080 at Fri Nov  5 13:40:24 2021
Module time:
	user time   =     502.75 seconds =       8.38 minutes
	system time =       4.58 seconds =       0.08 minutes
	total time  =        127 seconds =       2.12 minutes
Total time:
	user time   =     502.75 seconds =       8.38 minutes
	system time =       4.58 seconds =       0.08 minutes
	total time  =        127 seconds =       2.12 minutes
Grab this energy -157.81306676420758
    Psi4 stopped on: Friday, 05 November 2021 01:40PM
    Psi4 wall time for execution: 0:02:07.61

*** Psi4 exiting successfully. Buy a developer a beer!
