                               Psi4 1.4a2.dev629

  ==> Input File <==

--------------------------------------------------------------------------
import os
memory 14 GB

molecule {
 C   -0.3233417798   -0.0002386541    0.0000000000
 C    0.0622130473   -1.4016951884   -2.4263983461
 C    0.0588716340    2.8009103391   -0.0000000000
 C    0.0622130473   -1.4016951884    2.4263983461
 H    2.0847455791   -1.6440255185   -2.8477708299
 H   -0.7644434376   -0.3897518519   -4.0247387807
 H   -0.7649968470   -3.2894596224   -2.3496941019
 H    2.0911819807    3.2875962849    0.0000000000
 H   -0.7671781977    3.6807860394    1.6807534513
 H   -0.7671781977    3.6807860394   -1.6807534513
 H    2.0847455791   -1.6440255185    2.8477708299
 H   -0.7649968470   -3.2894596224    2.3496941019
 H   -0.7644434376   -0.3897518519    4.0247387807
units bohr
0 2
}

basis {

assign 6-31g_2dfp_

[ 6-31g_2dfp_ ]

spherical

!----------------------------------------------------------------------
! Basis Set Exchange
! Version v0.8.13
! https://www.basissetexchange.org
!----------------------------------------------------------------------
!   Basis set: 6-31G(2df,p)
! Description: 6-31G(2df,p)
!        Role: orbital
!     Version: 0  (Data from the original Basis Set Exchange)
!----------------------------------------------------------------------

****
H     0
S    3   1.00
     18.7311370              0.03349460
      2.8253937              0.23472695
      0.6401217              0.81375733
S    1   1.00
      0.1612778              1.00000000
P    1   1.00
      1.5000000              1.0000000
P    1   1.00
      0.3750000              1.0000000
****
B     0
S    6   1.00
   2068.8823000              0.0018663
    310.6495700              0.0142515
     70.6830330              0.0695516
     19.8610800              0.2325729
      6.2993048              0.4670787
      2.1270270              0.3634314
SP   3   1.00
      4.7279710             -0.1303938              0.0745976
      1.1903377             -0.1307889              0.3078467
      0.3594117              1.1309444              0.7434568
SP   1   1.00
      0.1267512              1.0000000              1.0000000
D    1   1.00
      0.8020000              1.0000000
D    1   1.00
      0.2005000              1.0000000
F    1   1.00
      0.5000000              1.0000000
****
C     0
S    6   1.00
   3047.5249000              0.0018347
    457.3695100              0.0140373
    103.9486900              0.0688426
     29.2101550              0.2321844
      9.2866630              0.4679413
      3.1639270              0.3623120
SP   3   1.00
      7.8682724             -0.1193324              0.0689991
      1.8812885             -0.1608542              0.3164240
      0.5442493              1.1434564              0.7443083
SP   1   1.00
      0.1687144              1.0000000              1.0000000
D    1   1.00
      1.2520000              1.0000000
D    1   1.00
      0.3130000              1.0000000
F    1   1.00
      0.8000000              1.0000000
****
N     0
S    6   1.00
   4173.5110000              0.0018348
    627.4579000              0.0139950
    142.9021000              0.0685870
     40.2343300              0.2322410
     12.8202100              0.4690700
      4.3904370              0.3604550
SP   3   1.00
     11.6263580             -0.1149610              0.0675800
      2.7162800             -0.1691180              0.3239070
      0.7722180              1.1458520              0.7408950
SP   1   1.00
      0.2120313              1.0000000              1.0000000
D    1   1.00
      1.8260000              1.0000000
D    1   1.00
      0.4565000              1.0000000
F    1   1.00
      1.0000000              1.0000000
****
O     0
S    6   1.00
   5484.6717000              0.0018311
    825.2349500              0.0139501
    188.0469600              0.0684451
     52.9645000              0.2327143
     16.8975700              0.4701930
      5.7996353              0.3585209
SP   3   1.00
     15.5396160             -0.1107775              0.0708743
      3.5999336             -0.1480263              0.3397528
      1.0137618              1.1307670              0.7271586
SP   1   1.00
      0.2700058              1.0000000              1.0000000
D    1   1.00
      2.5840000              1.0000000
D    1   1.00
      0.6460000              1.0000000
F    1   1.00
      1.4000000              1.0000000
****
F     0
S    6   1.00
   7001.7130900              0.0018196169
   1051.3660900              0.0139160796
    239.2856900              0.0684053245
     67.3974453              0.233185760
     21.5199573              0.471267439
      7.40310130             0.356618546
SP   3   1.00
     20.8479528             -0.108506975            0.0716287243
      4.80830834            -0.146451658            0.3459121030
      1.34406986             1.128688580            0.7224699570
SP   1   1.00
      0.358151393            1.0000000              1.0000000
D    1   1.00
      3.5000000              1.0000000
D    1   1.00
      0.8750000              1.0000000
F    1   1.00
      1.8500000              1.0000000
****
Al     0
S    6   1.00
  13983.1000000              0.00194267
   2098.7500000              0.0148599
    477.7050000              0.0728494
    134.3600000              0.2468300
     42.8709000              0.4872580
     14.5189000              0.3234960
SP   6   1.00
    239.6680000             -0.00292619             0.00460285
     57.4419000             -0.0374080              0.0331990
     18.2859000             -0.1144870              0.1362820
      6.5991400              0.1156350              0.3304760
      2.4904900              0.6125950              0.4491460
      0.9445400              0.3937990              0.2657040
SP   3   1.00
      1.2779000             -0.2276060             -0.0175130
      0.3975900              0.00144583             0.2445330
      0.1600950              1.0927900              0.8049340
SP   1   1.00
      0.0556577              1.0000000              1.0000000
D    1   1.00
      0.6500000              1.0000000
D    1   1.00
      0.1625000              1.0000000
F    1   1.00
      0.2500000              1.0000000
****
Si     0
S    6   1.00
  16115.9000000              0.00195948
   2425.5800000              0.01492880
    553.8670000              0.07284780
    156.3400000              0.24613000
     50.0683000              0.48591400
     17.0178000              0.32500200
SP   6   1.00
    292.7180000             -0.00278094             0.00443826
     69.8731000             -0.03571460             0.03266790
     22.3363000             -0.11498500             0.13472100
      8.1503900              0.09356340             0.32867800
      3.1345800              0.60301700             0.44964000
      1.2254300              0.41895900             0.26137200
SP   3   1.00
      1.7273800             -0.24463000            -0.01779510
      0.5729220              0.00431572             0.25353900
      0.2221920              1.09818000             0.80066900
SP   1   1.00
      0.0778369              1.00000000             1.00000000
D    1   1.00
      0.9000000              1.0000000
D    1   1.00
      0.2250000              1.0000000
F    1   1.00
      0.3200000              1.0000000
****
P     0
S    6   1.00
  19413.3000000              0.0018516
   2909.4200000              0.0142062
    661.3640000              0.0699995
    185.7590000              0.2400790
     59.1943000              0.4847620
     20.0310000              0.3352000
SP   6   1.00
    339.4780000             -0.00278217             0.00456462
     81.0101000             -0.0360499              0.03369360
     25.8780000             -0.1166310              0.13975500
      9.4522100              0.0968328              0.33936200
      3.6656600              0.6144180              0.45092100
      1.4674600              0.4037980              0.23858600
SP   3   1.00
      2.1562300             -0.2529230             -0.01776530
      0.7489970              0.0328517              0.27405800
      0.2831450              1.0812500              0.78542100
SP   1   1.00
      0.0998317              1.0000000              1.00000000
D    1   1.00
      1.1000000              1.0000000
D    1   1.00
      0.2750000              1.0000000
F    1   1.00
      0.4500000              1.0000000
****
S     0
S    6   1.00
  21917.1000000              0.0018690
   3301.4900000              0.0142300
    754.1460000              0.0696960
    212.7110000              0.2384870
     67.9896000              0.4833070
     23.0515000              0.3380740
SP   6   1.00
    423.7350000             -0.0023767              0.0040610
    100.7100000             -0.0316930              0.0306810
     32.1599000             -0.1133170              0.1304520
     11.8079000              0.0560900              0.3272050
      4.6311000              0.5922550              0.4528510
      1.8702500              0.4550060              0.2560420
SP   3   1.00
      2.6158400             -0.2503740             -0.0145110
      0.9221670              0.0669570              0.3102630
      0.3412870              1.0545100              0.7544830
SP   1   1.00
      0.1171670              1.0000000              1.0000000
D    1   1.00
      1.3000000              1.0000000
D    1   1.00
      0.3250000              1.0000000
F    1   1.00
      0.5500000              1.0000000
****
Cl     0
S    6   1.00
  25180.1000000              0.0018330
   3780.3500000              0.0140340
    860.4740000              0.0690970
    242.1450000              0.2374520
     77.3349000              0.4830340
     26.2470000              0.3398560
SP   6   1.00
    491.7650000             -0.0022974              0.0039894
    116.9840000             -0.0307140              0.0303180
     37.4153000             -0.1125280              0.1298800
     13.7834000              0.0450160              0.3279510
      5.4521500              0.5893530              0.4535270
      2.2258800              0.4652060              0.2521540
SP   3   1.00
      3.1864900             -0.2518300             -0.0142990
      1.1442700              0.0615890              0.3235720
      0.4203770              1.0601800              0.7435070
SP   1   1.00
      0.1426570              1.0000000              1.0000000
D    1   1.00
      1.5000000              1.0000000
D    1   1.00
      0.3750000              1.0000000
F    1   1.00
      0.7000000              1.0000000
****
}

set {
reference uhf
freeze_core true
e_convergence 10
d_convergence 10
dft_spherical_points 1202
dft_radial_points 99
}

e = energy('b3lyp')

print_out('Grab this energy {0}'.format(e))
--------------------------------------------------------------------------

    Molecular point group: cs

    Geometry (in Bohr), charge = 0, multiplicity = 2:

       Center              X                  Y                   Z               Mass
    ------------   -----------------  -----------------  -----------------  -----------------
         C           -0.323340996587     0.000285414886     0.000000000000    12.000000000000
         C            0.062213830513    -1.401171119414    -2.426398346100    12.000000000000
         C            0.058872417213     2.801434408086     0.000000000000    12.000000000000
         C            0.062213830513    -1.401171119414     2.426398346100    12.000000000000
         H            2.084746362313    -1.643501449514    -2.847770829900     1.007825032230
         H           -0.764442654387    -0.389227782914    -4.024738780700     1.007825032230
         H           -0.764996063787    -3.288935553414    -2.349694101900     1.007825032230
         H            2.091182763913     3.288120353886     0.000000000000     1.007825032230
         H           -0.767177414487     3.681310108386     1.680753451300     1.007825032230
         H           -0.767177414487     3.681310108386    -1.680753451300     1.007825032230
         H            2.084746362313    -1.643501449514     2.847770829900     1.007825032230
         H           -0.764996063787    -3.288935553414     2.349694101900     1.007825032230
         H           -0.764442654387    -0.389227782914     4.024738780700     1.007825032230

  Charge       = 0
  Multiplicity = 2
  Basis Set: ANONYMOUSC80B7641
    Blend: 6-31G_2DFP_
  Basis Set: (ANONYMOUSC80B7641 AUX)
    Blend: DEF2-UNIVERSAL-JKFIT

    Orbital Energies [Eh]
    ---------------------

    Alpha Occupied:

       1Ap   -10.180342     2Ap   -10.167718     1App  -10.166679
       3Ap   -10.166648     4Ap    -0.797767     2App   -0.686476
       5Ap    -0.685900     6Ap    -0.530775     7Ap    -0.441130
       3App   -0.434685     8Ap    -0.434653     4App   -0.382973
       9Ap    -0.382225     5App   -0.363610    10Ap    -0.338116
       6App   -0.337883    11Ap    -0.168961

    Alpha Virtual:

      12Ap     0.076070    13Ap     0.134117     7App    0.134181
       8App    0.142594    14Ap     0.142672    15Ap     0.154873
      16Ap     0.178348     9App    0.179215    17Ap     0.203547
      10App    0.214804    11App    0.275884    18Ap     0.276086
      12App    0.399153    19Ap     0.399304    20Ap     0.403342
      13App    0.423954    21Ap     0.424241    22Ap     0.456592
      23Ap     0.495348    14App    0.495430    15App    0.512163
      24Ap     0.513979    25Ap     0.578598    16App    0.579030
      26Ap     0.591183    17App    0.592053    27Ap     0.602605
      28Ap     0.624767    18App    0.631710    19App    0.636034
      29Ap     0.636522    30Ap     0.663071    20App    0.663767
      31Ap     0.683695    21App    0.684021    32Ap     0.734995
      22App    0.824986    33Ap     0.825820    23App    0.853915
      34Ap     0.915021    24App    0.915034    25App    0.944129
      35Ap     0.944612    26App    0.961119    36Ap     0.961476
      37Ap     1.003452    38Ap     1.127667    27App    1.128548
      39Ap     1.142221    40Ap     1.163259    28App    1.163285
      41Ap     1.223317    42Ap     1.274161    29App    1.274814
      43Ap     1.279357    30App    1.324251    44Ap     1.324460
      45Ap     1.355966    31App    1.366006    46Ap     1.366101
      32App    1.392445    47Ap     1.403526    33App    1.404569
      48Ap     1.416521    34App    1.417708    35App    1.427918
      36App    1.491486    49Ap     1.499095    37App    1.542806
      50Ap     1.542836    38App    1.574022    51Ap     1.574892
      52Ap     1.669796    53Ap     1.739033    39App    1.739756
      54Ap     1.768369    55Ap     1.830048    40App    1.832804
      41App    1.971695    56Ap     2.017663    57Ap     2.019135
      42App    2.019553    58Ap     2.052372    43App    2.052988
      44App    2.738073    59Ap     2.738891    60Ap     2.790929
      45App    2.811431    61Ap     2.889876    46App    2.889960
      62Ap     2.895004    47App    2.929363    63Ap     2.929629
      48App    2.959006    64Ap     2.963743    49App    2.965024
      65Ap     3.034026    66Ap     3.071194    50App    3.071383
      51App    3.084363    67Ap     3.168769    52App    3.168783
      68Ap     3.180604    53App    3.285284    69Ap     3.285354
      70Ap     3.327057    54App    3.327273    71Ap     3.375610
      55App    3.489009    72Ap     3.491312    56App    3.514017
      73Ap     3.525335    74Ap     3.568248    57App    3.568495
      58App    3.575176    75Ap     3.665290    59App    3.667430
      76Ap     3.679679    77Ap     3.693691    60App    3.694552
      78Ap     3.776172    61App    3.777461    79Ap     3.789118
      80Ap     3.911845    62App    3.912585    81Ap     4.034431
      82Ap     4.110689    63App    4.111984    64App    4.145933
      83Ap     4.150181    84Ap     4.173298    85Ap     4.200144
      65App    4.203714    86Ap     4.204833    66App    4.211197
      87Ap     4.315694    67App    4.316183    68App    4.358962
      69App    4.423980    88Ap     4.424811    70App    4.443615
      89Ap     4.515521    71App    4.518099    72App    4.577655
      90Ap     4.578957    91Ap     4.617533    92Ap     4.709482
      93Ap     4.773981    73App    4.775211    74App    4.836864
      94Ap     4.962855    95Ap     5.001950    75App    5.003970
      96Ap     5.227867    76App    5.243091    97Ap     5.250522
      98Ap     5.352921    77App    5.358269    78App    5.479429

    Beta Occupied:

       1Ap   -10.168481     1App  -10.167428     2Ap   -10.167416
       3Ap   -10.166517     4Ap    -0.781092     2App   -0.684278
       5Ap    -0.683703     6Ap    -0.511746     3App   -0.431050
       7Ap    -0.431035     8Ap    -0.421824     4App   -0.377076
       9Ap    -0.376290     5App   -0.362594    10Ap    -0.333233
       6App   -0.333012

    Beta Virtual:

      11Ap    -0.025743    12Ap     0.077079     7App    0.135006
      13Ap     0.135074    14Ap     0.144499     8App    0.144507
      15Ap     0.163331    16Ap     0.182027     9App    0.182879
      10App    0.215034    17Ap     0.218929    11App    0.282233
      18Ap     0.282434    12App    0.400324    19Ap     0.400472
      20Ap     0.419789    13App    0.426759    21Ap     0.427058
      22Ap     0.468500    23Ap     0.497605    14App    0.497694
      15App    0.513898    24Ap     0.556324    25Ap     0.584145
      16App    0.584582    26Ap     0.597388    17App    0.598215
      27Ap     0.610021    28Ap     0.628142    18App    0.631897
      19App    0.639312    29Ap     0.639786    30Ap     0.666637
      20App    0.667329    31Ap     0.686367    21App    0.686619
      32Ap     0.757517    22App    0.830131    33Ap     0.831012
      23App    0.855269    34Ap     0.922991    24App    0.923005
      25App    0.945966    35Ap     0.953541    26App    0.966460
      36Ap     0.966746    37Ap     1.008692    38Ap     1.131645
      27App    1.132629    39Ap     1.155595    28App    1.168296
      40Ap     1.168395    41Ap     1.232291    42Ap     1.279754
      29App    1.280418    43Ap     1.285108    30App    1.329204
      44Ap     1.329485    45Ap     1.365372    31App    1.371235
      46Ap     1.371367    32App    1.393505    47Ap     1.406961
      33App    1.408064    48Ap     1.421544    34App    1.422785
      35App    1.428189    36App    1.492535    49Ap     1.509536
      37App    1.547099    50Ap     1.547357    38App    1.581954
      51Ap     1.582703    52Ap     1.674642    53Ap     1.744796
      39App    1.745526    54Ap     1.779140    55Ap     1.833931
      40App    1.836630    41App    1.972558    56Ap     2.024793
      42App    2.026038    57Ap     2.039695    58Ap     2.059176
      43App    2.059614    44App    2.746390    59Ap     2.747247
      45App    2.811843    60Ap     2.816065    46App    2.902572
      61Ap     2.902687    62Ap     2.924664    47App    2.931897
      63Ap     2.932057    48App    2.960070    64Ap     2.968255
      49App    2.969600    65Ap     3.041959    66Ap     3.081042
      50App    3.081349    51App    3.086187    52App    3.184476
      67Ap     3.184517    68Ap     3.188344    53App    3.290047
      69Ap     3.290189    70Ap     3.330827    54App    3.331111
      71Ap     3.383429    55App    3.491772    72Ap     3.494010
      56App    3.512381    73Ap     3.528380    57App    3.574968
      74Ap     3.581679    58App    3.581808    75Ap     3.670051
      59App    3.672169    76Ap     3.692987    77Ap     3.725143
      60App    3.726345    78Ap     3.780744    61App    3.781945
      79Ap     3.817664    80Ap     3.921692    62App    3.922373
      81Ap     4.045312    82Ap     4.117673    63App    4.118614
      64App    4.153324    83Ap     4.157237    84Ap     4.187353
      85Ap     4.206807    65App    4.209699    86Ap     4.212020
      66App    4.215681    87Ap     4.323281    67App    4.323469
      68App    4.362335    69App    4.432192    88Ap     4.432962
      70App    4.446561    89Ap     4.523375    71App    4.525824
      72App    4.588318    90Ap     4.589499    91Ap     4.624724
      92Ap     4.719825    93Ap     4.780921    73App    4.782178
      74App    4.839780    94Ap     4.967654    95Ap     5.006023
      75App    5.007975    96Ap     5.233576    76App    5.244877
      97Ap     5.252313    98Ap     5.359411    77App    5.364736
      78App    5.481750

    Final Occupation by Irrep:
             Ap   App
    DOCC [    10,    6 ]
    SOCC [     1,    0 ]

  @DF-UKS Final Energy:  -157.81305594756205

   => Energetics <=

    Nuclear Repulsion Energy =            125.3946561618253810
    One-Electron Energy =                -458.7489386872251202
    Two-Electron Energy =                 195.8483740961759167
    DFT Exchange-Correlation Energy =     -20.3071475183382226
    Empirical Dispersion Energy =           0.0000000000000000
    VV10 Nonlocal Energy =                  0.0000000000000000
    Total Energy =                       -157.8130559475620487

  UHF NO Occupations:
  HONO-2 :    9 Ap 1.9996008
  HONO-1 :   10 Ap 1.9989804
  HONO-0 :   11 Ap 1.0000000
  LUNO+0 :   12 Ap 0.0010196
  LUNO+1 :   13 Ap 0.0003992
  LUNO+2 :    7App 0.0001976
  LUNO+3 :   14 Ap 0.0001975

Computation Completed

Properties will be evaluated at   0.000000,   0.000000,   0.000000 [a0]

Properties computed using the SCF density matrix

  Nuclear Dipole Moment: [e a0]
     X:     0.8272      Y:     0.0037      Z:    -0.0000

  Electronic Dipole Moment: [e a0]
     X:    -0.7493      Y:    -0.0060      Z:     0.0000

  Dipole Moment: [e a0]
     X:     0.0779      Y:    -0.0023      Z:    -0.0000     Total:     0.0779

  Dipole Moment: [D]
     X:     0.1980      Y:    -0.0059      Z:    -0.0000     Total:     0.1981

*** tstop() called on n083 at Fri Nov  5 12:35:07 2021
Module time:
	user time   =     494.57 seconds =       8.24 minutes
	system time =       4.35 seconds =       0.07 minutes
	total time  =        125 seconds =       2.08 minutes
Total time:
	user time   =     494.57 seconds =       8.24 minutes
	system time =       4.35 seconds =       0.07 minutes
	total time  =        125 seconds =       2.08 minutes
Grab this energy -157.81305594756205
    Psi4 stopped on: Friday, 05 November 2021 12:35PM
    Psi4 wall time for execution: 0:02:05.49

*** Psi4 exiting successfully. Buy a developer a beer!
