                               Psi4 1.4a2.dev629

  ==> Input File <==

--------------------------------------------------------------------------
import os
memory 14 GB

molecule {
 C   -0.3233399887   -0.0002493579    0.0019964276
 C    0.0607181147   -1.4016653533   -2.4268455042
 C    0.0621320806    2.8016346028    0.0011521779
 C    0.0604511252   -1.3999306950    2.4261521022
 H    2.0851205797   -1.6449448186   -2.8480224146
 H   -0.7668120342   -0.3876301856   -4.0256977897
 H   -0.7666805582   -3.2942382618   -2.3512267361
 H    2.0900312373    3.2942069195    0.0040883343
 H   -0.7653768604    3.6825491918    1.6755856261
 H   -0.7626241993    3.6713007972   -1.6771660031
 H    2.0854993735   -1.6374233397    2.8431926590
 H   -0.7644276534   -3.2911568824    2.3469588711
 H   -0.7672990935   -0.3924769307    4.0298322493
units bohr
0 2
}

basis {

assign 6-31g_2dfp_

[ 6-31g_2dfp_ ]

spherical

!----------------------------------------------------------------------
! Basis Set Exchange
! Version v0.8.13
! https://www.basissetexchange.org
!----------------------------------------------------------------------
!   Basis set: 6-31G(2df,p)
! Description: 6-31G(2df,p)
!        Role: orbital
!     Version: 0  (Data from the original Basis Set Exchange)
!----------------------------------------------------------------------

****
H     0
S    3   1.00
     18.7311370              0.03349460
      2.8253937              0.23472695
      0.6401217              0.81375733
S    1   1.00
      0.1612778              1.00000000
P    1   1.00
      1.5000000              1.0000000
P    1   1.00
      0.3750000              1.0000000
****
B     0
S    6   1.00
   2068.8823000              0.0018663
    310.6495700              0.0142515
     70.6830330              0.0695516
     19.8610800              0.2325729
      6.2993048              0.4670787
      2.1270270              0.3634314
SP   3   1.00
      4.7279710             -0.1303938              0.0745976
      1.1903377             -0.1307889              0.3078467
      0.3594117              1.1309444              0.7434568
SP   1   1.00
      0.1267512              1.0000000              1.0000000
D    1   1.00
      0.8020000              1.0000000
D    1   1.00
      0.2005000              1.0000000
F    1   1.00
      0.5000000              1.0000000
****
C     0
S    6   1.00
   3047.5249000              0.0018347
    457.3695100              0.0140373
    103.9486900              0.0688426
     29.2101550              0.2321844
      9.2866630              0.4679413
      3.1639270              0.3623120
SP   3   1.00
      7.8682724             -0.1193324              0.0689991
      1.8812885             -0.1608542              0.3164240
      0.5442493              1.1434564              0.7443083
SP   1   1.00
      0.1687144              1.0000000              1.0000000
D    1   1.00
      1.2520000              1.0000000
D    1   1.00
      0.3130000              1.0000000
F    1   1.00
      0.8000000              1.0000000
****
N     0
S    6   1.00
   4173.5110000              0.0018348
    627.4579000              0.0139950
    142.9021000              0.0685870
     40.2343300              0.2322410
     12.8202100              0.4690700
      4.3904370              0.3604550
SP   3   1.00
     11.6263580             -0.1149610              0.0675800
      2.7162800             -0.1691180              0.3239070
      0.7722180              1.1458520              0.7408950
SP   1   1.00
      0.2120313              1.0000000              1.0000000
D    1   1.00
      1.8260000              1.0000000
D    1   1.00
      0.4565000              1.0000000
F    1   1.00
      1.0000000              1.0000000
****
O     0
S    6   1.00
   5484.6717000              0.0018311
    825.2349500              0.0139501
    188.0469600              0.0684451
     52.9645000              0.2327143
     16.8975700              0.4701930
      5.7996353              0.3585209
SP   3   1.00
     15.5396160             -0.1107775              0.0708743
      3.5999336             -0.1480263              0.3397528
      1.0137618              1.1307670              0.7271586
SP   1   1.00
      0.2700058              1.0000000              1.0000000
D    1   1.00
      2.5840000              1.0000000
D    1   1.00
      0.6460000              1.0000000
F    1   1.00
      1.4000000              1.0000000
****
F     0
S    6   1.00
   7001.7130900              0.0018196169
   1051.3660900              0.0139160796
    239.2856900              0.0684053245
     67.3974453              0.233185760
     21.5199573              0.471267439
      7.40310130             0.356618546
SP   3   1.00
     20.8479528             -0.108506975            0.0716287243
      4.80830834            -0.146451658            0.3459121030
      1.34406986             1.128688580            0.7224699570
SP   1   1.00
      0.358151393            1.0000000              1.0000000
D    1   1.00
      3.5000000              1.0000000
D    1   1.00
      0.8750000              1.0000000
F    1   1.00
      1.8500000              1.0000000
****
Al     0
S    6   1.00
  13983.1000000              0.00194267
   2098.7500000              0.0148599
    477.7050000              0.0728494
    134.3600000              0.2468300
     42.8709000              0.4872580
     14.5189000              0.3234960
SP   6   1.00
    239.6680000             -0.00292619             0.00460285
     57.4419000             -0.0374080              0.0331990
     18.2859000             -0.1144870              0.1362820
      6.5991400              0.1156350              0.3304760
      2.4904900              0.6125950              0.4491460
      0.9445400              0.3937990              0.2657040
SP   3   1.00
      1.2779000             -0.2276060             -0.0175130
      0.3975900              0.00144583             0.2445330
      0.1600950              1.0927900              0.8049340
SP   1   1.00
      0.0556577              1.0000000              1.0000000
D    1   1.00
      0.6500000              1.0000000
D    1   1.00
      0.1625000              1.0000000
F    1   1.00
      0.2500000              1.0000000
****
Si     0
S    6   1.00
  16115.9000000              0.00195948
   2425.5800000              0.01492880
    553.8670000              0.07284780
    156.3400000              0.24613000
     50.0683000              0.48591400
     17.0178000              0.32500200
SP   6   1.00
    292.7180000             -0.00278094             0.00443826
     69.8731000             -0.03571460             0.03266790
     22.3363000             -0.11498500             0.13472100
      8.1503900              0.09356340             0.32867800
      3.1345800              0.60301700             0.44964000
      1.2254300              0.41895900             0.26137200
SP   3   1.00
      1.7273800             -0.24463000            -0.01779510
      0.5729220              0.00431572             0.25353900
      0.2221920              1.09818000             0.80066900
SP   1   1.00
      0.0778369              1.00000000             1.00000000
D    1   1.00
      0.9000000              1.0000000
D    1   1.00
      0.2250000              1.0000000
F    1   1.00
      0.3200000              1.0000000
****
P     0
S    6   1.00
  19413.3000000              0.0018516
   2909.4200000              0.0142062
    661.3640000              0.0699995
    185.7590000              0.2400790
     59.1943000              0.4847620
     20.0310000              0.3352000
SP   6   1.00
    339.4780000             -0.00278217             0.00456462
     81.0101000             -0.0360499              0.03369360
     25.8780000             -0.1166310              0.13975500
      9.4522100              0.0968328              0.33936200
      3.6656600              0.6144180              0.45092100
      1.4674600              0.4037980              0.23858600
SP   3   1.00
      2.1562300             -0.2529230             -0.01776530
      0.7489970              0.0328517              0.27405800
      0.2831450              1.0812500              0.78542100
SP   1   1.00
      0.0998317              1.0000000              1.00000000
D    1   1.00
      1.1000000              1.0000000
D    1   1.00
      0.2750000              1.0000000
F    1   1.00
      0.4500000              1.0000000
****
S     0
S    6   1.00
  21917.1000000              0.0018690
   3301.4900000              0.0142300
    754.1460000              0.0696960
    212.7110000              0.2384870
     67.9896000              0.4833070
     23.0515000              0.3380740
SP   6   1.00
    423.7350000             -0.0023767              0.0040610
    100.7100000             -0.0316930              0.0306810
     32.1599000             -0.1133170              0.1304520
     11.8079000              0.0560900              0.3272050
      4.6311000              0.5922550              0.4528510
      1.8702500              0.4550060              0.2560420
SP   3   1.00
      2.6158400             -0.2503740             -0.0145110
      0.9221670              0.0669570              0.3102630
      0.3412870              1.0545100              0.7544830
SP   1   1.00
      0.1171670              1.0000000              1.0000000
D    1   1.00
      1.3000000              1.0000000
D    1   1.00
      0.3250000              1.0000000
F    1   1.00
      0.5500000              1.0000000
****
Cl     0
S    6   1.00
  25180.1000000              0.0018330
   3780.3500000              0.0140340
    860.4740000              0.0690970
    242.1450000              0.2374520
     77.3349000              0.4830340
     26.2470000              0.3398560
SP   6   1.00
    491.7650000             -0.0022974              0.0039894
    116.9840000             -0.0307140              0.0303180
     37.4153000             -0.1125280              0.1298800
     13.7834000              0.0450160              0.3279510
      5.4521500              0.5893530              0.4535270
      2.2258800              0.4652060              0.2521540
SP   3   1.00
      3.1864900             -0.2518300             -0.0142990
      1.1442700              0.0615890              0.3235720
      0.4203770              1.0601800              0.7435070
SP   1   1.00
      0.1426570              1.0000000              1.0000000
D    1   1.00
      1.5000000              1.0000000
D    1   1.00
      0.3750000              1.0000000
F    1   1.00
      0.7000000              1.0000000
****
}

set {
reference uhf
freeze_core true
e_convergence 10
d_convergence 10
dft_spherical_points 1202
dft_radial_points 99
}

e = energy('b3lyp')

print_out('Grab this energy {0}'.format(e))
--------------------------------------------------------------------------

    Molecular point group: c1

    Geometry (in Bohr), charge = 0, multiplicity = 2:

       Center              X                  Y                   Z               Mass
    ------------   -----------------  -----------------  -----------------  -----------------
         C           -0.323340242295    -0.000208326283     0.001523537726    12.000000000000
         C            0.060717861105    -1.401624321683    -2.427318394074    12.000000000000
         C            0.062131827005     2.801675634417     0.000679288026    12.000000000000
         C            0.060450871605    -1.399889663383     2.425679212326    12.000000000000
         H            2.085120326105    -1.644903786983    -2.848495304474     1.007825032230
         H           -0.766812287795    -0.387589153983    -4.026170679574     1.007825032230
         H           -0.766680811795    -3.294197230183    -2.351699625974     1.007825032230
         H            2.090030983705     3.294247951117     0.003615444426     1.007825032230
         H           -0.765377113995     3.682590223417     1.675112736226     1.007825032230
         H           -0.762624452895     3.671341828817    -1.677638892974     1.007825032230
         H            2.085499119905    -1.637382308083     2.842719769126     1.007825032230
         H           -0.764427906995    -3.291115850783     2.346485981226     1.007825032230
         H           -0.767299347095    -0.392435899083     4.029359359426     1.007825032230

  Charge       = 0
  Multiplicity = 2
  Basis Set: ANONYMOUS792F3128
    Blend: 6-31G_2DFP_
  Basis Set: (ANONYMOUS792F3128 AUX)
    Blend: DEF2-UNIVERSAL-JKFIT

    Orbital Energies [Eh]
    ---------------------

    Alpha Occupied:

       1A    -10.180342     2A    -10.167191     3A    -10.166983
       4A    -10.166871     5A     -0.797768     6A     -0.686312
       7A     -0.686062     8A     -0.530775     9A     -0.441130
      10A     -0.434781    11A     -0.434559    12A     -0.382825
      13A     -0.382371    14A     -0.363611    15A     -0.338165
      16A     -0.337831    17A     -0.168961

    Alpha Virtual:

      18A      0.076073    19A      0.134096    20A      0.134213
      21A      0.142412    22A      0.142839    23A      0.154881
      24A      0.178632    25A      0.178920    26A      0.203551
      27A      0.214804    28A      0.275716    29A      0.276255
      30A      0.399093    31A      0.399356    32A      0.403352
      33A      0.423983    34A      0.424214    35A      0.456594
      36A      0.495328    37A      0.495450    38A      0.512160
      39A      0.513981    40A      0.578499    41A      0.579122
      42A      0.591235    43A      0.592010    44A      0.602607
      45A      0.624759    46A      0.631750    47A      0.636028
      48A      0.636502    49A      0.663360    50A      0.663465
      51A      0.683734    52A      0.683971    53A      0.734993
      54A      0.825181    55A      0.825630    56A      0.853915
      57A      0.914680    58A      0.915355    59A      0.944107
      60A      0.944614    61A      0.960604    62A      0.962009
      63A      1.003461    64A      1.127650    65A      1.128552
      66A      1.142204    67A      1.163091    68A      1.163477
      69A      1.223327    70A      1.274303    71A      1.274660
      72A      1.279365    73A      1.324289    74A      1.324421
      75A      1.355978    76A      1.365898    77A      1.366219
      78A      1.392450    79A      1.403468    80A      1.404628
      81A      1.416598    82A      1.417612    83A      1.427926
      84A      1.491502    85A      1.499060    86A      1.542563
      87A      1.543109    88A      1.573960    89A      1.574945
      90A      1.669835    91A      1.739019    92A      1.739808
      93A      1.768325    94A      1.830748    95A      1.832058
      96A      1.971722    97A      2.018040    98A      2.018969
      99A      2.019393   100A      2.051715   101A      2.053568
     102A      2.738209   103A      2.738761   104A      2.790932
     105A      2.811418   106A      2.889576   107A      2.890272
     108A      2.895019   109A      2.929185   110A      2.929807
     111A      2.958988   112A      2.964153   113A      2.964606
     114A      3.034003   115A      3.070635   116A      3.071933
     117A      3.084351   118A      3.168483   119A      3.169091
     120A      3.180578   121A      3.285191   122A      3.285438
     123A      3.326224   124A      3.328101   125A      3.375619
     126A      3.489072   127A      3.491221   128A      3.514016
     129A      3.525313   130A      3.567855   131A      3.568720
     132A      3.575376   133A      3.665868   134A      3.666836
     135A      3.679636   136A      3.693379   137A      3.694900
     138A      3.775550   139A      3.778046   140A      3.789208
     141A      3.911944   142A      3.912530   143A      4.034444
     144A      4.110098   145A      4.112613   146A      4.147234
     147A      4.148960   148A      4.173287   149A      4.202311
     150A      4.202758   151A      4.203738   152A      4.210852
     153A      4.315141   154A      4.316738   155A      4.359029
     156A      4.424196   157A      4.424742   158A      4.443428
     159A      4.516042   160A      4.517590   161A      4.577931
     162A      4.578597   163A      4.617575   164A      4.709402
     165A      4.773390   166A      4.775812   167A      4.836963
     168A      4.962861   169A      5.002302   170A      5.003611
     171A      5.228062   172A      5.246082   173A      5.247545
     174A      5.354787   175A      5.356227   176A      5.479353

    Beta Occupied:

       1A    -10.167948     2A    -10.167745     3A    -10.167631
       4A    -10.166520     5A     -0.781093     6A     -0.684107
       7A     -0.683873     8A     -0.511747     9A     -0.431162
      10A     -0.430928    11A     -0.421820    12A     -0.376916
      13A     -0.376450    14A     -0.362595    15A     -0.333276
      16A     -0.332966

    Beta Virtual:

      17A     -0.025743    18A      0.077082    19A      0.134997
      20A      0.135093    21A      0.144304    22A      0.144690
      23A      0.163340    24A      0.182304    25A      0.182592
      26A      0.215033    27A      0.218932    28A      0.282073
      29A      0.282593    30A      0.400272    31A      0.400521
      32A      0.419790    33A      0.426794    34A      0.427027
      35A      0.468501    36A      0.497593    37A      0.497708
      38A      0.513896    39A      0.556325    40A      0.584046
      41A      0.584677    42A      0.597422    43A      0.598186
      44A      0.610022    45A      0.628137    46A      0.631916
      47A      0.639313    48A      0.639779    49A      0.666916
      50A      0.667037    51A      0.686377    52A      0.686598
      53A      0.757516    54A      0.830330    55A      0.830818
      56A      0.855269    57A      0.922688    58A      0.923289
      59A      0.945947    60A      0.953534    61A      0.965967
      62A      0.967264    63A      1.008702    64A      1.131674
      65A      1.132585    66A      1.155577    67A      1.168160
      68A      1.168559    69A      1.232298    70A      1.279909
      71A      1.280251    72A      1.285118    73A      1.329270
      74A      1.329418    75A      1.365381    76A      1.371171
      77A      1.371447    78A      1.393510    79A      1.406912
      80A      1.408111    81A      1.421652    82A      1.422643
      83A      1.428210    84A      1.492550    85A      1.509501
      86A      1.546947    87A      1.547549    88A      1.581740
      89A      1.582903    90A      1.674682    91A      1.744776
      92A      1.745577    93A      1.779102    94A      1.834608
      95A      1.835909    96A      1.972582    97A      2.025367
      98A      2.025526    99A      2.039685   100A      2.058404
     101A      2.060311   102A      2.746561   103A      2.747082
     104A      2.811831   105A      2.816065   106A      2.902352
     107A      2.902927   108A      2.924667   109A      2.931683
     110A      2.932275   111A      2.960056   112A      2.968705
     113A      2.969139   114A      3.041938   115A      3.080504
     116A      3.081884   117A      3.086168   118A      3.184211
     119A      3.184871   120A      3.188253   121A      3.289947
     122A      3.290280   123A      3.330043   124A      3.331890
     125A      3.383438   126A      3.491824   127A      3.493927
     128A      3.512385   129A      3.528365   130A      3.574789
     131A      3.581566   132A      3.582121   133A      3.670673
     134A      3.671568   135A      3.692925   136A      3.725352
     137A      3.726169   138A      3.780126   139A      3.782533
     140A      3.817737   141A      3.921773   142A      3.922333
     143A      4.045331   144A      4.117029   145A      4.119319
     146A      4.154412   147A      4.156205   148A      4.187337
     149A      4.208645   150A      4.209148   151A      4.210854
     152A      4.215327   153A      4.322563   154A      4.324189
     155A      4.362397   156A      4.432447   157A      4.432920
     158A      4.446315   159A      4.523845   160A      4.525367
     161A      4.588532   162A      4.589195   163A      4.624771
     164A      4.719745   165A      4.780365   166A      4.782745
     167A      4.839882   168A      4.967655   169A      5.006349
     170A      5.007643   171A      5.233777   172A      5.247862
     173A      5.249333   174A      5.361246   175A      5.362729
     176A      5.481674

    Final Occupation by Irrep:
              A
    DOCC [    16 ]
    SOCC [     1 ]

  @DF-UKS Final Energy:  -157.81306285172960

   => Energetics <=

    Nuclear Repulsion Energy =            125.3946365774009450
    One-Electron Energy =                -458.7489171871837925
    Two-Electron Energy =                 195.8483616949521604
    DFT Exchange-Correlation Energy =     -20.3071439368988997
    Empirical Dispersion Energy =           0.0000000000000000
    VV10 Nonlocal Energy =                  0.0000000000000000
    Total Energy =                       -157.8130628517295975

  UHF NO Occupations:
  HONO-2 :   15  A 1.9996009
  HONO-1 :   16  A 1.9989804
  HONO-0 :   17  A 1.0000000
  LUNO+0 :   18  A 0.0010196
  LUNO+1 :   19  A 0.0003991
  LUNO+2 :   20  A 0.0001979
  LUNO+3 :   21  A 0.0001972

Computation Completed

Properties will be evaluated at   0.000000,   0.000000,   0.000000 [a0]

Properties computed using the SCF density matrix

  Nuclear Dipole Moment: [e a0]
     X:     0.8272      Y:     0.0003      Z:    -0.0033

  Electronic Dipole Moment: [e a0]
     X:    -0.7493      Y:    -0.0010      Z:     0.0034

  Dipole Moment: [e a0]
     X:     0.0779      Y:    -0.0008      Z:     0.0000     Total:     0.0779

  Dipole Moment: [D]
     X:     0.1980      Y:    -0.0020      Z:     0.0001     Total:     0.1980

*** tstop() called on n082 at Fri Nov  5 15:22:07 2021
Module time:
	user time   =     493.74 seconds =       8.23 minutes
	system time =       4.52 seconds =       0.08 minutes
	total time  =        125 seconds =       2.08 minutes
Total time:
	user time   =     493.74 seconds =       8.23 minutes
	system time =       4.52 seconds =       0.08 minutes
	total time  =        125 seconds =       2.08 minutes
Grab this energy -157.8130628517296
    Psi4 stopped on: Friday, 05 November 2021 03:22PM
    Psi4 wall time for execution: 0:02:05.29

*** Psi4 exiting successfully. Buy a developer a beer!
