                               Psi4 1.4a2.dev629

  ==> Input File <==

--------------------------------------------------------------------------
import os
memory 14 GB

molecule {
 C   -0.3233378264   -0.0053448814    0.0002470786
 C    0.0620290387   -1.4016050668   -2.4258652918
 C    0.0611682493    2.8017045372   -0.0001490194
 C    0.0601043823   -1.4018404376    2.4259792145
 H    2.0898590779   -1.6450291220   -2.8526512006
 H   -0.7637151733   -0.3869171076   -4.0241005578
 H   -0.7643569769   -3.2894073740   -2.3449954296
 H    2.0865603073    3.2887078118   -0.0018540931
 H   -0.7647382433    3.6796681300    1.6766821534
 H   -0.7666639000    3.6825028473   -1.6755362070
 H    2.0842393884   -1.6413696288    2.8425792337
 H   -0.7681663006   -3.2926727575    2.3514108478
 H   -0.7655899001   -0.3884212641    4.0282532713
units bohr
0 2
}

basis {

assign 6-31g_2dfp_

[ 6-31g_2dfp_ ]

spherical

!----------------------------------------------------------------------
! Basis Set Exchange
! Version v0.8.13
! https://www.basissetexchange.org
!----------------------------------------------------------------------
!   Basis set: 6-31G(2df,p)
! Description: 6-31G(2df,p)
!        Role: orbital
!     Version: 0  (Data from the original Basis Set Exchange)
!----------------------------------------------------------------------

****
H     0
S    3   1.00
     18.7311370              0.03349460
      2.8253937              0.23472695
      0.6401217              0.81375733
S    1   1.00
      0.1612778              1.00000000
P    1   1.00
      1.5000000              1.0000000
P    1   1.00
      0.3750000              1.0000000
****
B     0
S    6   1.00
   2068.8823000              0.0018663
    310.6495700              0.0142515
     70.6830330              0.0695516
     19.8610800              0.2325729
      6.2993048              0.4670787
      2.1270270              0.3634314
SP   3   1.00
      4.7279710             -0.1303938              0.0745976
      1.1903377             -0.1307889              0.3078467
      0.3594117              1.1309444              0.7434568
SP   1   1.00
      0.1267512              1.0000000              1.0000000
D    1   1.00
      0.8020000              1.0000000
D    1   1.00
      0.2005000              1.0000000
F    1   1.00
      0.5000000              1.0000000
****
C     0
S    6   1.00
   3047.5249000              0.0018347
    457.3695100              0.0140373
    103.9486900              0.0688426
     29.2101550              0.2321844
      9.2866630              0.4679413
      3.1639270              0.3623120
SP   3   1.00
      7.8682724             -0.1193324              0.0689991
      1.8812885             -0.1608542              0.3164240
      0.5442493              1.1434564              0.7443083
SP   1   1.00
      0.1687144              1.0000000              1.0000000
D    1   1.00
      1.2520000              1.0000000
D    1   1.00
      0.3130000              1.0000000
F    1   1.00
      0.8000000              1.0000000
****
N     0
S    6   1.00
   4173.5110000              0.0018348
    627.4579000              0.0139950
    142.9021000              0.0685870
     40.2343300              0.2322410
     12.8202100              0.4690700
      4.3904370              0.3604550
SP   3   1.00
     11.6263580             -0.1149610              0.0675800
      2.7162800             -0.1691180              0.3239070
      0.7722180              1.1458520              0.7408950
SP   1   1.00
      0.2120313              1.0000000              1.0000000
D    1   1.00
      1.8260000              1.0000000
D    1   1.00
      0.4565000              1.0000000
F    1   1.00
      1.0000000              1.0000000
****
O     0
S    6   1.00
   5484.6717000              0.0018311
    825.2349500              0.0139501
    188.0469600              0.0684451
     52.9645000              0.2327143
     16.8975700              0.4701930
      5.7996353              0.3585209
SP   3   1.00
     15.5396160             -0.1107775              0.0708743
      3.5999336             -0.1480263              0.3397528
      1.0137618              1.1307670              0.7271586
SP   1   1.00
      0.2700058              1.0000000              1.0000000
D    1   1.00
      2.5840000              1.0000000
D    1   1.00
      0.6460000              1.0000000
F    1   1.00
      1.4000000              1.0000000
****
F     0
S    6   1.00
   7001.7130900              0.0018196169
   1051.3660900              0.0139160796
    239.2856900              0.0684053245
     67.3974453              0.233185760
     21.5199573              0.471267439
      7.40310130             0.356618546
SP   3   1.00
     20.8479528             -0.108506975            0.0716287243
      4.80830834            -0.146451658            0.3459121030
      1.34406986             1.128688580            0.7224699570
SP   1   1.00
      0.358151393            1.0000000              1.0000000
D    1   1.00
      3.5000000              1.0000000
D    1   1.00
      0.8750000              1.0000000
F    1   1.00
      1.8500000              1.0000000
****
Al     0
S    6   1.00
  13983.1000000              0.00194267
   2098.7500000              0.0148599
    477.7050000              0.0728494
    134.3600000              0.2468300
     42.8709000              0.4872580
     14.5189000              0.3234960
SP   6   1.00
    239.6680000             -0.00292619             0.00460285
     57.4419000             -0.0374080              0.0331990
     18.2859000             -0.1144870              0.1362820
      6.5991400              0.1156350              0.3304760
      2.4904900              0.6125950              0.4491460
      0.9445400              0.3937990              0.2657040
SP   3   1.00
      1.2779000             -0.2276060             -0.0175130
      0.3975900              0.00144583             0.2445330
      0.1600950              1.0927900              0.8049340
SP   1   1.00
      0.0556577              1.0000000              1.0000000
D    1   1.00
      0.6500000              1.0000000
D    1   1.00
      0.1625000              1.0000000
F    1   1.00
      0.2500000              1.0000000
****
Si     0
S    6   1.00
  16115.9000000              0.00195948
   2425.5800000              0.01492880
    553.8670000              0.07284780
    156.3400000              0.24613000
     50.0683000              0.48591400
     17.0178000              0.32500200
SP   6   1.00
    292.7180000             -0.00278094             0.00443826
     69.8731000             -0.03571460             0.03266790
     22.3363000             -0.11498500             0.13472100
      8.1503900              0.09356340             0.32867800
      3.1345800              0.60301700             0.44964000
      1.2254300              0.41895900             0.26137200
SP   3   1.00
      1.7273800             -0.24463000            -0.01779510
      0.5729220              0.00431572             0.25353900
      0.2221920              1.09818000             0.80066900
SP   1   1.00
      0.0778369              1.00000000             1.00000000
D    1   1.00
      0.9000000              1.0000000
D    1   1.00
      0.2250000              1.0000000
F    1   1.00
      0.3200000              1.0000000
****
P     0
S    6   1.00
  19413.3000000              0.0018516
   2909.4200000              0.0142062
    661.3640000              0.0699995
    185.7590000              0.2400790
     59.1943000              0.4847620
     20.0310000              0.3352000
SP   6   1.00
    339.4780000             -0.00278217             0.00456462
     81.0101000             -0.0360499              0.03369360
     25.8780000             -0.1166310              0.13975500
      9.4522100              0.0968328              0.33936200
      3.6656600              0.6144180              0.45092100
      1.4674600              0.4037980              0.23858600
SP   3   1.00
      2.1562300             -0.2529230             -0.01776530
      0.7489970              0.0328517              0.27405800
      0.2831450              1.0812500              0.78542100
SP   1   1.00
      0.0998317              1.0000000              1.00000000
D    1   1.00
      1.1000000              1.0000000
D    1   1.00
      0.2750000              1.0000000
F    1   1.00
      0.4500000              1.0000000
****
S     0
S    6   1.00
  21917.1000000              0.0018690
   3301.4900000              0.0142300
    754.1460000              0.0696960
    212.7110000              0.2384870
     67.9896000              0.4833070
     23.0515000              0.3380740
SP   6   1.00
    423.7350000             -0.0023767              0.0040610
    100.7100000             -0.0316930              0.0306810
     32.1599000             -0.1133170              0.1304520
     11.8079000              0.0560900              0.3272050
      4.6311000              0.5922550              0.4528510
      1.8702500              0.4550060              0.2560420
SP   3   1.00
      2.6158400             -0.2503740             -0.0145110
      0.9221670              0.0669570              0.3102630
      0.3412870              1.0545100              0.7544830
SP   1   1.00
      0.1171670              1.0000000              1.0000000
D    1   1.00
      1.3000000              1.0000000
D    1   1.00
      0.3250000              1.0000000
F    1   1.00
      0.5500000              1.0000000
****
Cl     0
S    6   1.00
  25180.1000000              0.0018330
   3780.3500000              0.0140340
    860.4740000              0.0690970
    242.1450000              0.2374520
     77.3349000              0.4830340
     26.2470000              0.3398560
SP   6   1.00
    491.7650000             -0.0022974              0.0039894
    116.9840000             -0.0307140              0.0303180
     37.4153000             -0.1125280              0.1298800
     13.7834000              0.0450160              0.3279510
      5.4521500              0.5893530              0.4535270
      2.2258800              0.4652060              0.2521540
SP   3   1.00
      3.1864900             -0.2518300             -0.0142990
      1.1442700              0.0615890              0.3235720
      0.4203770              1.0601800              0.7435070
SP   1   1.00
      0.1426570              1.0000000              1.0000000
D    1   1.00
      1.5000000              1.0000000
D    1   1.00
      0.3750000              1.0000000
F    1   1.00
      0.7000000              1.0000000
****
}

set {
reference uhf
freeze_core true
e_convergence 10
d_convergence 10
dft_spherical_points 1202
dft_radial_points 99
}

e = energy('b3lyp')

print_out('Grab this energy {0}'.format(e))
--------------------------------------------------------------------------

    Molecular point group: c1

    Geometry (in Bohr), charge = 0, multiplicity = 2:

       Center              X                  Y                   Z               Mass
    ------------   -----------------  -----------------  -----------------  -----------------
         C           -0.323338563844    -0.003979666563     0.000206249359    12.000000000000
         C            0.062028301256    -1.400239851963    -2.425906121041    12.000000000000
         C            0.061167511856     2.803069752037    -0.000189848641    12.000000000000
         C            0.060103644856    -1.400475222763     2.425938385259    12.000000000000
         H            2.089858340456    -1.643663907163    -2.852692029841     1.007825032230
         H           -0.763715910744    -0.385551892763    -4.024141387041     1.007825032230
         H           -0.764357714344    -3.288042159163    -2.345036258841     1.007825032230
         H            2.086559569856     3.290073026637    -0.001894922341     1.007825032230
         H           -0.764738980744     3.681033344837     1.676641324159     1.007825032230
         H           -0.766664637444     3.683868062137    -1.675577036241     1.007825032230
         H            2.084238650956    -1.640004413963     2.842538404459     1.007825032230
         H           -0.768167038044    -3.291307542663     2.351370018559     1.007825032230
         H           -0.765590637544    -0.387056049263     4.028212442059     1.007825032230

  Charge       = 0
  Multiplicity = 2
  Basis Set: ANONYMOUS85D834BB
    Blend: 6-31G_2DFP_
  Basis Set: (ANONYMOUS85D834BB AUX)
    Blend: DEF2-UNIVERSAL-JKFIT

    Orbital Energies [Eh]
    ---------------------

    Alpha Occupied:

       1A    -10.180342     2A    -10.167057     3A    -10.167026
       4A    -10.166961     5A     -0.797770     6A     -0.686379
       7A     -0.685995     8A     -0.530775     9A     -0.441133
      10A     -0.434897    11A     -0.434441    12A     -0.382852
      13A     -0.382348    14A     -0.363608    15A     -0.338540
      16A     -0.337456    17A     -0.168960

    Alpha Virtual:

      18A      0.076072    19A      0.134104    20A      0.134205
      21A      0.142356    22A      0.142897    23A      0.154880
      24A      0.178642    25A      0.178912    26A      0.203547
      27A      0.214802    28A      0.275697    29A      0.276272
      30A      0.399051    31A      0.399406    32A      0.403345
      33A      0.423995    34A      0.424200    35A      0.456594
      36A      0.495339    37A      0.495438    38A      0.512162
      39A      0.513980    40A      0.578577    41A      0.579039
      42A      0.591383    43A      0.591883    44A      0.602605
      45A      0.624752    46A      0.631747    47A      0.636008
      48A      0.636529    49A      0.663336    50A      0.663491
      51A      0.683729    52A      0.683975    53A      0.734993
      54A      0.825285    55A      0.825527    56A      0.853916
      57A      0.914687    58A      0.915352    59A      0.944109
      60A      0.944620    61A      0.961125    62A      0.961482
      63A      1.003452    64A      1.127607    65A      1.128570
      66A      1.142248    67A      1.162841    68A      1.163707
      69A      1.223329    70A      1.274002    71A      1.274968
      72A      1.279364    73A      1.324232    74A      1.324475
      75A      1.355977    76A      1.365792    77A      1.366333
      78A      1.392437    79A      1.403556    80A      1.404525
      81A      1.416643    82A      1.417569    83A      1.427940
      84A      1.491498    85A      1.499062    86A      1.542821
      87A      1.542857    88A      1.573968    89A      1.574939
      90A      1.669827    91A      1.739200    92A      1.739630
      93A      1.768326    94A      1.830901    95A      1.831892
      96A      1.971725    97A      2.018296    98A      2.018473
      99A      2.019637   100A      2.051947   101A      2.053349
     102A      2.738248   103A      2.738728   104A      2.790928
     105A      2.811426   106A      2.889366   107A      2.890500
     108A      2.894977   109A      2.928993   110A      2.929997
     111A      2.958986   112A      2.964139   113A      2.964628
     114A      3.033995   115A      3.070481   116A      3.072103
     117A      3.084350   118A      3.168532   119A      3.168982
     120A      3.180650   121A      3.284994   122A      3.285631
     123A      3.326212   124A      3.328110   125A      3.375605
     126A      3.488974   127A      3.491315   128A      3.514018
     129A      3.525343   130A      3.568142   131A      3.568484
     132A      3.575301   133A      3.665830   134A      3.666908
     135A      3.679670   136A      3.693474   137A      3.694740
     138A      3.776020   139A      3.777551   140A      3.789223
     141A      3.911749   142A      3.912713   143A      4.034429
     144A      4.111013   145A      4.111710   146A      4.147141
     147A      4.149079   148A      4.173263   149A      4.201823
     150A      4.203200   151A      4.203780   152A      4.210870
     153A      4.315361   154A      4.316576   155A      4.358981
     156A      4.424376   157A      4.424541   158A      4.443421
     159A      4.516214   160A      4.517438   161A      4.578116
     162A      4.578137   163A      4.617890   164A      4.709413
     165A      4.773791   166A      4.775441   167A      4.836900
     168A      4.962826   169A      5.002360   170A      5.003602
     171A      5.228067   172A      5.246273   173A      5.247366
     174A      5.354940   175A      5.356079   176A      5.479345

    Beta Occupied:

       1A    -10.167808     2A    -10.167784     3A    -10.167731
       4A    -10.166519     5A     -0.781095     6A     -0.684169
       7A     -0.683811     8A     -0.511747     9A     -0.431280
      10A     -0.430810    11A     -0.421820    12A     -0.376927
      13A     -0.376443    14A     -0.362592    15A     -0.333670
      16A     -0.332572

    Beta Virtual:

      17A     -0.025743    18A      0.077081    19A      0.135003
      20A      0.135086    21A      0.144250    22A      0.144745
      23A      0.163339    24A      0.182308    25A      0.182589
      26A      0.215032    27A      0.218929    28A      0.282079
      29A      0.282586    30A      0.400225    31A      0.400570
      32A      0.419792    33A      0.426804    34A      0.427013
      35A      0.468501    36A      0.497597    37A      0.497703
      38A      0.513897    39A      0.556321    40A      0.584107
      41A      0.584615    42A      0.597558    43A      0.598068
      44A      0.610023    45A      0.628127    46A      0.631914
      47A      0.639283    48A      0.639817    49A      0.666900
      50A      0.667055    51A      0.686378    52A      0.686596
      53A      0.757516    54A      0.830458    55A      0.830691
      56A      0.855269    57A      0.922672    58A      0.923311
      59A      0.945948    60A      0.953545    61A      0.966428
      62A      0.966792    63A      1.008692    64A      1.131699
      65A      1.132552    66A      1.155602    67A      1.167905
      68A      1.168794    69A      1.232301    70A      1.279657
      71A      1.280511    72A      1.285116    73A      1.329227
      74A      1.329458    75A      1.365378    76A      1.371085
      77A      1.371545    78A      1.393497    79A      1.407008
      80A      1.408000    81A      1.421701    82A      1.422593
      83A      1.428227    84A      1.492547    85A      1.509502
      86A      1.547145    87A      1.547357    88A      1.581748
      89A      1.582898    90A      1.674674    91A      1.744960
      92A      1.745396    93A      1.779104    94A      1.834752
      95A      1.835751    96A      1.972585    97A      2.024890
      98A      2.026015    99A      2.039671   100A      2.058670
     101A      2.060064   102A      2.746552   103A      2.747095
     104A      2.811838   105A      2.816064   106A      2.902129
     107A      2.903142   108A      2.924649   109A      2.931440
     110A      2.932519   111A      2.960055   112A      2.968685
     113A      2.969165   114A      3.041930   115A      3.080397
     116A      3.082005   117A      3.086166   118A      3.184208
     119A      3.184693   120A      3.188445   121A      3.289813
     122A      3.290409   123A      3.330026   124A      3.331906
     125A      3.383424   126A      3.491720   127A      3.494024
     128A      3.512388   129A      3.528388   130A      3.574885
     131A      3.581517   132A      3.582067   133A      3.670636
     134A      3.671597   135A      3.692956   136A      3.725330
     137A      3.726163   138A      3.780577   139A      3.782078
     140A      3.817721   141A      3.921572   142A      3.922530
     143A      4.045317   144A      4.117885   145A      4.118475
     146A      4.154364   147A      4.156271   148A      4.187320
     149A      4.208234   150A      4.209451   151A      4.210952
     152A      4.215350   153A      4.322751   154A      4.324067
     155A      4.362343   156A      4.432583   157A      4.432757
     158A      4.446312   159A      4.524002   160A      4.525231
     161A      4.588682   162A      4.588749   163A      4.625105
     164A      4.719759   165A      4.780698   166A      4.782443
     167A      4.839818   168A      4.967618   169A      5.006420
     170A      5.007623   171A      5.233782   172A      5.248059
     173A      5.249148   174A      5.361395   175A      5.362585
     176A      5.481666

    Final Occupation by Irrep:
              A
    DOCC [    16 ]
    SOCC [     1 ]

  @DF-UKS Final Energy:  -157.81305897883007

   => Energetics <=

    Nuclear Repulsion Energy =            125.3946965840018919
    One-Electron Energy =                -458.7490251010440829
    Two-Electron Energy =                 195.8484161871421350
    DFT Exchange-Correlation Energy =     -20.3071466489300221
    Empirical Dispersion Energy =           0.0000000000000000
    VV10 Nonlocal Energy =                  0.0000000000000000
    Total Energy =                       -157.8130589788300711

  UHF NO Occupations:
  HONO-2 :   15  A 1.9996008
  HONO-1 :   16  A 1.9989805
  HONO-0 :   17  A 1.0000000
  LUNO+0 :   18  A 0.0010195
  LUNO+1 :   19  A 0.0003992
  LUNO+2 :   20  A 0.0001986
  LUNO+3 :   21  A 0.0001965

Computation Completed

Properties will be evaluated at   0.000000,   0.000000,   0.000000 [a0]

Properties computed using the SCF density matrix

  Nuclear Dipole Moment: [e a0]
     X:     0.8272      Y:     0.0096      Z:    -0.0003

  Electronic Dipole Moment: [e a0]
     X:    -0.7493      Y:    -0.0108      Z:     0.0011

  Dipole Moment: [e a0]
     X:     0.0779      Y:    -0.0012      Z:     0.0008     Total:     0.0779

  Dipole Moment: [D]
     X:     0.1980      Y:    -0.0031      Z:     0.0019     Total:     0.1981

*** tstop() called on n091 at Fri Nov  5 13:46:36 2021
Module time:
	user time   =     491.30 seconds =       8.19 minutes
	system time =       4.67 seconds =       0.08 minutes
	total time  =        124 seconds =       2.07 minutes
Total time:
	user time   =     491.30 seconds =       8.19 minutes
	system time =       4.67 seconds =       0.08 minutes
	total time  =        124 seconds =       2.07 minutes
Grab this energy -157.81305897883007
    Psi4 stopped on: Friday, 05 November 2021 01:46PM
    Psi4 wall time for execution: 0:02:04.73

*** Psi4 exiting successfully. Buy a developer a beer!
