                               Psi4 1.4a2.dev629

  ==> Input File <==

--------------------------------------------------------------------------
import os
memory 14 GB

molecule {
 C   -0.3233308151   -0.0054426916   -0.0000000000
 C    0.0609967073   -1.3992007911   -2.4318462704
 C    0.0613161112    2.7939446434    0.0000000000
 C    0.0609967073   -1.3992007911    2.4318462704
 H    2.0860942656   -1.6406521858   -2.8547145926
 H   -0.7709333611   -0.3779175016   -4.0291957947
 H   -0.7607602960   -3.2884261683   -2.3621918537
 H    2.0884890077    3.2789310646    0.0000000000
 H   -0.7649384061    3.6724679817    1.6753884366
 H   -0.7649384061    3.6724679817   -1.6753884366
 H    2.0860942656   -1.6406521858    2.8547145926
 H   -0.7607602960   -3.2884261683    2.3621918537
 H   -0.7709333611   -0.3779175016    4.0291957947
units bohr
0 2
}

basis {

assign 6-31g_2dfp_

[ 6-31g_2dfp_ ]

spherical

!----------------------------------------------------------------------
! Basis Set Exchange
! Version v0.8.13
! https://www.basissetexchange.org
!----------------------------------------------------------------------
!   Basis set: 6-31G(2df,p)
! Description: 6-31G(2df,p)
!        Role: orbital
!     Version: 0  (Data from the original Basis Set Exchange)
!----------------------------------------------------------------------

****
H     0
S    3   1.00
     18.7311370              0.03349460
      2.8253937              0.23472695
      0.6401217              0.81375733
S    1   1.00
      0.1612778              1.00000000
P    1   1.00
      1.5000000              1.0000000
P    1   1.00
      0.3750000              1.0000000
****
B     0
S    6   1.00
   2068.8823000              0.0018663
    310.6495700              0.0142515
     70.6830330              0.0695516
     19.8610800              0.2325729
      6.2993048              0.4670787
      2.1270270              0.3634314
SP   3   1.00
      4.7279710             -0.1303938              0.0745976
      1.1903377             -0.1307889              0.3078467
      0.3594117              1.1309444              0.7434568
SP   1   1.00
      0.1267512              1.0000000              1.0000000
D    1   1.00
      0.8020000              1.0000000
D    1   1.00
      0.2005000              1.0000000
F    1   1.00
      0.5000000              1.0000000
****
C     0
S    6   1.00
   3047.5249000              0.0018347
    457.3695100              0.0140373
    103.9486900              0.0688426
     29.2101550              0.2321844
      9.2866630              0.4679413
      3.1639270              0.3623120
SP   3   1.00
      7.8682724             -0.1193324              0.0689991
      1.8812885             -0.1608542              0.3164240
      0.5442493              1.1434564              0.7443083
SP   1   1.00
      0.1687144              1.0000000              1.0000000
D    1   1.00
      1.2520000              1.0000000
D    1   1.00
      0.3130000              1.0000000
F    1   1.00
      0.8000000              1.0000000
****
N     0
S    6   1.00
   4173.5110000              0.0018348
    627.4579000              0.0139950
    142.9021000              0.0685870
     40.2343300              0.2322410
     12.8202100              0.4690700
      4.3904370              0.3604550
SP   3   1.00
     11.6263580             -0.1149610              0.0675800
      2.7162800             -0.1691180              0.3239070
      0.7722180              1.1458520              0.7408950
SP   1   1.00
      0.2120313              1.0000000              1.0000000
D    1   1.00
      1.8260000              1.0000000
D    1   1.00
      0.4565000              1.0000000
F    1   1.00
      1.0000000              1.0000000
****
O     0
S    6   1.00
   5484.6717000              0.0018311
    825.2349500              0.0139501
    188.0469600              0.0684451
     52.9645000              0.2327143
     16.8975700              0.4701930
      5.7996353              0.3585209
SP   3   1.00
     15.5396160             -0.1107775              0.0708743
      3.5999336             -0.1480263              0.3397528
      1.0137618              1.1307670              0.7271586
SP   1   1.00
      0.2700058              1.0000000              1.0000000
D    1   1.00
      2.5840000              1.0000000
D    1   1.00
      0.6460000              1.0000000
F    1   1.00
      1.4000000              1.0000000
****
F     0
S    6   1.00
   7001.7130900              0.0018196169
   1051.3660900              0.0139160796
    239.2856900              0.0684053245
     67.3974453              0.233185760
     21.5199573              0.471267439
      7.40310130             0.356618546
SP   3   1.00
     20.8479528             -0.108506975            0.0716287243
      4.80830834            -0.146451658            0.3459121030
      1.34406986             1.128688580            0.7224699570
SP   1   1.00
      0.358151393            1.0000000              1.0000000
D    1   1.00
      3.5000000              1.0000000
D    1   1.00
      0.8750000              1.0000000
F    1   1.00
      1.8500000              1.0000000
****
Al     0
S    6   1.00
  13983.1000000              0.00194267
   2098.7500000              0.0148599
    477.7050000              0.0728494
    134.3600000              0.2468300
     42.8709000              0.4872580
     14.5189000              0.3234960
SP   6   1.00
    239.6680000             -0.00292619             0.00460285
     57.4419000             -0.0374080              0.0331990
     18.2859000             -0.1144870              0.1362820
      6.5991400              0.1156350              0.3304760
      2.4904900              0.6125950              0.4491460
      0.9445400              0.3937990              0.2657040
SP   3   1.00
      1.2779000             -0.2276060             -0.0175130
      0.3975900              0.00144583             0.2445330
      0.1600950              1.0927900              0.8049340
SP   1   1.00
      0.0556577              1.0000000              1.0000000
D    1   1.00
      0.6500000              1.0000000
D    1   1.00
      0.1625000              1.0000000
F    1   1.00
      0.2500000              1.0000000
****
Si     0
S    6   1.00
  16115.9000000              0.00195948
   2425.5800000              0.01492880
    553.8670000              0.07284780
    156.3400000              0.24613000
     50.0683000              0.48591400
     17.0178000              0.32500200
SP   6   1.00
    292.7180000             -0.00278094             0.00443826
     69.8731000             -0.03571460             0.03266790
     22.3363000             -0.11498500             0.13472100
      8.1503900              0.09356340             0.32867800
      3.1345800              0.60301700             0.44964000
      1.2254300              0.41895900             0.26137200
SP   3   1.00
      1.7273800             -0.24463000            -0.01779510
      0.5729220              0.00431572             0.25353900
      0.2221920              1.09818000             0.80066900
SP   1   1.00
      0.0778369              1.00000000             1.00000000
D    1   1.00
      0.9000000              1.0000000
D    1   1.00
      0.2250000              1.0000000
F    1   1.00
      0.3200000              1.0000000
****
P     0
S    6   1.00
  19413.3000000              0.0018516
   2909.4200000              0.0142062
    661.3640000              0.0699995
    185.7590000              0.2400790
     59.1943000              0.4847620
     20.0310000              0.3352000
SP   6   1.00
    339.4780000             -0.00278217             0.00456462
     81.0101000             -0.0360499              0.03369360
     25.8780000             -0.1166310              0.13975500
      9.4522100              0.0968328              0.33936200
      3.6656600              0.6144180              0.45092100
      1.4674600              0.4037980              0.23858600
SP   3   1.00
      2.1562300             -0.2529230             -0.01776530
      0.7489970              0.0328517              0.27405800
      0.2831450              1.0812500              0.78542100
SP   1   1.00
      0.0998317              1.0000000              1.00000000
D    1   1.00
      1.1000000              1.0000000
D    1   1.00
      0.2750000              1.0000000
F    1   1.00
      0.4500000              1.0000000
****
S     0
S    6   1.00
  21917.1000000              0.0018690
   3301.4900000              0.0142300
    754.1460000              0.0696960
    212.7110000              0.2384870
     67.9896000              0.4833070
     23.0515000              0.3380740
SP   6   1.00
    423.7350000             -0.0023767              0.0040610
    100.7100000             -0.0316930              0.0306810
     32.1599000             -0.1133170              0.1304520
     11.8079000              0.0560900              0.3272050
      4.6311000              0.5922550              0.4528510
      1.8702500              0.4550060              0.2560420
SP   3   1.00
      2.6158400             -0.2503740             -0.0145110
      0.9221670              0.0669570              0.3102630
      0.3412870              1.0545100              0.7544830
SP   1   1.00
      0.1171670              1.0000000              1.0000000
D    1   1.00
      1.3000000              1.0000000
D    1   1.00
      0.3250000              1.0000000
F    1   1.00
      0.5500000              1.0000000
****
Cl     0
S    6   1.00
  25180.1000000              0.0018330
   3780.3500000              0.0140340
    860.4740000              0.0690970
    242.1450000              0.2374520
     77.3349000              0.4830340
     26.2470000              0.3398560
SP   6   1.00
    491.7650000             -0.0022974              0.0039894
    116.9840000             -0.0307140              0.0303180
     37.4153000             -0.1125280              0.1298800
     13.7834000              0.0450160              0.3279510
      5.4521500              0.5893530              0.4535270
      2.2258800              0.4652060              0.2521540
SP   3   1.00
      3.1864900             -0.2518300             -0.0142990
      1.1442700              0.0615890              0.3235720
      0.4203770              1.0601800              0.7435070
SP   1   1.00
      0.1426570              1.0000000              1.0000000
D    1   1.00
      1.5000000              1.0000000
D    1   1.00
      0.3750000              1.0000000
F    1   1.00
      0.7000000              1.0000000
****
}

set {
reference uhf
freeze_core true
e_convergence 10
d_convergence 10
dft_spherical_points 1202
dft_radial_points 99
}

e = energy('b3lyp')

print_out('Grab this energy {0}'.format(e))
--------------------------------------------------------------------------

    Molecular point group: cs

    Geometry (in Bohr), charge = 0, multiplicity = 2:

       Center              X                  Y                   Z               Mass
    ------------   -----------------  -----------------  -----------------  -----------------
         C           -0.323334415995    -0.003535522116     0.000000000000    12.000000000000
         C            0.060993106405    -1.397293621616    -2.431846270400    12.000000000000
         C            0.061312510305     2.795851812884     0.000000000000    12.000000000000
         C            0.060993106405    -1.397293621616     2.431846270400    12.000000000000
         H            2.086090664705    -1.638745016316    -2.854714592600     1.007825032230
         H           -0.770936961995    -0.376010332116    -4.029195794700     1.007825032230
         H           -0.760763896895    -3.286518998816    -2.362191853700     1.007825032230
         H            2.088485406805     3.280838234084     0.000000000000     1.007825032230
         H           -0.764942006995     3.674375151184     1.675388436600     1.007825032230
         H           -0.764942006995     3.674375151184    -1.675388436600     1.007825032230
         H            2.086090664705    -1.638745016316     2.854714592600     1.007825032230
         H           -0.760763896895    -3.286518998816     2.362191853700     1.007825032230
         H           -0.770936961995    -0.376010332116     4.029195794700     1.007825032230

  Charge       = 0
  Multiplicity = 2
  Basis Set: ANONYMOUSDBC808F7
    Blend: 6-31G_2DFP_
  Basis Set: (ANONYMOUSDBC808F7 AUX)
    Blend: DEF2-UNIVERSAL-JKFIT

    Orbital Energies [Eh]
    ---------------------

    Alpha Occupied:

       1Ap   -10.180342     1App  -10.167189     2Ap   -10.167160
       3Ap   -10.166695     4Ap    -0.797768     2App   -0.686348
       5Ap    -0.686027     6Ap    -0.530778     7Ap    -0.441125
       3App   -0.435124     8Ap    -0.434219     4App   -0.382766
       9Ap    -0.382431     5App   -0.363604     6App   -0.338110
      10Ap    -0.337890    11Ap    -0.168961

    Alpha Virtual:

      12Ap     0.076067     7App    0.133798    13Ap     0.134506
      14Ap     0.142559     8App    0.142697    15Ap     0.154885
       9App    0.178651    16Ap     0.178912    17Ap     0.203543
      10App    0.214807    11App    0.275925    18Ap     0.276046
      12App    0.398847    19Ap     0.399562    20Ap     0.403400
      13App    0.423802    21Ap     0.424398    22Ap     0.456593
      14App    0.494939    23Ap     0.495835    15App    0.512174
      24Ap     0.513985    16App    0.578627    25Ap     0.578993
      26Ap     0.591502    17App    0.591757    27Ap     0.602570
      28Ap     0.624697    18App    0.631774    29Ap     0.635832
      19App    0.636746    20App    0.663404    30Ap     0.663421
      21App    0.683426    31Ap     0.684295    32Ap     0.734993
      22App    0.824827    33Ap     0.825973    23App    0.853917
      24App    0.914581    34Ap     0.915475    25App    0.944033
      35Ap     0.944457    36Ap     0.961293    26App    0.961586
      37Ap     1.003468    27App    1.126684    38Ap     1.129553
      39Ap     1.142213    28App    1.162725    40Ap     1.163798
      41Ap     1.223330    29App    1.274224    42Ap     1.274787
      43Ap     1.279336    44Ap     1.324050    30App    1.324632
      45Ap     1.355988    31App    1.365604    46Ap     1.366499
      32App    1.392365    33App    1.403360    47Ap     1.404821
      34App    1.415960    48Ap     1.418334    35App    1.427915
      36App    1.491448    49Ap     1.499066    37App    1.542464
      50Ap     1.543182    38App    1.572865    51Ap     1.576123
      52Ap     1.669840    39App    1.739064    53Ap     1.739667
      54Ap     1.768402    40App    1.830094    55Ap     1.832688
      41App    1.971764    56Ap     2.017909    42App    2.018201
      57Ap     2.020193    43App    2.050681    58Ap     2.054751
      44App    2.738401    59Ap     2.738574    60Ap     2.790918
      45App    2.811439    61Ap     2.889695    46App    2.890202
      62Ap     2.894951    47App    2.929348    63Ap     2.929650
      48App    2.958892    49App    2.963659    64Ap     2.965212
      65Ap     3.034006    50App    3.069567    66Ap     3.072852
      51App    3.084557    52App    3.168471    67Ap     3.169148
      68Ap     3.180546    69Ap     3.284776    53App    3.285849
      54App    3.326603    70Ap     3.327742    71Ap     3.375651
      55App    3.489332    72Ap     3.490905    56App    3.514028
      73Ap     3.525314    57App    3.566660    74Ap     3.570019
      58App    3.575301    75Ap     3.666018    59App    3.666799
      76Ap     3.679620    77Ap     3.693922    60App    3.694341
      78Ap     3.775819    61App    3.777773    79Ap     3.789210
      62App    3.910220    80Ap     3.914222    81Ap     4.034460
      63App    4.110483    82Ap     4.112198    64App    4.146206
      83Ap     4.149972    84Ap     4.173297    65App    4.200594
      85Ap     4.202683    86Ap     4.205595    66App    4.210886
      67App    4.315307    87Ap     4.316606    68App    4.359025
      88Ap     4.424037    69App    4.424834    70App    4.443522
      89Ap     4.516601    71App    4.517075    72App    4.577200
      90Ap     4.579324    91Ap     4.617531    92Ap     4.709378
      73App    4.774244    93Ap     4.775035    74App    4.836958
      94Ap     4.962849    75App    5.002342    95Ap     5.003586
      96Ap     5.227698    76App    5.246850    97Ap     5.247087
      98Ap     5.354978    77App    5.356032    78App    5.479412

    Beta Occupied:

       1App  -10.167941     1Ap   -10.167923     2Ap   -10.167459
       3Ap   -10.166518     4Ap    -0.781093     2App   -0.684153
       5Ap    -0.683827     6Ap    -0.511750     3App   -0.431504
       7Ap    -0.430581     8Ap    -0.421822     4App   -0.376857
       9Ap    -0.376511     5App   -0.362588     6App   -0.333241
      10Ap    -0.333004

    Beta Virtual:

      11Ap    -0.025743    12Ap     0.077076     7App    0.134653
      13Ap     0.135433    14Ap     0.144398     8App    0.144600
      15Ap     0.163342     9App    0.182312    16Ap     0.182592
      10App    0.215036    17Ap     0.218926    11App    0.282260
      18Ap     0.282407    12App    0.400035    19Ap     0.400759
      20Ap     0.419799    13App    0.426597    21Ap     0.427225
      22Ap     0.468501    14App    0.497190    23Ap     0.498108
      15App    0.513909    24Ap     0.556327    16App    0.584203
      25Ap     0.584515    26Ap     0.597665    17App    0.597947
      27Ap     0.609991    28Ap     0.628099    18App    0.631930
      29Ap     0.639110    19App    0.640029    20App    0.666927
      30Ap     0.667024    21App    0.686031    31Ap     0.686959
      32Ap     0.757516    22App    0.829973    33Ap     0.831163
      23App    0.855270    24App    0.922561    34Ap     0.923435
      25App    0.945892    35Ap     0.953358    36Ap     0.966601
      26App    0.966900    37Ap     1.008707    27App    1.130724
      38Ap     1.133571    39Ap     1.155591    28App    1.167769
      40Ap     1.168902    41Ap     1.232298    29App    1.279834
      42Ap     1.280374    43Ap     1.285089    44Ap     1.329023
      30App    1.329635    45Ap     1.365403    31App    1.370678
      46Ap     1.371907    32App    1.393430    33App    1.406880
      47Ap     1.408242    34App    1.421049    48Ap     1.423334
      35App    1.428189    36App    1.492497    49Ap     1.509509
      37App    1.546745    50Ap     1.547719    38App    1.580878
      51Ap     1.583850    52Ap     1.674686    39App    1.744844
      53Ap     1.745423    54Ap     1.779171    40App    1.833927
      55Ap     1.836566    41App    1.972627    42App    2.024515
      56Ap     2.026314    57Ap     2.039614    43App    2.057495
      58Ap     2.061402    44App    2.746702    59Ap     2.746945
      45App    2.811852    60Ap     2.816054    61Ap     2.902383
      46App    2.902896    62Ap     2.924652    47App    2.931873
      63Ap     2.932087    48App    2.960000    49App    2.968196
      64Ap     2.969719    65Ap     3.041941    50App    3.079053
      66Ap     3.082871    51App    3.086708    52App    3.184290
      67Ap     3.184820    68Ap     3.188215    69Ap     3.289657
      53App    3.290569    54App    3.330434    70Ap     3.331523
      71Ap     3.383466    55App    3.492075    72Ap     3.493617
      56App    3.512402    73Ap     3.528367    57App    3.574669
      58App    3.580419    74Ap     3.583437    75Ap     3.670917
      59App    3.671391    76Ap     3.692918    77Ap     3.725403
      60App    3.726109    78Ap     3.780331    61App    3.782347
      79Ap     3.817720    62App    3.919971    80Ap     3.924102
      81Ap     4.045349    63App    4.117522    82Ap     4.118799
      64App    4.153226    83Ap     4.157374    84Ap     4.187336
      65App    4.206537    85Ap     4.210631    86Ap     4.211555
      66App    4.215363    67App    4.322808    87Ap     4.323986
      68App    4.362387    88Ap     4.432248    69App    4.433035
      70App    4.446425    89Ap     4.524283    71App    4.524967
      72App    4.587754    90Ap     4.589973    91Ap     4.624723
      92Ap     4.719722    73App    4.781130    93Ap     4.782055
      74App    4.839879    94Ap     4.967641    75App    5.006379
      95Ap     5.007628    96Ap     5.233337    76App    5.248653
      97Ap     5.248933    98Ap     5.361485    77App    5.362480
      78App    5.481734

    Final Occupation by Irrep:
             Ap   App
    DOCC [    10,    6 ]
    SOCC [     1,    0 ]

  @DF-UKS Final Energy:  -157.81305132218014

   => Energetics <=

    Nuclear Repulsion Energy =            125.3948555371849238
    One-Electron Energy =                -458.7493337156207645
    Two-Electron Energy =                 195.8485768628618189
    DFT Exchange-Correlation Energy =     -20.3071500066061290
    Empirical Dispersion Energy =           0.0000000000000000
    VV10 Nonlocal Energy =                  0.0000000000000000
    Total Energy =                       -157.8130513221801436

  UHF NO Occupations:
  HONO-2 :    9 Ap 1.9996009
  HONO-1 :   10 Ap 1.9989804
  HONO-0 :   11 Ap 1.0000000
  LUNO+0 :   12 Ap 0.0010196
  LUNO+1 :   13 Ap 0.0003991
  LUNO+2 :   14 Ap 0.0001979
  LUNO+3 :    7App 0.0001972

Computation Completed

Properties will be evaluated at   0.000000,   0.000000,   0.000000 [a0]

Properties computed using the SCF density matrix

  Nuclear Dipole Moment: [e a0]
     X:     0.8272      Y:     0.0134      Z:     0.0000

  Electronic Dipole Moment: [e a0]
     X:    -0.7492      Y:    -0.0159      Z:     0.0000

  Dipole Moment: [e a0]
     X:     0.0779      Y:    -0.0025      Z:     0.0000     Total:     0.0780

  Dipole Moment: [D]
     X:     0.1981      Y:    -0.0063      Z:     0.0000     Total:     0.1982

*** tstop() called on n089 at Fri Nov  5 14:30:26 2021
Module time:
	user time   =     509.16 seconds =       8.49 minutes
	system time =       4.65 seconds =       0.08 minutes
	total time  =        129 seconds =       2.15 minutes
Total time:
	user time   =     509.16 seconds =       8.49 minutes
	system time =       4.65 seconds =       0.08 minutes
	total time  =        129 seconds =       2.15 minutes
Grab this energy -157.81305132218014
    Psi4 stopped on: Friday, 05 November 2021 02:30PM
    Psi4 wall time for execution: 0:02:09.30

*** Psi4 exiting successfully. Buy a developer a beer!
