                               Psi4 1.4a2.dev629

  ==> Input File <==

--------------------------------------------------------------------------
import os
memory 14 GB

molecule {
 C   -0.3233395242    0.0002225247   -0.0010206098
 C    0.0618720002   -1.4016919871   -2.4268252007
 C    0.0608517787    2.7994886323    0.0018001663
 C    0.0605753719   -1.4004713615    2.4283188434
 H    2.0869075454   -1.6438058272   -2.8473123365
 H   -0.7656338346   -0.3880237074   -4.0252514352
 H   -0.7658386965   -3.2918288303   -2.3488230740
 H    2.0867126162    3.2887867479   -0.0006987062
 H   -0.7656624777    3.6810003882    1.6760618302
 H   -0.7653670024    3.6808302784   -1.6766273242
 H    2.0870474224   -1.6443269928    2.8468170628
 H   -0.7653211146   -3.2920998695    2.3484045118
 H   -0.7654119614   -0.3881043092    4.0251562722
units bohr
0 2
}

basis {

assign 6-31g_2dfp_

[ 6-31g_2dfp_ ]

spherical

!----------------------------------------------------------------------
! Basis Set Exchange
! Version v0.8.13
! https://www.basissetexchange.org
!----------------------------------------------------------------------
!   Basis set: 6-31G(2df,p)
! Description: 6-31G(2df,p)
!        Role: orbital
!     Version: 0  (Data from the original Basis Set Exchange)
!----------------------------------------------------------------------

****
H     0
S    3   1.00
     18.7311370              0.03349460
      2.8253937              0.23472695
      0.6401217              0.81375733
S    1   1.00
      0.1612778              1.00000000
P    1   1.00
      1.5000000              1.0000000
P    1   1.00
      0.3750000              1.0000000
****
B     0
S    6   1.00
   2068.8823000              0.0018663
    310.6495700              0.0142515
     70.6830330              0.0695516
     19.8610800              0.2325729
      6.2993048              0.4670787
      2.1270270              0.3634314
SP   3   1.00
      4.7279710             -0.1303938              0.0745976
      1.1903377             -0.1307889              0.3078467
      0.3594117              1.1309444              0.7434568
SP   1   1.00
      0.1267512              1.0000000              1.0000000
D    1   1.00
      0.8020000              1.0000000
D    1   1.00
      0.2005000              1.0000000
F    1   1.00
      0.5000000              1.0000000
****
C     0
S    6   1.00
   3047.5249000              0.0018347
    457.3695100              0.0140373
    103.9486900              0.0688426
     29.2101550              0.2321844
      9.2866630              0.4679413
      3.1639270              0.3623120
SP   3   1.00
      7.8682724             -0.1193324              0.0689991
      1.8812885             -0.1608542              0.3164240
      0.5442493              1.1434564              0.7443083
SP   1   1.00
      0.1687144              1.0000000              1.0000000
D    1   1.00
      1.2520000              1.0000000
D    1   1.00
      0.3130000              1.0000000
F    1   1.00
      0.8000000              1.0000000
****
N     0
S    6   1.00
   4173.5110000              0.0018348
    627.4579000              0.0139950
    142.9021000              0.0685870
     40.2343300              0.2322410
     12.8202100              0.4690700
      4.3904370              0.3604550
SP   3   1.00
     11.6263580             -0.1149610              0.0675800
      2.7162800             -0.1691180              0.3239070
      0.7722180              1.1458520              0.7408950
SP   1   1.00
      0.2120313              1.0000000              1.0000000
D    1   1.00
      1.8260000              1.0000000
D    1   1.00
      0.4565000              1.0000000
F    1   1.00
      1.0000000              1.0000000
****
O     0
S    6   1.00
   5484.6717000              0.0018311
    825.2349500              0.0139501
    188.0469600              0.0684451
     52.9645000              0.2327143
     16.8975700              0.4701930
      5.7996353              0.3585209
SP   3   1.00
     15.5396160             -0.1107775              0.0708743
      3.5999336             -0.1480263              0.3397528
      1.0137618              1.1307670              0.7271586
SP   1   1.00
      0.2700058              1.0000000              1.0000000
D    1   1.00
      2.5840000              1.0000000
D    1   1.00
      0.6460000              1.0000000
F    1   1.00
      1.4000000              1.0000000
****
F     0
S    6   1.00
   7001.7130900              0.0018196169
   1051.3660900              0.0139160796
    239.2856900              0.0684053245
     67.3974453              0.233185760
     21.5199573              0.471267439
      7.40310130             0.356618546
SP   3   1.00
     20.8479528             -0.108506975            0.0716287243
      4.80830834            -0.146451658            0.3459121030
      1.34406986             1.128688580            0.7224699570
SP   1   1.00
      0.358151393            1.0000000              1.0000000
D    1   1.00
      3.5000000              1.0000000
D    1   1.00
      0.8750000              1.0000000
F    1   1.00
      1.8500000              1.0000000
****
Al     0
S    6   1.00
  13983.1000000              0.00194267
   2098.7500000              0.0148599
    477.7050000              0.0728494
    134.3600000              0.2468300
     42.8709000              0.4872580
     14.5189000              0.3234960
SP   6   1.00
    239.6680000             -0.00292619             0.00460285
     57.4419000             -0.0374080              0.0331990
     18.2859000             -0.1144870              0.1362820
      6.5991400              0.1156350              0.3304760
      2.4904900              0.6125950              0.4491460
      0.9445400              0.3937990              0.2657040
SP   3   1.00
      1.2779000             -0.2276060             -0.0175130
      0.3975900              0.00144583             0.2445330
      0.1600950              1.0927900              0.8049340
SP   1   1.00
      0.0556577              1.0000000              1.0000000
D    1   1.00
      0.6500000              1.0000000
D    1   1.00
      0.1625000              1.0000000
F    1   1.00
      0.2500000              1.0000000
****
Si     0
S    6   1.00
  16115.9000000              0.00195948
   2425.5800000              0.01492880
    553.8670000              0.07284780
    156.3400000              0.24613000
     50.0683000              0.48591400
     17.0178000              0.32500200
SP   6   1.00
    292.7180000             -0.00278094             0.00443826
     69.8731000             -0.03571460             0.03266790
     22.3363000             -0.11498500             0.13472100
      8.1503900              0.09356340             0.32867800
      3.1345800              0.60301700             0.44964000
      1.2254300              0.41895900             0.26137200
SP   3   1.00
      1.7273800             -0.24463000            -0.01779510
      0.5729220              0.00431572             0.25353900
      0.2221920              1.09818000             0.80066900
SP   1   1.00
      0.0778369              1.00000000             1.00000000
D    1   1.00
      0.9000000              1.0000000
D    1   1.00
      0.2250000              1.0000000
F    1   1.00
      0.3200000              1.0000000
****
P     0
S    6   1.00
  19413.3000000              0.0018516
   2909.4200000              0.0142062
    661.3640000              0.0699995
    185.7590000              0.2400790
     59.1943000              0.4847620
     20.0310000              0.3352000
SP   6   1.00
    339.4780000             -0.00278217             0.00456462
     81.0101000             -0.0360499              0.03369360
     25.8780000             -0.1166310              0.13975500
      9.4522100              0.0968328              0.33936200
      3.6656600              0.6144180              0.45092100
      1.4674600              0.4037980              0.23858600
SP   3   1.00
      2.1562300             -0.2529230             -0.01776530
      0.7489970              0.0328517              0.27405800
      0.2831450              1.0812500              0.78542100
SP   1   1.00
      0.0998317              1.0000000              1.00000000
D    1   1.00
      1.1000000              1.0000000
D    1   1.00
      0.2750000              1.0000000
F    1   1.00
      0.4500000              1.0000000
****
S     0
S    6   1.00
  21917.1000000              0.0018690
   3301.4900000              0.0142300
    754.1460000              0.0696960
    212.7110000              0.2384870
     67.9896000              0.4833070
     23.0515000              0.3380740
SP   6   1.00
    423.7350000             -0.0023767              0.0040610
    100.7100000             -0.0316930              0.0306810
     32.1599000             -0.1133170              0.1304520
     11.8079000              0.0560900              0.3272050
      4.6311000              0.5922550              0.4528510
      1.8702500              0.4550060              0.2560420
SP   3   1.00
      2.6158400             -0.2503740             -0.0145110
      0.9221670              0.0669570              0.3102630
      0.3412870              1.0545100              0.7544830
SP   1   1.00
      0.1171670              1.0000000              1.0000000
D    1   1.00
      1.3000000              1.0000000
D    1   1.00
      0.3250000              1.0000000
F    1   1.00
      0.5500000              1.0000000
****
Cl     0
S    6   1.00
  25180.1000000              0.0018330
   3780.3500000              0.0140340
    860.4740000              0.0690970
    242.1450000              0.2374520
     77.3349000              0.4830340
     26.2470000              0.3398560
SP   6   1.00
    491.7650000             -0.0022974              0.0039894
    116.9840000             -0.0307140              0.0303180
     37.4153000             -0.1125280              0.1298800
     13.7834000              0.0450160              0.3279510
      5.4521500              0.5893530              0.4535270
      2.2258800              0.4652060              0.2521540
SP   3   1.00
      3.1864900             -0.2518300             -0.0142990
      1.1442700              0.0615890              0.3235720
      0.4203770              1.0601800              0.7435070
SP   1   1.00
      0.1426570              1.0000000              1.0000000
D    1   1.00
      1.5000000              1.0000000
D    1   1.00
      0.3750000              1.0000000
F    1   1.00
      0.7000000              1.0000000
****
}

set {
reference uhf
freeze_core true
e_convergence 10
d_convergence 10
dft_spherical_points 1202
dft_radial_points 99
}

e = energy('b3lyp')

print_out('Grab this energy {0}'.format(e))
--------------------------------------------------------------------------

    Molecular point group: c1

    Geometry (in Bohr), charge = 0, multiplicity = 2:

       Center              X                  Y                   Z               Mass
    ------------   -----------------  -----------------  -----------------  -----------------
         C           -0.323339449363     0.000695263824    -0.001458444341    12.000000000000
         C            0.061872075037    -1.401219247976    -2.427263035241    12.000000000000
         C            0.060851853537     2.799961371424     0.001362331759    12.000000000000
         C            0.060575446737    -1.399998622376     2.427881008859    12.000000000000
         H            2.086907620237    -1.643333088076    -2.847750171041     1.007825032230
         H           -0.765633759763    -0.387550968276    -4.025689269741     1.007825032230
         H           -0.765838621663    -3.291356091176    -2.349260908541     1.007825032230
         H            2.086712691037     3.289259487024    -0.001136540741     1.007825032230
         H           -0.765662402863     3.681473127324     1.675623995659     1.007825032230
         H           -0.765366927563     3.681303017524    -1.677065158741     1.007825032230
         H            2.087047497237    -1.643854253676     2.846379228259     1.007825032230
         H           -0.765321039763    -3.291627130376     2.347966677259     1.007825032230
         H           -0.765411886563    -0.387631570076     4.024718437659     1.007825032230

  Charge       = 0
  Multiplicity = 2
  Basis Set: ANONYMOUSD528F17C
    Blend: 6-31G_2DFP_
  Basis Set: (ANONYMOUSD528F17C AUX)
    Blend: DEF2-UNIVERSAL-JKFIT

    Orbital Energies [Eh]
    ---------------------

    Alpha Occupied:

       1A    -10.180342     2A    -10.167064     3A    -10.167022
       4A    -10.166960     5A     -0.797766     6A     -0.686269
       7A     -0.686104     8A     -0.530776     9A     -0.441125
      10A     -0.434753    11A     -0.434588    12A     -0.382695
      13A     -0.382503    14A     -0.363610    15A     -0.338359
      16A     -0.337638    17A     -0.168961

    Alpha Virtual:

      18A      0.076072    19A      0.134113    20A      0.134197
      21A      0.142539    22A      0.142719    23A      0.154880
      24A      0.178681    25A      0.178875    26A      0.203545
      27A      0.214803    28A      0.275727    29A      0.276245
      30A      0.399119    31A      0.399337    32A      0.403345
      33A      0.424054    34A      0.424142    35A      0.456593
      36A      0.495348    37A      0.495430    38A      0.512160
      39A      0.513980    40A      0.578762    41A      0.578868
      42A      0.591573    43A      0.591696    44A      0.602573
      45A      0.624759    46A      0.631766    47A      0.636085
      48A      0.636421    49A      0.663303    50A      0.663520
      51A      0.683829    52A      0.683878    53A      0.734994
      54A      0.825354    55A      0.825461    56A      0.853916
      57A      0.914919    58A      0.915133    59A      0.944126
      60A      0.944612    61A      0.961225    62A      0.961359
      63A      1.003452    64A      1.128041    65A      1.128175
      66A      1.142217    67A      1.162992    68A      1.163551
      69A      1.223325    70A      1.274133    71A      1.274830
      72A      1.279374    73A      1.324272    74A      1.324445
      75A      1.355991    76A      1.365773    77A      1.366341
      78A      1.392429    79A      1.403763    80A      1.404345
      81A      1.416800    82A      1.417421    83A      1.427929
      84A      1.491491    85A      1.499080    86A      1.542644
      87A      1.543013    88A      1.574076    89A      1.574819
      90A      1.669811    91A      1.739241    92A      1.739590
      93A      1.768334    94A      1.830891    95A      1.831911
      96A      1.971725    97A      2.018057    98A      2.018537
      99A      2.019798   100A      2.051732   101A      2.053557
     102A      2.738356   103A      2.738615   104A      2.790923
     105A      2.811427   106A      2.889275   107A      2.890626
     108A      2.894946   109A      2.929319   110A      2.929674
     111A      2.958992   112A      2.964076   113A      2.964682
     114A      3.034009   115A      3.071102   116A      3.071466
     117A      3.084352   118A      3.168552   119A      3.168970
     120A      3.180626   121A      3.285095   122A      3.285532
     123A      3.326967   124A      3.327349   125A      3.375617
     126A      3.489811   127A      3.490494   128A      3.514016
     129A      3.525330   130A      3.568257   131A      3.568525
     132A      3.575147   133A      3.665635   134A      3.667081
     135A      3.679700   136A      3.694021   137A      3.694237
     138A      3.776632   139A      3.776972   140A      3.789119
     141A      3.911397   142A      3.913049   143A      4.034458
     144A      4.111101   145A      4.111645   146A      4.147774
     147A      4.148471   148A      4.173253   149A      4.202378
     150A      4.202766   151A      4.203661   152A      4.210859
     153A      4.314877   154A      4.317020   155A      4.358974
     156A      4.423254   157A      4.425537   158A      4.443551
     159A      4.516166   160A      4.517514   161A      4.577980
     162A      4.578562   163A      4.617534   164A      4.709459
     165A      4.774232   166A      4.774920   167A      4.836929
     168A      4.962826   169A      5.002227   170A      5.003712
     171A      5.228031   172A      5.246508   173A      5.247129
     174A      5.355441   175A      5.355566   176A      5.479350

    Beta Occupied:

       1A    -10.167822     2A    -10.167779     3A    -10.167723
       4A    -10.166519     5A     -0.781091     6A     -0.684071
       7A     -0.683907     8A     -0.511748     9A     -0.431127
      10A     -0.430958    11A     -0.421821    12A     -0.376802
      13A     -0.376568    14A     -0.362594    15A     -0.333482
      16A     -0.332761

    Beta Virtual:

      17A     -0.025743    18A      0.077081    19A      0.134995
      20A      0.135095    21A      0.144434    22A      0.144564
      23A      0.163339    24A      0.182369    25A      0.182530
      26A      0.215032    27A      0.218928    28A      0.282089
      29A      0.282579    30A      0.400289    31A      0.400506
      32A      0.419789    33A      0.426865    34A      0.426954
      35A      0.468501    36A      0.497607    37A      0.497693
      38A      0.513895    39A      0.556325    40A      0.584309
      41A      0.584422    42A      0.597749    43A      0.597880
      44A      0.609997    45A      0.628135    46A      0.631926
      47A      0.639373    48A      0.639700    49A      0.666861
      50A      0.667090    51A      0.686472    52A      0.686504
      53A      0.757517    54A      0.830518    55A      0.830635
      56A      0.855269    57A      0.922890    58A      0.923105
      59A      0.945963    60A      0.953541    61A      0.966541
      62A      0.966655    63A      1.008692    64A      1.132076
      65A      1.132201    66A      1.155581    67A      1.168054
      68A      1.168646    69A      1.232297    70A      1.279710
      71A      1.280445    72A      1.285129    73A      1.329264
      74A      1.329432    75A      1.365408    76A      1.371007
      77A      1.371592    78A      1.393490    79A      1.407243
      80A      1.407793    81A      1.421870    82A      1.422444
      83A      1.428205    84A      1.492539    85A      1.509524
      86A      1.547037    87A      1.547434    88A      1.581951
      89A      1.582688    90A      1.674659    91A      1.745001
      92A      1.745355    93A      1.779112    94A      1.834756
      95A      1.835756    96A      1.972585    97A      2.024769
      98A      2.026131    99A      2.039665   100A      2.058431
     101A      2.060294   102A      2.746715   103A      2.746927
     104A      2.811839   105A      2.816059   106A      2.901981
     107A      2.903302   108A      2.924642   109A      2.931771
     110A      2.932191   111A      2.960056   112A      2.968627
     113A      2.969217   114A      3.041944   115A      3.081009
     116A      3.081377   117A      3.086172   118A      3.184269
     119A      3.184671   120A      3.188390   121A      3.289924
     122A      3.290301   123A      3.330775   124A      3.331150
     125A      3.383436   126A      3.492516   127A      3.493248
     128A      3.512383   129A      3.528375   130A      3.574989
     131A      3.581609   132A      3.581869   133A      3.670331
     134A      3.671901   135A      3.692984   136A      3.725543
     137A      3.725970   138A      3.781109   139A      3.781547
     140A      3.817665   141A      3.921250   142A      3.922830
     143A      4.045345   144A      4.117846   145A      4.118528
     146A      4.155084   147A      4.155581   148A      4.187311
     149A      4.208572   150A      4.209300   151A      4.210775
     152A      4.215334   153A      4.322273   154A      4.324504
     155A      4.362337   156A      4.431464   157A      4.433721
     158A      4.446471   159A      4.523965   160A      4.525296
     161A      4.588600   162A      4.589144   163A      4.624727
     164A      4.719804   165A      4.781211   166A      4.781846
     167A      4.839847   168A      4.967622   169A      5.006279
     170A      5.007738   171A      5.233745   172A      5.248303
     173A      5.248903   174A      5.361894   175A      5.362074
     176A      5.481672

    Final Occupation by Irrep:
              A
    DOCC [    16 ]
    SOCC [     1 ]

  @DF-UKS Final Energy:  -157.81306925301436

   => Energetics <=

    Nuclear Repulsion Energy =            125.3946200351270619
    One-Electron Energy =                -458.7489030778300503
    Two-Electron Energy =                 195.8483563510056058
    DFT Exchange-Correlation Energy =     -20.3071425613169652
    Empirical Dispersion Energy =           0.0000000000000000
    VV10 Nonlocal Energy =                  0.0000000000000000
    Total Energy =                       -157.8130692530143619

  UHF NO Occupations:
  HONO-2 :   15  A 1.9996009
  HONO-1 :   16  A 1.9989805
  HONO-0 :   17  A 1.0000000
  LUNO+0 :   18  A 0.0010195
  LUNO+1 :   19  A 0.0003991
  LUNO+2 :   20  A 0.0001981
  LUNO+3 :   21  A 0.0001970

Computation Completed

Properties will be evaluated at   0.000000,   0.000000,   0.000000 [a0]

Properties computed using the SCF density matrix

  Nuclear Dipole Moment: [e a0]
     X:     0.8272      Y:     0.0033      Z:    -0.0031

  Electronic Dipole Moment: [e a0]
     X:    -0.7493      Y:    -0.0034      Z:     0.0030

  Dipole Moment: [e a0]
     X:     0.0779      Y:    -0.0001      Z:    -0.0000     Total:     0.0779

  Dipole Moment: [D]
     X:     0.1980      Y:    -0.0002      Z:    -0.0001     Total:     0.1980

*** tstop() called on n062 at Fri Nov  5 12:00:36 2021
Module time:
	user time   =     541.76 seconds =       9.03 minutes
	system time =      11.92 seconds =       0.20 minutes
	total time  =        139 seconds =       2.32 minutes
Total time:
	user time   =     541.76 seconds =       9.03 minutes
	system time =      11.92 seconds =       0.20 minutes
	total time  =        139 seconds =       2.32 minutes
Grab this energy -157.81306925301436
    Psi4 stopped on: Friday, 05 November 2021 12:00PM
    Psi4 wall time for execution: 0:02:19.35

*** Psi4 exiting successfully. Buy a developer a beer!
