                               Psi4 1.4a2.dev629

  ==> Input File <==

--------------------------------------------------------------------------
import os
memory 14 GB

molecule {
 C   -0.3233375256   -0.0004369173    0.0053445676
 C    0.0614240533   -1.4023462476   -2.4254154719
 C    0.0607102751    2.8018613460    0.0011078168
 C    0.0611681702   -1.4014354169    2.4260539997
 H    2.0862761964   -1.6465477593   -2.8466363303
 H   -0.7676366199   -0.3869318101   -4.0283680315
 H   -0.7630840474   -3.2897082890   -2.3496542420
 H    2.0877085814    3.2880895194   -0.0010001418
 H   -0.7668306751    3.6795369234    1.6748535352
 H   -0.7651602554    3.6812538415   -1.6763157845
 H    2.0866866223   -1.6468923277    2.8452311602
 H   -0.7621545329   -3.2906355564    2.3484488436
 H   -0.7683781191   -0.3858316195    4.0263500790
units bohr
0 2
}

basis {

assign 6-31g_2dfp_

[ 6-31g_2dfp_ ]

spherical

!----------------------------------------------------------------------
! Basis Set Exchange
! Version v0.8.13
! https://www.basissetexchange.org
!----------------------------------------------------------------------
!   Basis set: 6-31G(2df,p)
! Description: 6-31G(2df,p)
!        Role: orbital
!     Version: 0  (Data from the original Basis Set Exchange)
!----------------------------------------------------------------------

****
H     0
S    3   1.00
     18.7311370              0.03349460
      2.8253937              0.23472695
      0.6401217              0.81375733
S    1   1.00
      0.1612778              1.00000000
P    1   1.00
      1.5000000              1.0000000
P    1   1.00
      0.3750000              1.0000000
****
B     0
S    6   1.00
   2068.8823000              0.0018663
    310.6495700              0.0142515
     70.6830330              0.0695516
     19.8610800              0.2325729
      6.2993048              0.4670787
      2.1270270              0.3634314
SP   3   1.00
      4.7279710             -0.1303938              0.0745976
      1.1903377             -0.1307889              0.3078467
      0.3594117              1.1309444              0.7434568
SP   1   1.00
      0.1267512              1.0000000              1.0000000
D    1   1.00
      0.8020000              1.0000000
D    1   1.00
      0.2005000              1.0000000
F    1   1.00
      0.5000000              1.0000000
****
C     0
S    6   1.00
   3047.5249000              0.0018347
    457.3695100              0.0140373
    103.9486900              0.0688426
     29.2101550              0.2321844
      9.2866630              0.4679413
      3.1639270              0.3623120
SP   3   1.00
      7.8682724             -0.1193324              0.0689991
      1.8812885             -0.1608542              0.3164240
      0.5442493              1.1434564              0.7443083
SP   1   1.00
      0.1687144              1.0000000              1.0000000
D    1   1.00
      1.2520000              1.0000000
D    1   1.00
      0.3130000              1.0000000
F    1   1.00
      0.8000000              1.0000000
****
N     0
S    6   1.00
   4173.5110000              0.0018348
    627.4579000              0.0139950
    142.9021000              0.0685870
     40.2343300              0.2322410
     12.8202100              0.4690700
      4.3904370              0.3604550
SP   3   1.00
     11.6263580             -0.1149610              0.0675800
      2.7162800             -0.1691180              0.3239070
      0.7722180              1.1458520              0.7408950
SP   1   1.00
      0.2120313              1.0000000              1.0000000
D    1   1.00
      1.8260000              1.0000000
D    1   1.00
      0.4565000              1.0000000
F    1   1.00
      1.0000000              1.0000000
****
O     0
S    6   1.00
   5484.6717000              0.0018311
    825.2349500              0.0139501
    188.0469600              0.0684451
     52.9645000              0.2327143
     16.8975700              0.4701930
      5.7996353              0.3585209
SP   3   1.00
     15.5396160             -0.1107775              0.0708743
      3.5999336             -0.1480263              0.3397528
      1.0137618              1.1307670              0.7271586
SP   1   1.00
      0.2700058              1.0000000              1.0000000
D    1   1.00
      2.5840000              1.0000000
D    1   1.00
      0.6460000              1.0000000
F    1   1.00
      1.4000000              1.0000000
****
F     0
S    6   1.00
   7001.7130900              0.0018196169
   1051.3660900              0.0139160796
    239.2856900              0.0684053245
     67.3974453              0.233185760
     21.5199573              0.471267439
      7.40310130             0.356618546
SP   3   1.00
     20.8479528             -0.108506975            0.0716287243
      4.80830834            -0.146451658            0.3459121030
      1.34406986             1.128688580            0.7224699570
SP   1   1.00
      0.358151393            1.0000000              1.0000000
D    1   1.00
      3.5000000              1.0000000
D    1   1.00
      0.8750000              1.0000000
F    1   1.00
      1.8500000              1.0000000
****
Al     0
S    6   1.00
  13983.1000000              0.00194267
   2098.7500000              0.0148599
    477.7050000              0.0728494
    134.3600000              0.2468300
     42.8709000              0.4872580
     14.5189000              0.3234960
SP   6   1.00
    239.6680000             -0.00292619             0.00460285
     57.4419000             -0.0374080              0.0331990
     18.2859000             -0.1144870              0.1362820
      6.5991400              0.1156350              0.3304760
      2.4904900              0.6125950              0.4491460
      0.9445400              0.3937990              0.2657040
SP   3   1.00
      1.2779000             -0.2276060             -0.0175130
      0.3975900              0.00144583             0.2445330
      0.1600950              1.0927900              0.8049340
SP   1   1.00
      0.0556577              1.0000000              1.0000000
D    1   1.00
      0.6500000              1.0000000
D    1   1.00
      0.1625000              1.0000000
F    1   1.00
      0.2500000              1.0000000
****
Si     0
S    6   1.00
  16115.9000000              0.00195948
   2425.5800000              0.01492880
    553.8670000              0.07284780
    156.3400000              0.24613000
     50.0683000              0.48591400
     17.0178000              0.32500200
SP   6   1.00
    292.7180000             -0.00278094             0.00443826
     69.8731000             -0.03571460             0.03266790
     22.3363000             -0.11498500             0.13472100
      8.1503900              0.09356340             0.32867800
      3.1345800              0.60301700             0.44964000
      1.2254300              0.41895900             0.26137200
SP   3   1.00
      1.7273800             -0.24463000            -0.01779510
      0.5729220              0.00431572             0.25353900
      0.2221920              1.09818000             0.80066900
SP   1   1.00
      0.0778369              1.00000000             1.00000000
D    1   1.00
      0.9000000              1.0000000
D    1   1.00
      0.2250000              1.0000000
F    1   1.00
      0.3200000              1.0000000
****
P     0
S    6   1.00
  19413.3000000              0.0018516
   2909.4200000              0.0142062
    661.3640000              0.0699995
    185.7590000              0.2400790
     59.1943000              0.4847620
     20.0310000              0.3352000
SP   6   1.00
    339.4780000             -0.00278217             0.00456462
     81.0101000             -0.0360499              0.03369360
     25.8780000             -0.1166310              0.13975500
      9.4522100              0.0968328              0.33936200
      3.6656600              0.6144180              0.45092100
      1.4674600              0.4037980              0.23858600
SP   3   1.00
      2.1562300             -0.2529230             -0.01776530
      0.7489970              0.0328517              0.27405800
      0.2831450              1.0812500              0.78542100
SP   1   1.00
      0.0998317              1.0000000              1.00000000
D    1   1.00
      1.1000000              1.0000000
D    1   1.00
      0.2750000              1.0000000
F    1   1.00
      0.4500000              1.0000000
****
S     0
S    6   1.00
  21917.1000000              0.0018690
   3301.4900000              0.0142300
    754.1460000              0.0696960
    212.7110000              0.2384870
     67.9896000              0.4833070
     23.0515000              0.3380740
SP   6   1.00
    423.7350000             -0.0023767              0.0040610
    100.7100000             -0.0316930              0.0306810
     32.1599000             -0.1133170              0.1304520
     11.8079000              0.0560900              0.3272050
      4.6311000              0.5922550              0.4528510
      1.8702500              0.4550060              0.2560420
SP   3   1.00
      2.6158400             -0.2503740             -0.0145110
      0.9221670              0.0669570              0.3102630
      0.3412870              1.0545100              0.7544830
SP   1   1.00
      0.1171670              1.0000000              1.0000000
D    1   1.00
      1.3000000              1.0000000
D    1   1.00
      0.3250000              1.0000000
F    1   1.00
      0.5500000              1.0000000
****
Cl     0
S    6   1.00
  25180.1000000              0.0018330
   3780.3500000              0.0140340
    860.4740000              0.0690970
    242.1450000              0.2374520
     77.3349000              0.4830340
     26.2470000              0.3398560
SP   6   1.00
    491.7650000             -0.0022974              0.0039894
    116.9840000             -0.0307140              0.0303180
     37.4153000             -0.1125280              0.1298800
     13.7834000              0.0450160              0.3279510
      5.4521500              0.5893530              0.4535270
      2.2258800              0.4652060              0.2521540
SP   3   1.00
      3.1864900             -0.2518300             -0.0142990
      1.1442700              0.0615890              0.3235720
      0.4203770              1.0601800              0.7435070
SP   1   1.00
      0.1426570              1.0000000              1.0000000
D    1   1.00
      1.5000000              1.0000000
D    1   1.00
      0.3750000              1.0000000
F    1   1.00
      0.7000000              1.0000000
****
}

set {
reference uhf
freeze_core true
e_convergence 10
d_convergence 10
dft_spherical_points 1202
dft_radial_points 99
}

e = energy('b3lyp')

print_out('Grab this energy {0}'.format(e))
--------------------------------------------------------------------------

    Molecular point group: c1

    Geometry (in Bohr), charge = 0, multiplicity = 2:

       Center              X                  Y                   Z               Mass
    ------------   -----------------  -----------------  -----------------  -----------------
         C           -0.323338480517     0.000017532653     0.003978806835    12.000000000000
         C            0.061423098383    -1.401891797647    -2.426781232665    12.000000000000
         C            0.060709320183     2.802315795953    -0.000257943965    12.000000000000
         C            0.061167215283    -1.400980966947     2.424688238935    12.000000000000
         H            2.086275241483    -1.646093309347    -2.848002091065     1.007825032230
         H           -0.767637574817    -0.386477360147    -4.029733792265     1.007825032230
         H           -0.763085002317    -3.289253839047    -2.351020002765     1.007825032230
         H            2.087707626483     3.288543969353    -0.002365902565     1.007825032230
         H           -0.766831630017     3.679991373353     1.673487774435     1.007825032230
         H           -0.765161210317     3.681708291453    -1.677681545265     1.007825032230
         H            2.086685667383    -1.646437877747     2.843865399435     1.007825032230
         H           -0.762155487817    -3.290181106447     2.347083082835     1.007825032230
         H           -0.768379074017    -0.385377169547     4.024984318235     1.007825032230

  Charge       = 0
  Multiplicity = 2
  Basis Set: ANONYMOUS2C43EA7F
    Blend: 6-31G_2DFP_
  Basis Set: (ANONYMOUS2C43EA7F AUX)
    Blend: DEF2-UNIVERSAL-JKFIT

    Orbital Energies [Eh]
    ---------------------

    Alpha Occupied:

       1A    -10.180342     2A    -10.167054     3A    -10.167016
       4A    -10.166975     5A     -0.797770     6A     -0.686385
       7A     -0.685990     8A     -0.530778     9A     -0.441133
      10A     -0.434954    11A     -0.434381    12A     -0.382718
      13A     -0.382484    14A     -0.363609    15A     -0.338541
      16A     -0.337453    17A     -0.168960

    Alpha Virtual:

      18A      0.076070    19A      0.134039    20A      0.134267
      21A      0.142356    22A      0.142896    23A      0.154883
      24A      0.178685    25A      0.178871    26A      0.203544
      27A      0.214804    28A      0.275677    29A      0.276293
      30A      0.398955    31A      0.399500    32A      0.403346
      33A      0.423935    34A      0.424259    35A      0.456593
      36A      0.495319    37A      0.495460    38A      0.512161
      39A      0.513978    40A      0.578610    41A      0.579018
      42A      0.591497    43A      0.591784    44A      0.602574
      45A      0.624706    46A      0.631768    47A      0.635966
      48A      0.636595    49A      0.663191    50A      0.663635
      51A      0.683658    52A      0.684063    53A      0.734994
      54A      0.825135    55A      0.825678    56A      0.853915
      57A      0.914772    58A      0.915270    59A      0.944125
      60A      0.944614    61A      0.961095    62A      0.961493
      63A      1.003456    64A      1.127703    65A      1.128481
      66A      1.142263    67A      1.162877    68A      1.163658
      69A      1.223326    70A      1.273963    71A      1.275015
      72A      1.279353    73A      1.324122    74A      1.324579
      75A      1.355991    76A      1.365655    77A      1.366455
      78A      1.392433    79A      1.403978    80A      1.404111
      81A      1.416337    82A      1.417891    83A      1.427916
      84A      1.491495    85A      1.499072    86A      1.542818
      87A      1.542861    88A      1.574237    89A      1.574661
      90A      1.669829    91A      1.738671    92A      1.740165
      93A      1.768319    94A      1.830554    95A      1.832214
      96A      1.971758    97A      2.017465    98A      2.018932
      99A      2.019992   100A      2.051915   101A      2.053399
     102A      2.738187   103A      2.738783   104A      2.790926
     105A      2.811423   106A      2.889371   107A      2.890528
     108A      2.894936   109A      2.929106   110A      2.929890
     111A      2.958957   112A      2.964244   113A      2.964555
     114A      3.034002   115A      3.070493   116A      3.072031
     117A      3.084431   118A      3.168357   119A      3.169149
     120A      3.180661   121A      3.284969   122A      3.285647
     123A      3.326617   124A      3.327699   125A      3.375614
     126A      3.489554   127A      3.490745   128A      3.514027
     129A      3.525335   130A      3.567882   131A      3.568895
     132A      3.575126   133A      3.665806   134A      3.666991
     135A      3.679647   136A      3.693863   137A      3.694391
     138A      3.776020   139A      3.777542   140A      3.789180
     141A      3.911486   142A      3.912964   143A      4.034424
     144A      4.110722   145A      4.111940   146A      4.147059
     147A      4.149101   148A      4.173351   149A      4.201744
     150A      4.203002   151A      4.203977   152A      4.210997
     153A      4.315111   154A      4.316838   155A      4.358981
     156A      4.423898   157A      4.425000   158A      4.443460
     159A      4.515791   160A      4.517890   161A      4.577874
     162A      4.578370   163A      4.617848   164A      4.709443
     165A      4.773493   166A      4.775750   167A      4.836898
     168A      4.962826   169A      5.002523   170A      5.003451
     171A      5.227588   172A      5.246690   173A      5.247352
     174A      5.354156   175A      5.356884   176A      5.479412

    Beta Occupied:

       1A    -10.167806     2A    -10.167771     3A    -10.167746
       4A    -10.166519     5A     -0.781095     6A     -0.684177
       7A     -0.683803     8A     -0.511749     9A     -0.431327
      10A     -0.430762    11A     -0.421817    12A     -0.376762
      13A     -0.376611    14A     -0.362593    15A     -0.333672
      16A     -0.332568

    Beta Virtual:

      17A     -0.025743    18A      0.077079    19A      0.134905
      20A      0.135182    21A      0.144212    22A      0.144782
      23A      0.163340    24A      0.182355    25A      0.182544
      26A      0.215034    27A      0.218927    28A      0.282058
      29A      0.282608    30A      0.400122    31A      0.400674
      32A      0.419791    33A      0.426745    34A      0.427071
      35A      0.468501    36A      0.497574    37A      0.497726
      38A      0.513896    39A      0.556321    40A      0.584140
      41A      0.584591    42A      0.597650    43A      0.597986
      44A      0.609999    45A      0.628083    46A      0.631925
      47A      0.639259    48A      0.639873    49A      0.666770
      50A      0.667184    51A      0.686314    52A      0.686677
      53A      0.757517    54A      0.830315    55A      0.830835
      56A      0.855268    57A      0.922745    58A      0.923239
      59A      0.945962    60A      0.953540    61A      0.966389
      62A      0.966814    63A      1.008696    64A      1.131769
      65A      1.132491    66A      1.155624    67A      1.167957
      68A      1.168724    69A      1.232298    70A      1.279596
      71A      1.280577    72A      1.285106    73A      1.329117
      74A      1.329563    75A      1.365406    76A      1.370978
      77A      1.371621    78A      1.393494    79A      1.407387
      80A      1.407628    81A      1.421435    82A      1.422890
      83A      1.428189    84A      1.492545    85A      1.509515
      86A      1.547200    87A      1.547298    88A      1.582109
      89A      1.582529    90A      1.674677    91A      1.744421
      92A      1.745942    93A      1.779096    94A      1.834399
      95A      1.836079    96A      1.972618    97A      2.024626
      98A      2.026233    99A      2.039688   100A      2.058648
     101A      2.060115   102A      2.746491   103A      2.747151
     104A      2.811836   105A      2.816061   106A      2.902128
     107A      2.903144   108A      2.924644   109A      2.931535
     110A      2.932425   111A      2.960035   112A      2.968776
     113A      2.969097   114A      3.041936   115A      3.080354
     116A      3.081877   117A      3.086360   118A      3.184141
     119A      3.184725   120A      3.188485   121A      3.289798
     122A      3.290417   123A      3.330395   124A      3.331529
     125A      3.383433   126A      3.492281   127A      3.493474
     128A      3.512396   129A      3.528381   130A      3.574977
     131A      3.581169   132A      3.582301   133A      3.670700
     134A      3.671582   135A      3.692954   136A      3.725587
     137A      3.725924   138A      3.780575   139A      3.782068
     140A      3.817687   141A      3.921257   142A      3.922832
     143A      4.045312   144A      4.117372   145A      4.118928
     146A      4.154221   147A      4.156370   148A      4.187387
     149A      4.207937   150A      4.209825   151A      4.210787
     152A      4.215491   153A      4.322540   154A      4.324292
     155A      4.362344   156A      4.432127   157A      4.433191
     158A      4.446353   159A      4.523568   160A      4.525692
     161A      4.588477   162A      4.588946   163A      4.625063
     164A      4.719788   165A      4.780452   166A      4.782699
     167A      4.839815   168A      4.967617   169A      5.006572
     170A      5.007482   171A      5.233198   172A      5.248490
     173A      5.249230   174A      5.360633   175A      5.363362
     176A      5.481735

    Final Occupation by Irrep:
              A
    DOCC [    16 ]
    SOCC [     1 ]

  @DF-UKS Final Energy:  -157.81305249123855

   => Energetics <=

    Nuclear Repulsion Energy =            125.3947251806734471
    One-Electron Energy =                -458.7490635763308546
    Two-Electron Energy =                 195.8484354233974045
    DFT Exchange-Correlation Energy =     -20.3071495189785516
    Empirical Dispersion Energy =           0.0000000000000000
    VV10 Nonlocal Energy =                  0.0000000000000000
    Total Energy =                       -157.8130524912385511

  UHF NO Occupations:
  HONO-2 :   15  A 1.9996009
  HONO-1 :   16  A 1.9989805
  HONO-0 :   17  A 1.0000000
  LUNO+0 :   18  A 0.0010195
  LUNO+1 :   19  A 0.0003991
  LUNO+2 :   20  A 0.0001986
  LUNO+3 :   21  A 0.0001965

Computation Completed

Properties will be evaluated at   0.000000,   0.000000,   0.000000 [a0]

Properties computed using the SCF density matrix

  Nuclear Dipole Moment: [e a0]
     X:     0.8272      Y:     0.0032      Z:    -0.0096

  Electronic Dipole Moment: [e a0]
     X:    -0.7493      Y:    -0.0049      Z:     0.0108

  Dipole Moment: [e a0]
     X:     0.0779      Y:    -0.0017      Z:     0.0012     Total:     0.0779

  Dipole Moment: [D]
     X:     0.1980      Y:    -0.0044      Z:     0.0031     Total:     0.1981

*** tstop() called on n079 at Fri Nov  5 13:53:39 2021
Module time:
	user time   =     497.83 seconds =       8.30 minutes
	system time =       4.59 seconds =       0.08 minutes
	total time  =        127 seconds =       2.12 minutes
Total time:
	user time   =     497.83 seconds =       8.30 minutes
	system time =       4.59 seconds =       0.08 minutes
	total time  =        127 seconds =       2.12 minutes
Grab this energy -157.81305249123855
    Psi4 stopped on: Friday, 05 November 2021 01:53PM
    Psi4 wall time for execution: 0:02:06.32

*** Psi4 exiting successfully. Buy a developer a beer!
