                               Psi4 1.4a2.dev629

  ==> Input File <==

--------------------------------------------------------------------------
import os
memory 14 GB

molecule {
 C   -0.3223154285    0.0010189106    0.0000000000
 C    0.0618255717   -1.4022508424   -2.4256369410
 C    0.0628272052    2.8012116682   -0.0000000000
 C    0.0618255717   -1.4022508424    2.4256369410
 H    2.0836661340   -1.6433407571   -2.8473337359
 H   -0.7642119934   -0.3859977131   -4.0269172381
 H   -0.7646355269   -3.2940114823   -2.3481622200
 H    2.0834042553    3.2877765531    0.0000000000
 H   -0.7649061398    3.6805850722    1.6787570769
 H   -0.7649061398    3.6805850722   -1.6787570769
 H    2.0836661340   -1.6433407571    2.8473337359
 H   -0.7646355269   -3.2940114823    2.3481622200
 H   -0.7642119934   -0.3859977131    4.0269172381
units bohr
0 2
}

basis {

assign 6-31g_2dfp_

[ 6-31g_2dfp_ ]

spherical

!----------------------------------------------------------------------
! Basis Set Exchange
! Version v0.8.13
! https://www.basissetexchange.org
!----------------------------------------------------------------------
!   Basis set: 6-31G(2df,p)
! Description: 6-31G(2df,p)
!        Role: orbital
!     Version: 0  (Data from the original Basis Set Exchange)
!----------------------------------------------------------------------

****
H     0
S    3   1.00
     18.7311370              0.03349460
      2.8253937              0.23472695
      0.6401217              0.81375733
S    1   1.00
      0.1612778              1.00000000
P    1   1.00
      1.5000000              1.0000000
P    1   1.00
      0.3750000              1.0000000
****
B     0
S    6   1.00
   2068.8823000              0.0018663
    310.6495700              0.0142515
     70.6830330              0.0695516
     19.8610800              0.2325729
      6.2993048              0.4670787
      2.1270270              0.3634314
SP   3   1.00
      4.7279710             -0.1303938              0.0745976
      1.1903377             -0.1307889              0.3078467
      0.3594117              1.1309444              0.7434568
SP   1   1.00
      0.1267512              1.0000000              1.0000000
D    1   1.00
      0.8020000              1.0000000
D    1   1.00
      0.2005000              1.0000000
F    1   1.00
      0.5000000              1.0000000
****
C     0
S    6   1.00
   3047.5249000              0.0018347
    457.3695100              0.0140373
    103.9486900              0.0688426
     29.2101550              0.2321844
      9.2866630              0.4679413
      3.1639270              0.3623120
SP   3   1.00
      7.8682724             -0.1193324              0.0689991
      1.8812885             -0.1608542              0.3164240
      0.5442493              1.1434564              0.7443083
SP   1   1.00
      0.1687144              1.0000000              1.0000000
D    1   1.00
      1.2520000              1.0000000
D    1   1.00
      0.3130000              1.0000000
F    1   1.00
      0.8000000              1.0000000
****
N     0
S    6   1.00
   4173.5110000              0.0018348
    627.4579000              0.0139950
    142.9021000              0.0685870
     40.2343300              0.2322410
     12.8202100              0.4690700
      4.3904370              0.3604550
SP   3   1.00
     11.6263580             -0.1149610              0.0675800
      2.7162800             -0.1691180              0.3239070
      0.7722180              1.1458520              0.7408950
SP   1   1.00
      0.2120313              1.0000000              1.0000000
D    1   1.00
      1.8260000              1.0000000
D    1   1.00
      0.4565000              1.0000000
F    1   1.00
      1.0000000              1.0000000
****
O     0
S    6   1.00
   5484.6717000              0.0018311
    825.2349500              0.0139501
    188.0469600              0.0684451
     52.9645000              0.2327143
     16.8975700              0.4701930
      5.7996353              0.3585209
SP   3   1.00
     15.5396160             -0.1107775              0.0708743
      3.5999336             -0.1480263              0.3397528
      1.0137618              1.1307670              0.7271586
SP   1   1.00
      0.2700058              1.0000000              1.0000000
D    1   1.00
      2.5840000              1.0000000
D    1   1.00
      0.6460000              1.0000000
F    1   1.00
      1.4000000              1.0000000
****
F     0
S    6   1.00
   7001.7130900              0.0018196169
   1051.3660900              0.0139160796
    239.2856900              0.0684053245
     67.3974453              0.233185760
     21.5199573              0.471267439
      7.40310130             0.356618546
SP   3   1.00
     20.8479528             -0.108506975            0.0716287243
      4.80830834            -0.146451658            0.3459121030
      1.34406986             1.128688580            0.7224699570
SP   1   1.00
      0.358151393            1.0000000              1.0000000
D    1   1.00
      3.5000000              1.0000000
D    1   1.00
      0.8750000              1.0000000
F    1   1.00
      1.8500000              1.0000000
****
Al     0
S    6   1.00
  13983.1000000              0.00194267
   2098.7500000              0.0148599
    477.7050000              0.0728494
    134.3600000              0.2468300
     42.8709000              0.4872580
     14.5189000              0.3234960
SP   6   1.00
    239.6680000             -0.00292619             0.00460285
     57.4419000             -0.0374080              0.0331990
     18.2859000             -0.1144870              0.1362820
      6.5991400              0.1156350              0.3304760
      2.4904900              0.6125950              0.4491460
      0.9445400              0.3937990              0.2657040
SP   3   1.00
      1.2779000             -0.2276060             -0.0175130
      0.3975900              0.00144583             0.2445330
      0.1600950              1.0927900              0.8049340
SP   1   1.00
      0.0556577              1.0000000              1.0000000
D    1   1.00
      0.6500000              1.0000000
D    1   1.00
      0.1625000              1.0000000
F    1   1.00
      0.2500000              1.0000000
****
Si     0
S    6   1.00
  16115.9000000              0.00195948
   2425.5800000              0.01492880
    553.8670000              0.07284780
    156.3400000              0.24613000
     50.0683000              0.48591400
     17.0178000              0.32500200
SP   6   1.00
    292.7180000             -0.00278094             0.00443826
     69.8731000             -0.03571460             0.03266790
     22.3363000             -0.11498500             0.13472100
      8.1503900              0.09356340             0.32867800
      3.1345800              0.60301700             0.44964000
      1.2254300              0.41895900             0.26137200
SP   3   1.00
      1.7273800             -0.24463000            -0.01779510
      0.5729220              0.00431572             0.25353900
      0.2221920              1.09818000             0.80066900
SP   1   1.00
      0.0778369              1.00000000             1.00000000
D    1   1.00
      0.9000000              1.0000000
D    1   1.00
      0.2250000              1.0000000
F    1   1.00
      0.3200000              1.0000000
****
P     0
S    6   1.00
  19413.3000000              0.0018516
   2909.4200000              0.0142062
    661.3640000              0.0699995
    185.7590000              0.2400790
     59.1943000              0.4847620
     20.0310000              0.3352000
SP   6   1.00
    339.4780000             -0.00278217             0.00456462
     81.0101000             -0.0360499              0.03369360
     25.8780000             -0.1166310              0.13975500
      9.4522100              0.0968328              0.33936200
      3.6656600              0.6144180              0.45092100
      1.4674600              0.4037980              0.23858600
SP   3   1.00
      2.1562300             -0.2529230             -0.01776530
      0.7489970              0.0328517              0.27405800
      0.2831450              1.0812500              0.78542100
SP   1   1.00
      0.0998317              1.0000000              1.00000000
D    1   1.00
      1.1000000              1.0000000
D    1   1.00
      0.2750000              1.0000000
F    1   1.00
      0.4500000              1.0000000
****
S     0
S    6   1.00
  21917.1000000              0.0018690
   3301.4900000              0.0142300
    754.1460000              0.0696960
    212.7110000              0.2384870
     67.9896000              0.4833070
     23.0515000              0.3380740
SP   6   1.00
    423.7350000             -0.0023767              0.0040610
    100.7100000             -0.0316930              0.0306810
     32.1599000             -0.1133170              0.1304520
     11.8079000              0.0560900              0.3272050
      4.6311000              0.5922550              0.4528510
      1.8702500              0.4550060              0.2560420
SP   3   1.00
      2.6158400             -0.2503740             -0.0145110
      0.9221670              0.0669570              0.3102630
      0.3412870              1.0545100              0.7544830
SP   1   1.00
      0.1171670              1.0000000              1.0000000
D    1   1.00
      1.3000000              1.0000000
D    1   1.00
      0.3250000              1.0000000
F    1   1.00
      0.5500000              1.0000000
****
Cl     0
S    6   1.00
  25180.1000000              0.0018330
   3780.3500000              0.0140340
    860.4740000              0.0690970
    242.1450000              0.2374520
     77.3349000              0.4830340
     26.2470000              0.3398560
SP   6   1.00
    491.7650000             -0.0022974              0.0039894
    116.9840000             -0.0307140              0.0303180
     37.4153000             -0.1125280              0.1298800
     13.7834000              0.0450160              0.3279510
      5.4521500              0.5893530              0.4535270
      2.2258800              0.4652060              0.2521540
SP   3   1.00
      3.1864900             -0.2518300             -0.0142990
      1.1442700              0.0615890              0.3235720
      0.4203770              1.0601800              0.7435070
SP   1   1.00
      0.1426570              1.0000000              1.0000000
D    1   1.00
      1.5000000              1.0000000
D    1   1.00
      0.3750000              1.0000000
F    1   1.00
      0.7000000              1.0000000
****
}

set {
reference uhf
freeze_core true
e_convergence 10
d_convergence 10
dft_spherical_points 1202
dft_radial_points 99
}

e = energy('b3lyp')

print_out('Grab this energy {0}'.format(e))
--------------------------------------------------------------------------

    Molecular point group: cs

    Geometry (in Bohr), charge = 0, multiplicity = 2:

       Center              X                  Y                   Z               Mass
    ------------   -----------------  -----------------  -----------------  -----------------
         C           -0.323124938262     0.001456771333     0.000000000000    12.000000000000
         C            0.061016061938    -1.401812981667    -2.425636941000    12.000000000000
         C            0.062017695438     2.801649528933     0.000000000000    12.000000000000
         C            0.061016061938    -1.401812981667     2.425636941000    12.000000000000
         H            2.082856624238    -1.642902896367    -2.847333735900     1.007825032230
         H           -0.765021503162    -0.385559852367    -4.026917238100     1.007825032230
         H           -0.765445036662    -3.293573621567    -2.348162220000     1.007825032230
         H            2.082594745538     3.288214413833     0.000000000000     1.007825032230
         H           -0.765715649562     3.681022932933     1.678757076900     1.007825032230
         H           -0.765715649562     3.681022932933    -1.678757076900     1.007825032230
         H            2.082856624238    -1.642902896367     2.847333735900     1.007825032230
         H           -0.765445036662    -3.293573621567     2.348162220000     1.007825032230
         H           -0.765021503162    -0.385559852367     4.026917238100     1.007825032230

  Charge       = 0
  Multiplicity = 2
  Basis Set: ANONYMOUS99F4140C
    Blend: 6-31G_2DFP_
  Basis Set: (ANONYMOUS99F4140C AUX)
    Blend: DEF2-UNIVERSAL-JKFIT

    Orbital Energies [Eh]
    ---------------------

    Alpha Occupied:

       1Ap   -10.180284     2Ap   -10.167049     1App  -10.167012
       3Ap   -10.166974     4Ap    -0.797804     5Ap    -0.686274
       2App   -0.686114     6Ap    -0.530787     7Ap    -0.441221
       3App   -0.434636     8Ap    -0.434619     9Ap    -0.382772
       4App   -0.382699     5App   -0.363431    10Ap    -0.338239
       6App   -0.337652    11Ap    -0.168924

    Alpha Virtual:

      12Ap     0.075986     7App    0.134107    13Ap     0.134188
       8App    0.142503    14Ap     0.142622    15Ap     0.155045
      16Ap     0.178907     9App    0.179005    17Ap     0.203589
      10App    0.214529    11App    0.275884    18Ap     0.276138
      12App    0.399242    19Ap     0.399455    20Ap     0.403426
      21Ap     0.423904    13App    0.423914    22Ap     0.456670
      23Ap     0.495176    14App    0.495247    15App    0.512278
      24Ap     0.514133    16App    0.578944    25Ap     0.579018
      17App    0.591884    26Ap     0.591923    27Ap     0.603323
      28Ap     0.624258    18App    0.631383    19App    0.635877
      29Ap     0.635881    20App    0.663818    30Ap     0.663998
      31Ap     0.683592    21App    0.683617    32Ap     0.734933
      33Ap     0.825437    22App    0.825440    23App    0.854195
      34Ap     0.915146    24App    0.915350    25App    0.943840
      35Ap     0.944469    26App    0.961322    36Ap     0.961464
      37Ap     1.003639    38Ap     1.127840    27App    1.127885
      39Ap     1.142932    40Ap     1.162981    28App    1.163027
      41Ap     1.222911    29App    1.274554    42Ap     1.274909
      43Ap     1.279517    30App    1.324505    44Ap     1.324628
      45Ap     1.355453    46Ap     1.365878    31App    1.366356
      32App    1.392484    33App    1.404823    47Ap     1.405330
      34App    1.415897    48Ap     1.416395    35App    1.428130
      36App    1.491513    49Ap     1.500033    37App    1.543029
      50Ap     1.543378    51Ap     1.573755    38App    1.574397
      52Ap     1.668551    39App    1.740170    53Ap     1.740359
      54Ap     1.770187    55Ap     1.829934    40App    1.830067
      41App    1.970705    56Ap     2.018115    57Ap     2.018781
      42App    2.019382    58Ap     2.053428    43App    2.054598
      44App    2.738121    59Ap     2.738215    60Ap     2.791317
      45App    2.810971    46App    2.889661    61Ap     2.891000
      62Ap     2.895271    47App    2.929127    63Ap     2.929454
      48App    2.959132    64Ap     2.964505    49App    2.965106
      65Ap     3.034710    50App    3.071178    66Ap     3.071457
      51App    3.082954    67Ap     3.168765    52App    3.169030
      68Ap     3.180660    53App    3.285197    69Ap     3.285628
      70Ap     3.326480    54App    3.326582    71Ap     3.375440
      55App    3.490340    72Ap     3.490448    56App    3.515230
      73Ap     3.524142    74Ap     3.568701    57App    3.568877
      58App    3.575979    59App    3.666578    75Ap     3.666919
      76Ap     3.679076    60App    3.693918    77Ap     3.693964
      78Ap     3.776376    61App    3.776400    79Ap     3.789903
      62App    3.911312    80Ap     3.912020    81Ap     4.033989
      82Ap     4.111184    63App    4.111629    64App    4.148512
      83Ap     4.148876    84Ap     4.174921    85Ap     4.202194
      65App    4.202219    86Ap     4.202861    66App    4.211980
      67App    4.315643    87Ap     4.317216    68App    4.357759
      88Ap     4.424622    69App    4.425710    70App    4.443233
      71App    4.517317    89Ap     4.517684    72App    4.577302
      90Ap     4.577881    91Ap     4.617624    92Ap     4.710014
      93Ap     4.774334    73App    4.774634    74App    4.835544
      94Ap     4.962558    95Ap     5.003974    75App    5.004530
      96Ap     5.230783    76App    5.243576    97Ap     5.244064
      77App    5.357471    98Ap     5.357523    78App    5.477404

    Beta Occupied:

       1Ap   -10.167804     1App  -10.167763     2Ap   -10.167743
       3Ap   -10.166455     4Ap    -0.781122     5Ap    -0.684061
       2App   -0.683907     6Ap    -0.511709     3App   -0.430989
       7Ap    -0.430961     8Ap    -0.421976     9Ap    -0.376889
       4App   -0.376802     5App   -0.362405    10Ap    -0.333365
       6App   -0.332779

    Beta Virtual:

      11Ap    -0.025615    12Ap     0.076980     7App    0.134919
      13Ap     0.135022     8App    0.144413    14Ap     0.144497
      15Ap     0.163484    16Ap     0.182618     9App    0.182693
      10App    0.214766    17Ap     0.218973    11App    0.282241
      18Ap     0.282467    12App    0.400408    19Ap     0.400622
      20Ap     0.419777    21Ap     0.426716    13App    0.426726
      22Ap     0.468677    23Ap     0.497429    14App    0.497495
      15App    0.514006    24Ap     0.556517    16App    0.584466
      25Ap     0.584539    17App    0.598063    26Ap     0.598122
      27Ap     0.610607    28Ap     0.627776    18App    0.631542
      29Ap     0.639202    19App    0.639202    20App    0.667347
      30Ap     0.667535    31Ap     0.686238    21App    0.686267
      32Ap     0.757460    22App    0.830584    33Ap     0.830587
      23App    0.855540    34Ap     0.923100    24App    0.923303
      25App    0.945685    35Ap     0.953348    26App    0.966673
      36Ap     0.966795    37Ap     1.008919    38Ap     1.131843
      27App    1.131865    39Ap     1.156223    40Ap     1.168076
      28App    1.168135    41Ap     1.231900    29App    1.280147
      42Ap     1.280553    43Ap     1.285329    30App    1.329437
      44Ap     1.329580    45Ap     1.364890    46Ap     1.371029
      31App    1.371555    32App    1.393527    33App    1.408328
      47Ap     1.408852    34App    1.421005    48Ap     1.421464
      35App    1.428393    36App    1.492588    49Ap     1.510469
      37App    1.547394    50Ap     1.547764    51Ap     1.581655
      38App    1.582276    52Ap     1.673348    39App    1.745938
      53Ap     1.746126    54Ap     1.780977    55Ap     1.833790
      40App    1.833919    41App    1.971578    56Ap     2.025052
      42App    2.025908    57Ap     2.039782    58Ap     2.060001
      43App    2.061212    44App    2.746453    59Ap     2.746536
      45App    2.811380    60Ap     2.816491    46App    2.902389
      61Ap     2.903699    62Ap     2.925177    47App    2.931570
      63Ap     2.931970    48App    2.960198    64Ap     2.969096
      49App    2.969672    65Ap     3.042433    50App    3.081094
      66Ap     3.081387    51App    3.084770    67Ap     3.184451
      52App    3.184788    68Ap     3.188381    53App    3.289994
      69Ap     3.290365    70Ap     3.330309    54App    3.330436
      71Ap     3.383284    55App    3.493094    72Ap     3.493233
      56App    3.513595    73Ap     3.527202    57App    3.575833
      74Ap     3.581911    58App    3.582011    59App    3.671324
      75Ap     3.671879    76Ap     3.692386    77Ap     3.725390
      60App    3.725743    61App    3.780931    78Ap     3.781032
      79Ap     3.818421    62App    3.921051    80Ap     3.921801
      81Ap     4.044814    82Ap     4.117995    63App    4.118440
      64App    4.155763    83Ap     4.156058    84Ap     4.188954
      65App    4.208034    85Ap     4.208078    86Ap     4.210848
      66App    4.216330    67App    4.323112    87Ap     4.324748
      68App    4.361165    88Ap     4.432842    69App    4.433909
      70App    4.446179    71App    4.525086    89Ap     4.525425
      72App    4.587968    90Ap     4.588502    91Ap     4.624910
      92Ap     4.720241    93Ap     4.781357    73App    4.781618
      74App    4.838472    94Ap     4.967342    95Ap     5.007987
      75App    5.008545    96Ap     5.236530    76App    5.245382
      97Ap     5.245858    77App    5.363959    98Ap     5.364049
      78App    5.479737

    Final Occupation by Irrep:
             Ap   App
    DOCC [    10,    6 ]
    SOCC [     1,    0 ]

  @DF-UKS Final Energy:  -157.81305765782892

   => Energetics <=

    Nuclear Repulsion Energy =            125.4000157777910118
    One-Electron Energy =                -458.7596829050698375
    Two-Electron Energy =                 195.8538666164376423
    DFT Exchange-Correlation Energy =     -20.3072571469877339
    Empirical Dispersion Energy =           0.0000000000000000
    VV10 Nonlocal Energy =                  0.0000000000000000
    Total Energy =                       -157.8130576578289208

  UHF NO Occupations:
  HONO-2 :    9 Ap 1.9996032
  HONO-1 :   10 Ap 1.9989813
  HONO-0 :   11 Ap 1.0000000
  LUNO+0 :   12 Ap 0.0010187
  LUNO+1 :   13 Ap 0.0003968
  LUNO+2 :    7App 0.0001980
  LUNO+3 :   14 Ap 0.0001971

Computation Completed

Properties will be evaluated at   0.000000,   0.000000,   0.000000 [a0]

Properties computed using the SCF density matrix

  Nuclear Dipole Moment: [e a0]
     X:     0.8215      Y:     0.0031      Z:     0.0000

  Electronic Dipole Moment: [e a0]
     X:    -0.7404      Y:    -0.0030      Z:     0.0000

  Dipole Moment: [e a0]
     X:     0.0811      Y:     0.0000      Z:     0.0000     Total:     0.0811

  Dipole Moment: [D]
     X:     0.2061      Y:     0.0001      Z:     0.0000     Total:     0.2061

*** tstop() called on n062 at Fri Nov  5 11:51:07 2021
Module time:
	user time   =     545.59 seconds =       9.09 minutes
	system time =      12.15 seconds =       0.20 minutes
	total time  =        140 seconds =       2.33 minutes
Total time:
	user time   =     545.59 seconds =       9.09 minutes
	system time =      12.15 seconds =       0.20 minutes
	total time  =        140 seconds =       2.33 minutes
Grab this energy -157.81305765782892
    Psi4 stopped on: Friday, 05 November 2021 11:51AM
    Psi4 wall time for execution: 0:02:20.28

*** Psi4 exiting successfully. Buy a developer a beer!
