                               Psi4 1.4a2.dev629

  ==> Input File <==

--------------------------------------------------------------------------
import os
memory 14 GB

molecule {
 C   -0.3233420233   -0.0004987827   -0.0000006955
 C    0.0604505224   -1.4018801467   -2.4258583239
 C    0.0623947342    2.8016628060   -0.0007988454
 C    0.0604506735   -1.4004980529    2.4266547661
 H    2.0889980813   -1.6454828295   -2.8463602516
 H   -0.7680687515   -0.3882239702   -4.0208565359
 H   -0.7648132685   -3.2933156446   -2.3529078039
 H    2.0826732023    3.2885889759   -0.0015805664
 H   -0.7644102773    3.6757643717    1.6786133660
 H   -0.7630600659    3.6846453291   -1.6806333063
 H    2.0889983649   -1.6427386858    2.8479401446
 H   -0.7661543117   -3.2871380232    2.3462453488
 H   -0.7667247572   -0.3909096606    4.0295427034
units bohr
0 2
}

basis {

assign 6-31g_2dfp_

[ 6-31g_2dfp_ ]

spherical

!----------------------------------------------------------------------
! Basis Set Exchange
! Version v0.8.13
! https://www.basissetexchange.org
!----------------------------------------------------------------------
!   Basis set: 6-31G(2df,p)
! Description: 6-31G(2df,p)
!        Role: orbital
!     Version: 0  (Data from the original Basis Set Exchange)
!----------------------------------------------------------------------

****
H     0
S    3   1.00
     18.7311370              0.03349460
      2.8253937              0.23472695
      0.6401217              0.81375733
S    1   1.00
      0.1612778              1.00000000
P    1   1.00
      1.5000000              1.0000000
P    1   1.00
      0.3750000              1.0000000
****
B     0
S    6   1.00
   2068.8823000              0.0018663
    310.6495700              0.0142515
     70.6830330              0.0695516
     19.8610800              0.2325729
      6.2993048              0.4670787
      2.1270270              0.3634314
SP   3   1.00
      4.7279710             -0.1303938              0.0745976
      1.1903377             -0.1307889              0.3078467
      0.3594117              1.1309444              0.7434568
SP   1   1.00
      0.1267512              1.0000000              1.0000000
D    1   1.00
      0.8020000              1.0000000
D    1   1.00
      0.2005000              1.0000000
F    1   1.00
      0.5000000              1.0000000
****
C     0
S    6   1.00
   3047.5249000              0.0018347
    457.3695100              0.0140373
    103.9486900              0.0688426
     29.2101550              0.2321844
      9.2866630              0.4679413
      3.1639270              0.3623120
SP   3   1.00
      7.8682724             -0.1193324              0.0689991
      1.8812885             -0.1608542              0.3164240
      0.5442493              1.1434564              0.7443083
SP   1   1.00
      0.1687144              1.0000000              1.0000000
D    1   1.00
      1.2520000              1.0000000
D    1   1.00
      0.3130000              1.0000000
F    1   1.00
      0.8000000              1.0000000
****
N     0
S    6   1.00
   4173.5110000              0.0018348
    627.4579000              0.0139950
    142.9021000              0.0685870
     40.2343300              0.2322410
     12.8202100              0.4690700
      4.3904370              0.3604550
SP   3   1.00
     11.6263580             -0.1149610              0.0675800
      2.7162800             -0.1691180              0.3239070
      0.7722180              1.1458520              0.7408950
SP   1   1.00
      0.2120313              1.0000000              1.0000000
D    1   1.00
      1.8260000              1.0000000
D    1   1.00
      0.4565000              1.0000000
F    1   1.00
      1.0000000              1.0000000
****
O     0
S    6   1.00
   5484.6717000              0.0018311
    825.2349500              0.0139501
    188.0469600              0.0684451
     52.9645000              0.2327143
     16.8975700              0.4701930
      5.7996353              0.3585209
SP   3   1.00
     15.5396160             -0.1107775              0.0708743
      3.5999336             -0.1480263              0.3397528
      1.0137618              1.1307670              0.7271586
SP   1   1.00
      0.2700058              1.0000000              1.0000000
D    1   1.00
      2.5840000              1.0000000
D    1   1.00
      0.6460000              1.0000000
F    1   1.00
      1.4000000              1.0000000
****
F     0
S    6   1.00
   7001.7130900              0.0018196169
   1051.3660900              0.0139160796
    239.2856900              0.0684053245
     67.3974453              0.233185760
     21.5199573              0.471267439
      7.40310130             0.356618546
SP   3   1.00
     20.8479528             -0.108506975            0.0716287243
      4.80830834            -0.146451658            0.3459121030
      1.34406986             1.128688580            0.7224699570
SP   1   1.00
      0.358151393            1.0000000              1.0000000
D    1   1.00
      3.5000000              1.0000000
D    1   1.00
      0.8750000              1.0000000
F    1   1.00
      1.8500000              1.0000000
****
Al     0
S    6   1.00
  13983.1000000              0.00194267
   2098.7500000              0.0148599
    477.7050000              0.0728494
    134.3600000              0.2468300
     42.8709000              0.4872580
     14.5189000              0.3234960
SP   6   1.00
    239.6680000             -0.00292619             0.00460285
     57.4419000             -0.0374080              0.0331990
     18.2859000             -0.1144870              0.1362820
      6.5991400              0.1156350              0.3304760
      2.4904900              0.6125950              0.4491460
      0.9445400              0.3937990              0.2657040
SP   3   1.00
      1.2779000             -0.2276060             -0.0175130
      0.3975900              0.00144583             0.2445330
      0.1600950              1.0927900              0.8049340
SP   1   1.00
      0.0556577              1.0000000              1.0000000
D    1   1.00
      0.6500000              1.0000000
D    1   1.00
      0.1625000              1.0000000
F    1   1.00
      0.2500000              1.0000000
****
Si     0
S    6   1.00
  16115.9000000              0.00195948
   2425.5800000              0.01492880
    553.8670000              0.07284780
    156.3400000              0.24613000
     50.0683000              0.48591400
     17.0178000              0.32500200
SP   6   1.00
    292.7180000             -0.00278094             0.00443826
     69.8731000             -0.03571460             0.03266790
     22.3363000             -0.11498500             0.13472100
      8.1503900              0.09356340             0.32867800
      3.1345800              0.60301700             0.44964000
      1.2254300              0.41895900             0.26137200
SP   3   1.00
      1.7273800             -0.24463000            -0.01779510
      0.5729220              0.00431572             0.25353900
      0.2221920              1.09818000             0.80066900
SP   1   1.00
      0.0778369              1.00000000             1.00000000
D    1   1.00
      0.9000000              1.0000000
D    1   1.00
      0.2250000              1.0000000
F    1   1.00
      0.3200000              1.0000000
****
P     0
S    6   1.00
  19413.3000000              0.0018516
   2909.4200000              0.0142062
    661.3640000              0.0699995
    185.7590000              0.2400790
     59.1943000              0.4847620
     20.0310000              0.3352000
SP   6   1.00
    339.4780000             -0.00278217             0.00456462
     81.0101000             -0.0360499              0.03369360
     25.8780000             -0.1166310              0.13975500
      9.4522100              0.0968328              0.33936200
      3.6656600              0.6144180              0.45092100
      1.4674600              0.4037980              0.23858600
SP   3   1.00
      2.1562300             -0.2529230             -0.01776530
      0.7489970              0.0328517              0.27405800
      0.2831450              1.0812500              0.78542100
SP   1   1.00
      0.0998317              1.0000000              1.00000000
D    1   1.00
      1.1000000              1.0000000
D    1   1.00
      0.2750000              1.0000000
F    1   1.00
      0.4500000              1.0000000
****
S     0
S    6   1.00
  21917.1000000              0.0018690
   3301.4900000              0.0142300
    754.1460000              0.0696960
    212.7110000              0.2384870
     67.9896000              0.4833070
     23.0515000              0.3380740
SP   6   1.00
    423.7350000             -0.0023767              0.0040610
    100.7100000             -0.0316930              0.0306810
     32.1599000             -0.1133170              0.1304520
     11.8079000              0.0560900              0.3272050
      4.6311000              0.5922550              0.4528510
      1.8702500              0.4550060              0.2560420
SP   3   1.00
      2.6158400             -0.2503740             -0.0145110
      0.9221670              0.0669570              0.3102630
      0.3412870              1.0545100              0.7544830
SP   1   1.00
      0.1171670              1.0000000              1.0000000
D    1   1.00
      1.3000000              1.0000000
D    1   1.00
      0.3250000              1.0000000
F    1   1.00
      0.5500000              1.0000000
****
Cl     0
S    6   1.00
  25180.1000000              0.0018330
   3780.3500000              0.0140340
    860.4740000              0.0690970
    242.1450000              0.2374520
     77.3349000              0.4830340
     26.2470000              0.3398560
SP   6   1.00
    491.7650000             -0.0022974              0.0039894
    116.9840000             -0.0307140              0.0303180
     37.4153000             -0.1125280              0.1298800
     13.7834000              0.0450160              0.3279510
      5.4521500              0.5893530              0.4535270
      2.2258800              0.4652060              0.2521540
SP   3   1.00
      3.1864900             -0.2518300             -0.0142990
      1.1442700              0.0615890              0.3235720
      0.4203770              1.0601800              0.7435070
SP   1   1.00
      0.1426570              1.0000000              1.0000000
D    1   1.00
      1.5000000              1.0000000
D    1   1.00
      0.3750000              1.0000000
F    1   1.00
      0.7000000              1.0000000
****
}

set {
reference uhf
freeze_core true
e_convergence 10
d_convergence 10
dft_spherical_points 1202
dft_radial_points 99
}

e = energy('b3lyp')

print_out('Grab this energy {0}'.format(e))
--------------------------------------------------------------------------

    Molecular point group: c1

    Geometry (in Bohr), charge = 0, multiplicity = 2:

       Center              X                  Y                   Z               Mass
    ------------   -----------------  -----------------  -----------------  -----------------
         C           -0.323340846785    -0.000264494239    -0.000000098668    12.000000000000
         C            0.060451698915    -1.401645858239    -2.425857727068    12.000000000000
         C            0.062395910715     2.801897094461    -0.000798248568    12.000000000000
         C            0.060451850015    -1.400263764439     2.426655362932    12.000000000000
         H            2.088999257815    -1.645248541039    -2.846359654768     1.007825032230
         H           -0.768067574985    -0.387989681739    -4.020855939068     1.007825032230
         H           -0.764812091985    -3.293081356139    -2.352907207068     1.007825032230
         H            2.082674378815     3.288823264361    -0.001579969568     1.007825032230
         H           -0.764409100785     3.675998660161     1.678613962832     1.007825032230
         H           -0.763058889385     3.684879617561    -1.680632709468     1.007825032230
         H            2.088999541415    -1.642504397339     2.847940741432     1.007825032230
         H           -0.766153135185    -3.286903734739     2.346245945632     1.007825032230
         H           -0.766723580685    -0.390675372139     4.029543300232     1.007825032230

  Charge       = 0
  Multiplicity = 2
  Basis Set: ANONYMOUS455A460B
    Blend: 6-31G_2DFP_
  Basis Set: (ANONYMOUS455A460B AUX)
    Blend: DEF2-UNIVERSAL-JKFIT

    Orbital Energies [Eh]
    ---------------------

    Alpha Occupied:

       1A    -10.180343     2A    -10.167043     3A    -10.167025
       4A    -10.166976     5A     -0.797767     6A     -0.686190
       7A     -0.686187     8A     -0.530777     9A     -0.441127
      10A     -0.434692    11A     -0.434652    12A     -0.382621
      13A     -0.382573    14A     -0.363610    15A     -0.338031
      16A     -0.337966    17A     -0.168961

    Alpha Virtual:

      18A      0.076071    19A      0.133987    20A      0.134317
      21A      0.142566    22A      0.142688    23A      0.154881
      24A      0.178694    25A      0.178865    26A      0.203530
      27A      0.214819    28A      0.275910    29A      0.276060
      30A      0.399193    31A      0.399264    32A      0.403343
      33A      0.424013    34A      0.424183    35A      0.456592
      36A      0.495243    37A      0.495535    38A      0.512160
      39A      0.513982    40A      0.578645    41A      0.578985
      42A      0.591487    43A      0.591773    44A      0.602580
      45A      0.624687    46A      0.631833    47A      0.636161
      48A      0.636353    49A      0.663042    50A      0.663794
      51A      0.683682    52A      0.684028    53A      0.734994
      54A      0.825388    55A      0.825418    56A      0.853921
      57A      0.914809    58A      0.915241    59A      0.944019
      60A      0.944701    61A      0.961159    62A      0.961433
      63A      1.003467    64A      1.128063    65A      1.128148
      66A      1.142208    67A      1.163152    68A      1.163394
      69A      1.223326    70A      1.274350    71A      1.274627
      72A      1.279366    73A      1.324307    74A      1.324403
      75A      1.355944    76A      1.366016    77A      1.366073
      78A      1.392464    79A      1.403568    80A      1.404503
      81A      1.416614    82A      1.417657    83A      1.427916
      84A      1.491490    85A      1.499081    86A      1.542371
      87A      1.543308    88A      1.574286    89A      1.574604
      90A      1.669827    91A      1.739281    92A      1.739524
      93A      1.768355    94A      1.830596    95A      1.832198
      96A      1.971714    97A      2.018180    98A      2.018619
      99A      2.019607   100A      2.051702   101A      2.053607
     102A      2.738075   103A      2.738895   104A      2.790921
     105A      2.811427   106A      2.889915   107A      2.889970
     108A      2.894964   109A      2.929493   110A      2.929503
     111A      2.959000   112A      2.964058   113A      2.964696
     114A      3.034022   115A      3.071248   116A      3.071312
     117A      3.084360   118A      3.168551   119A      3.169012
     120A      3.180600   121A      3.284978   122A      3.285628
     123A      3.326963   124A      3.327387   125A      3.375623
     126A      3.489997   127A      3.490299   128A      3.513929
     129A      3.525416   130A      3.568287   131A      3.568487
     132A      3.575159   133A      3.665682   134A      3.667094
     135A      3.679646   136A      3.693979   137A      3.694248
     138A      3.776783   139A      3.776858   140A      3.789123
     141A      3.912140   142A      3.912347   143A      4.034443
     144A      4.110916   145A      4.111798   146A      4.147524
     147A      4.148672   148A      4.173215   149A      4.201715
     150A      4.203282   151A      4.203744   152A      4.210933
     153A      4.315140   154A      4.316837   155A      4.358963
     156A      4.424135   157A      4.424798   158A      4.443435
     159A      4.516147   160A      4.517553   161A      4.578134
     162A      4.578390   163A      4.617570   164A      4.709431
     165A      4.774139   166A      4.775048   167A      4.836911
     168A      4.962893   169A      5.002201   170A      5.003697
     171A      5.228007   172A      5.244730   173A      5.248891
     174A      5.354299   175A      5.356775   176A      5.479377

    Beta Occupied:

       1A    -10.167797     2A    -10.167784     3A    -10.167743
       4A    -10.166520     5A     -0.781092     6A     -0.683994
       7A     -0.683987     8A     -0.511749     9A     -0.431061
      10A     -0.431029    11A     -0.421820    12A     -0.376727
      13A     -0.376637    14A     -0.362594    15A     -0.333147
      16A     -0.333096

    Beta Virtual:

      17A     -0.025743    18A      0.077081    19A      0.134888
      20A      0.135198    21A      0.144463    22A      0.144533
      23A      0.163338    24A      0.182347    25A      0.182555
      26A      0.214984    27A      0.218978    28A      0.282255
      29A      0.282411    30A      0.400364    31A      0.400432
      32A      0.419789    33A      0.426824    34A      0.426995
      35A      0.468499    36A      0.497497    37A      0.497803
      38A      0.513896    39A      0.556326    40A      0.584210
      41A      0.584520    42A      0.597644    43A      0.597978
      44A      0.610000    45A      0.628008    46A      0.632054
      47A      0.639436    48A      0.639639    49A      0.666638
      50A      0.667327    51A      0.686335    52A      0.686645
      53A      0.757517    54A      0.830554    55A      0.830588
      56A      0.855275    57A      0.922793    58A      0.923198
      59A      0.945938    60A      0.953550    61A      0.966436
      62A      0.966767    63A      1.008706    64A      1.132114
      65A      1.132150    66A      1.155585    67A      1.168192
      68A      1.168509    69A      1.232298    70A      1.279934
      71A      1.280232    72A      1.285121    73A      1.329299
      74A      1.329390    75A      1.365352    76A      1.371267
      77A      1.371309    78A      1.393524    79A      1.406993
      80A      1.408019    81A      1.421644    82A      1.422722
      83A      1.428185    84A      1.492540    85A      1.509523
      86A      1.546793    87A      1.547700    88A      1.582174
      89A      1.582461    90A      1.674673    91A      1.745042
      92A      1.745293    93A      1.779128    94A      1.834446
      95A      1.836061    96A      1.972577    97A      2.024983
      98A      2.025916    99A      2.039677   100A      2.058459
     101A      2.060284   102A      2.746420   103A      2.747222
     104A      2.811829   105A      2.816066   106A      2.902574
     107A      2.902709   108A      2.924645   109A      2.931941
     110A      2.932013   111A      2.960066   112A      2.968590
     113A      2.969259   114A      3.041955   115A      3.081045
     116A      3.081315   117A      3.086197   118A      3.184184
     119A      3.184872   120A      3.188289   121A      3.289765
     122A      3.290436   123A      3.330747   124A      3.331216
     125A      3.383439   126A      3.492767   127A      3.492991
     128A      3.512318   129A      3.528438   130A      3.574999
     131A      3.581579   132A      3.581886   133A      3.670379
     134A      3.671895   135A      3.692940   136A      3.725597
     137A      3.725894   138A      3.781312   139A      3.781389
     140A      3.817665   141A      3.921934   142A      3.922185
     143A      4.045330   144A      4.117750   145A      4.118594
     146A      4.154791   147A      4.155827   148A      4.187264
     149A      4.208017   150A      4.209736   151A      4.210835
     152A      4.215415   153A      4.322579   154A      4.324275
     155A      4.362327   156A      4.432351   157A      4.433014
     158A      4.446315   159A      4.523935   160A      4.525345
     161A      4.588722   162A      4.589004   163A      4.624763
     164A      4.719773   165A      4.781092   166A      4.782003
     167A      4.839831   168A      4.967687   169A      5.006259
     170A      5.007718   171A      5.233721   172A      5.246526
     173A      5.250665   174A      5.360769   175A      5.363265
     176A      5.481698

    Final Occupation by Irrep:
              A
    DOCC [    16 ]
    SOCC [     1 ]

  @DF-UKS Final Energy:  -157.81305732622440

   => Energetics <=

    Nuclear Repulsion Energy =            125.3946405415891121
    One-Electron Energy =                -458.7489091786063682
    Two-Electron Energy =                 195.8483570790439785
    DFT Exchange-Correlation Energy =     -20.3071457682511181
    Empirical Dispersion Energy =           0.0000000000000000
    VV10 Nonlocal Energy =                  0.0000000000000000
    Total Energy =                       -157.8130573262243956

  UHF NO Occupations:
  HONO-2 :   15  A 1.9996008
  HONO-1 :   16  A 1.9989804
  HONO-0 :   17  A 1.0000000
  LUNO+0 :   18  A 0.0010196
  LUNO+1 :   19  A 0.0003992
  LUNO+2 :   20  A 0.0001976
  LUNO+3 :   21  A 0.0001975

Computation Completed

Properties will be evaluated at   0.000000,   0.000000,   0.000000 [a0]

Properties computed using the SCF density matrix

  Nuclear Dipole Moment: [e a0]
     X:     0.8272      Y:     0.0016      Z:     0.0000

  Electronic Dipole Moment: [e a0]
     X:    -0.7493      Y:    -0.0023      Z:    -0.0000

  Dipole Moment: [e a0]
     X:     0.0779      Y:    -0.0006      Z:     0.0000     Total:     0.0779

  Dipole Moment: [D]
     X:     0.1980      Y:    -0.0017      Z:     0.0000     Total:     0.1980

*** tstop() called on n082 at Fri Nov  5 14:17:29 2021
Module time:
	user time   =     578.34 seconds =       9.64 minutes
	system time =       5.46 seconds =       0.09 minutes
	total time  =        147 seconds =       2.45 minutes
Total time:
	user time   =     578.34 seconds =       9.64 minutes
	system time =       5.46 seconds =       0.09 minutes
	total time  =        147 seconds =       2.45 minutes
Grab this energy -157.8130573262244
    Psi4 stopped on: Friday, 05 November 2021 02:17PM
    Psi4 wall time for execution: 0:02:26.85

*** Psi4 exiting successfully. Buy a developer a beer!
