                               Psi4 1.4a2.dev629

  ==> Input File <==

--------------------------------------------------------------------------
import os
memory 14 GB

molecule {
 C   -0.3233395124   -0.0000020507    0.0000000139
 C    0.0611409407   -1.4000408264   -2.4268638600
 C    0.0610211489    2.8017594832    0.0009662807
 C    0.0611409529   -1.4017143768    2.4258976268
 H    2.0869384093   -1.6418447181   -2.8487419089
 H   -0.7630440456   -0.3894918344   -4.0241587197
 H   -0.7679322715   -3.2937784902   -2.3485457801
 H    2.0867991680    3.2881031557    0.0026017722
 H   -0.7632846991    3.6797436295    1.6747386012
 H   -0.7680100238    3.6807605449   -1.6782619962
 H    2.0869377671   -1.6463509247    2.8461402914
 H   -0.7632069739   -3.2902191903    2.3494263441
 H   -0.7677687374   -0.3869487154    4.0268013348
units bohr
0 2
}

basis {

assign 6-31g_2dfp_

[ 6-31g_2dfp_ ]

spherical

!----------------------------------------------------------------------
! Basis Set Exchange
! Version v0.8.13
! https://www.basissetexchange.org
!----------------------------------------------------------------------
!   Basis set: 6-31G(2df,p)
! Description: 6-31G(2df,p)
!        Role: orbital
!     Version: 0  (Data from the original Basis Set Exchange)
!----------------------------------------------------------------------

****
H     0
S    3   1.00
     18.7311370              0.03349460
      2.8253937              0.23472695
      0.6401217              0.81375733
S    1   1.00
      0.1612778              1.00000000
P    1   1.00
      1.5000000              1.0000000
P    1   1.00
      0.3750000              1.0000000
****
B     0
S    6   1.00
   2068.8823000              0.0018663
    310.6495700              0.0142515
     70.6830330              0.0695516
     19.8610800              0.2325729
      6.2993048              0.4670787
      2.1270270              0.3634314
SP   3   1.00
      4.7279710             -0.1303938              0.0745976
      1.1903377             -0.1307889              0.3078467
      0.3594117              1.1309444              0.7434568
SP   1   1.00
      0.1267512              1.0000000              1.0000000
D    1   1.00
      0.8020000              1.0000000
D    1   1.00
      0.2005000              1.0000000
F    1   1.00
      0.5000000              1.0000000
****
C     0
S    6   1.00
   3047.5249000              0.0018347
    457.3695100              0.0140373
    103.9486900              0.0688426
     29.2101550              0.2321844
      9.2866630              0.4679413
      3.1639270              0.3623120
SP   3   1.00
      7.8682724             -0.1193324              0.0689991
      1.8812885             -0.1608542              0.3164240
      0.5442493              1.1434564              0.7443083
SP   1   1.00
      0.1687144              1.0000000              1.0000000
D    1   1.00
      1.2520000              1.0000000
D    1   1.00
      0.3130000              1.0000000
F    1   1.00
      0.8000000              1.0000000
****
N     0
S    6   1.00
   4173.5110000              0.0018348
    627.4579000              0.0139950
    142.9021000              0.0685870
     40.2343300              0.2322410
     12.8202100              0.4690700
      4.3904370              0.3604550
SP   3   1.00
     11.6263580             -0.1149610              0.0675800
      2.7162800             -0.1691180              0.3239070
      0.7722180              1.1458520              0.7408950
SP   1   1.00
      0.2120313              1.0000000              1.0000000
D    1   1.00
      1.8260000              1.0000000
D    1   1.00
      0.4565000              1.0000000
F    1   1.00
      1.0000000              1.0000000
****
O     0
S    6   1.00
   5484.6717000              0.0018311
    825.2349500              0.0139501
    188.0469600              0.0684451
     52.9645000              0.2327143
     16.8975700              0.4701930
      5.7996353              0.3585209
SP   3   1.00
     15.5396160             -0.1107775              0.0708743
      3.5999336             -0.1480263              0.3397528
      1.0137618              1.1307670              0.7271586
SP   1   1.00
      0.2700058              1.0000000              1.0000000
D    1   1.00
      2.5840000              1.0000000
D    1   1.00
      0.6460000              1.0000000
F    1   1.00
      1.4000000              1.0000000
****
F     0
S    6   1.00
   7001.7130900              0.0018196169
   1051.3660900              0.0139160796
    239.2856900              0.0684053245
     67.3974453              0.233185760
     21.5199573              0.471267439
      7.40310130             0.356618546
SP   3   1.00
     20.8479528             -0.108506975            0.0716287243
      4.80830834            -0.146451658            0.3459121030
      1.34406986             1.128688580            0.7224699570
SP   1   1.00
      0.358151393            1.0000000              1.0000000
D    1   1.00
      3.5000000              1.0000000
D    1   1.00
      0.8750000              1.0000000
F    1   1.00
      1.8500000              1.0000000
****
Al     0
S    6   1.00
  13983.1000000              0.00194267
   2098.7500000              0.0148599
    477.7050000              0.0728494
    134.3600000              0.2468300
     42.8709000              0.4872580
     14.5189000              0.3234960
SP   6   1.00
    239.6680000             -0.00292619             0.00460285
     57.4419000             -0.0374080              0.0331990
     18.2859000             -0.1144870              0.1362820
      6.5991400              0.1156350              0.3304760
      2.4904900              0.6125950              0.4491460
      0.9445400              0.3937990              0.2657040
SP   3   1.00
      1.2779000             -0.2276060             -0.0175130
      0.3975900              0.00144583             0.2445330
      0.1600950              1.0927900              0.8049340
SP   1   1.00
      0.0556577              1.0000000              1.0000000
D    1   1.00
      0.6500000              1.0000000
D    1   1.00
      0.1625000              1.0000000
F    1   1.00
      0.2500000              1.0000000
****
Si     0
S    6   1.00
  16115.9000000              0.00195948
   2425.5800000              0.01492880
    553.8670000              0.07284780
    156.3400000              0.24613000
     50.0683000              0.48591400
     17.0178000              0.32500200
SP   6   1.00
    292.7180000             -0.00278094             0.00443826
     69.8731000             -0.03571460             0.03266790
     22.3363000             -0.11498500             0.13472100
      8.1503900              0.09356340             0.32867800
      3.1345800              0.60301700             0.44964000
      1.2254300              0.41895900             0.26137200
SP   3   1.00
      1.7273800             -0.24463000            -0.01779510
      0.5729220              0.00431572             0.25353900
      0.2221920              1.09818000             0.80066900
SP   1   1.00
      0.0778369              1.00000000             1.00000000
D    1   1.00
      0.9000000              1.0000000
D    1   1.00
      0.2250000              1.0000000
F    1   1.00
      0.3200000              1.0000000
****
P     0
S    6   1.00
  19413.3000000              0.0018516
   2909.4200000              0.0142062
    661.3640000              0.0699995
    185.7590000              0.2400790
     59.1943000              0.4847620
     20.0310000              0.3352000
SP   6   1.00
    339.4780000             -0.00278217             0.00456462
     81.0101000             -0.0360499              0.03369360
     25.8780000             -0.1166310              0.13975500
      9.4522100              0.0968328              0.33936200
      3.6656600              0.6144180              0.45092100
      1.4674600              0.4037980              0.23858600
SP   3   1.00
      2.1562300             -0.2529230             -0.01776530
      0.7489970              0.0328517              0.27405800
      0.2831450              1.0812500              0.78542100
SP   1   1.00
      0.0998317              1.0000000              1.00000000
D    1   1.00
      1.1000000              1.0000000
D    1   1.00
      0.2750000              1.0000000
F    1   1.00
      0.4500000              1.0000000
****
S     0
S    6   1.00
  21917.1000000              0.0018690
   3301.4900000              0.0142300
    754.1460000              0.0696960
    212.7110000              0.2384870
     67.9896000              0.4833070
     23.0515000              0.3380740
SP   6   1.00
    423.7350000             -0.0023767              0.0040610
    100.7100000             -0.0316930              0.0306810
     32.1599000             -0.1133170              0.1304520
     11.8079000              0.0560900              0.3272050
      4.6311000              0.5922550              0.4528510
      1.8702500              0.4550060              0.2560420
SP   3   1.00
      2.6158400             -0.2503740             -0.0145110
      0.9221670              0.0669570              0.3102630
      0.3412870              1.0545100              0.7544830
SP   1   1.00
      0.1171670              1.0000000              1.0000000
D    1   1.00
      1.3000000              1.0000000
D    1   1.00
      0.3250000              1.0000000
F    1   1.00
      0.5500000              1.0000000
****
Cl     0
S    6   1.00
  25180.1000000              0.0018330
   3780.3500000              0.0140340
    860.4740000              0.0690970
    242.1450000              0.2374520
     77.3349000              0.4830340
     26.2470000              0.3398560
SP   6   1.00
    491.7650000             -0.0022974              0.0039894
    116.9840000             -0.0307140              0.0303180
     37.4153000             -0.1125280              0.1298800
     13.7834000              0.0450160              0.3279510
      5.4521500              0.5893530              0.4535270
      2.2258800              0.4652060              0.2521540
SP   3   1.00
      3.1864900             -0.2518300             -0.0142990
      1.1442700              0.0615890              0.3235720
      0.4203770              1.0601800              0.7435070
SP   1   1.00
      0.1426570              1.0000000              1.0000000
D    1   1.00
      1.5000000              1.0000000
D    1   1.00
      0.3750000              1.0000000
F    1   1.00
      0.7000000              1.0000000
****
}

set {
reference uhf
freeze_core true
e_convergence 10
d_convergence 10
dft_spherical_points 1202
dft_radial_points 99
}

e = energy('b3lyp')

print_out('Grab this energy {0}'.format(e))
--------------------------------------------------------------------------

    Molecular point group: c1

    Geometry (in Bohr), charge = 0, multiplicity = 2:

       Center              X                  Y                   Z               Mass
    ------------   -----------------  -----------------  -----------------  -----------------
         C           -0.323340189402    -0.000002050716     0.000000002070    12.000000000000
         C            0.061140263698    -1.400040826416    -2.426863871830    12.000000000000
         C            0.061020471898     2.801759483184     0.000966268870    12.000000000000
         C            0.061140275898    -1.401714376816     2.425897614970    12.000000000000
         H            2.086937732298    -1.641844718116    -2.848741920730     1.007825032230
         H           -0.763044722602    -0.389491834416    -4.024158731530     1.007825032230
         H           -0.767932948502    -3.293778490216    -2.348545791930     1.007825032230
         H            2.086798490998     3.288103155684     0.002601760370     1.007825032230
         H           -0.763285376102     3.679743629484     1.674738589370     1.007825032230
         H           -0.768010700802     3.680760544884    -1.678262008030     1.007825032230
         H            2.086937090098    -1.646350924716     2.846140279570     1.007825032230
         H           -0.763207650902    -3.290219190316     2.349426332270     1.007825032230
         H           -0.767769414402    -0.386948715416     4.026801322970     1.007825032230

  Charge       = 0
  Multiplicity = 2
  Basis Set: ANONYMOUS33D182B5
    Blend: 6-31G_2DFP_
  Basis Set: (ANONYMOUS33D182B5 AUX)
    Blend: DEF2-UNIVERSAL-JKFIT

    Orbital Energies [Eh]
    ---------------------

    Alpha Occupied:

       1A    -10.180342     2A    -10.167030     3A    -10.167030
       4A    -10.166984     5A     -0.797766     6A     -0.686188
       7A     -0.686187     8A     -0.530778     9A     -0.441123
      10A     -0.434672    11A     -0.434671    12A     -0.382600
      13A     -0.382598    14A     -0.363610    15A     -0.337999
      16A     -0.337999    17A     -0.168961

    Alpha Virtual:

      18A      0.076072    19A      0.134145    20A      0.134146
      21A      0.142635    22A      0.142635    23A      0.154878
      24A      0.178781    25A      0.178781    26A      0.203545
      27A      0.214804    28A      0.275985    29A      0.275986
      30A      0.399227    31A      0.399231    32A      0.403343
      33A      0.424096    34A      0.424097    35A      0.456591
      36A      0.495390    37A      0.495391    38A      0.512159
      39A      0.513980    40A      0.578813    41A      0.578822
      42A      0.591632    43A      0.591634    44A      0.602569
      45A      0.624718    46A      0.631829    47A      0.636238
      48A      0.636241    49A      0.663412    50A      0.663412
      51A      0.683862    52A      0.683863    53A      0.734994
      54A      0.825405    55A      0.825408    56A      0.853915
      57A      0.915024    58A      0.915030    59A      0.944100
      60A      0.944640    61A      0.961281    62A      0.961298
      63A      1.003457    64A      1.128107    65A      1.128120
      66A      1.142217    67A      1.163262    68A      1.163274
      69A      1.223322    70A      1.274491    71A      1.274494
      72A      1.279350    73A      1.324343    74A      1.324345
      75A      1.355986    76A      1.366052    77A      1.366057
      78A      1.392471    79A      1.404051    80A      1.404054
      81A      1.417111    82A      1.417118    83A      1.427909
      84A      1.491457    85A      1.499101    86A      1.542822
      87A      1.542824    88A      1.574450    89A      1.574452
      90A      1.669834    91A      1.739403    92A      1.739415
      93A      1.768310    94A      1.831402    95A      1.831403
      96A      1.971698    97A      2.018341    98A      2.019044
      99A      2.019048   100A      2.052643   101A      2.052643
     102A      2.738483   103A      2.738484   104A      2.790921
     105A      2.811429   106A      2.889952   107A      2.889958
     108A      2.894937   109A      2.929489   110A      2.929497
     111A      2.958993   112A      2.964376   113A      2.964390
     114A      3.033995   115A      3.071283   116A      3.071297
     117A      3.084368   118A      3.168778   119A      3.168786
     120A      3.180589   121A      3.285306   122A      3.285306
     123A      3.327169   124A      3.327174   125A      3.375616
     126A      3.490159   127A      3.490179   128A      3.514005
     129A      3.525340   130A      3.568382   131A      3.568402
     132A      3.575133   133A      3.666382   134A      3.666391
     135A      3.679670   136A      3.694111   137A      3.694127
     138A      3.776791   139A      3.776817   140A      3.789114
     141A      3.912224   142A      3.912230   143A      4.034448
     144A      4.111306   145A      4.111310   146A      4.148169
     147A      4.148177   148A      4.173116   149A      4.202618
     150A      4.203088   151A      4.203092   152A      4.211007
     153A      4.315947   154A      4.315967   155A      4.358968
     156A      4.424462   157A      4.424465   158A      4.443439
     159A      4.516841   160A      4.516842   161A      4.578268
     162A      4.578281   163A      4.617531   164A      4.709453
     165A      4.774595   166A      4.774603   167A      4.836896
     168A      4.962877   169A      5.002949   170A      5.002961
     171A      5.228026   172A      5.246735   173A      5.246735
     174A      5.355582   175A      5.355595   176A      5.479381

    Beta Occupied:

       1A    -10.167783     2A    -10.167783     3A    -10.167758
       4A    -10.166519     5A     -0.781091     6A     -0.683991
       7A     -0.683990     8A     -0.511749     9A     -0.431042
      10A     -0.431042    11A     -0.421821    12A     -0.376685
      13A     -0.376683    14A     -0.362594    15A     -0.333122
      16A     -0.333122

    Beta Virtual:

      17A     -0.025742    18A      0.077081    19A      0.135035
      20A      0.135036    21A      0.144506    22A      0.144506
      23A      0.163338    24A      0.182451    25A      0.182452
      26A      0.215027    27A      0.218935    28A      0.282332
      29A      0.282335    30A      0.400396    31A      0.400400
      32A      0.419791    33A      0.426907    34A      0.426908
      35A      0.468499    36A      0.497650    37A      0.497651
      38A      0.513896    39A      0.556324    40A      0.584363
      41A      0.584371    42A      0.597812    43A      0.597813
      44A      0.609991    45A      0.628064    46A      0.632015
      47A      0.639524    48A      0.639528    49A      0.666976
      50A      0.666977    51A      0.686496    52A      0.686498
      53A      0.757518    54A      0.830574    55A      0.830576
      56A      0.855268    57A      0.922995    58A      0.923002
      59A      0.945959    60A      0.953547    61A      0.966587
      62A      0.966603    63A      1.008697    64A      1.132136
      65A      1.132147    66A      1.155597    67A      1.168335
      68A      1.168347    69A      1.232295    70A      1.280088
      71A      1.280092    72A      1.285103    73A      1.329332
      74A      1.329333    75A      1.365402    76A      1.371296
      77A      1.371300    78A      1.393529    79A      1.407517
      80A      1.407520    81A      1.422162    82A      1.422169
      83A      1.428177    84A      1.492518    85A      1.509532
      86A      1.547231    87A      1.547232    88A      1.582321
      89A      1.582322    90A      1.674680    91A      1.745164
      92A      1.745176    93A      1.779091    94A      1.835258
      95A      1.835259    96A      1.972571    97A      2.025447
      98A      2.025451    99A      2.039702   100A      2.059357
     101A      2.059357   102A      2.746818   103A      2.746820
     104A      2.811837   105A      2.816062   106A      2.902640
     107A      2.902646   108A      2.924648   109A      2.931968
     110A      2.931977   111A      2.960056   112A      2.968920
     113A      2.968934   114A      3.041926   115A      3.081195
     116A      3.081207   117A      3.086189   118A      3.184534
     119A      3.184538   120A      3.188262   121A      3.290104
     122A      3.290104   123A      3.330974   124A      3.330979
     125A      3.383435   126A      3.492890   127A      3.492910
     128A      3.512372   129A      3.528381   130A      3.574998
     131A      3.581720   132A      3.581741   133A      3.671126
     134A      3.671138   135A      3.692961   136A      3.725747
     137A      3.725763   138A      3.781316   139A      3.781342
     140A      3.817661   141A      3.922040   142A      3.922047
     143A      4.045335   144A      4.118117   145A      4.118119
     146A      4.155385   147A      4.155394   148A      4.187132
     149A      4.209023   150A      4.209027   151A      4.210562
     152A      4.215549   153A      4.323389   154A      4.323409
     155A      4.362331   156A      4.432678   157A      4.432680
     158A      4.446318   159A      4.524632   160A      4.524633
     161A      4.588870   162A      4.588882   163A      4.624723
     164A      4.719798   165A      4.781548   166A      4.781556
     167A      4.839813   168A      4.967672   169A      5.006988
     170A      5.007000   171A      5.233741   172A      5.248523
     173A      5.248524   174A      5.362057   175A      5.362071
     176A      5.481702

    Final Occupation by Irrep:
              A
    DOCC [    16 ]
    SOCC [     1 ]

  @DF-UKS Final Energy:  -157.81306180247469

   => Energetics <=

    Nuclear Repulsion Energy =            125.3946172048021879
    One-Electron Energy =                -458.7488763941764773
    Two-Electron Energy =                 195.8483425759621923
    DFT Exchange-Correlation Energy =     -20.3071451890626129
    Empirical Dispersion Energy =           0.0000000000000000
    VV10 Nonlocal Energy =                  0.0000000000000000
    Total Energy =                       -157.8130618024746923

  UHF NO Occupations:
  HONO-2 :   15  A 1.9996009
  HONO-1 :   16  A 1.9989805
  HONO-0 :   17  A 1.0000000
  LUNO+0 :   18  A 0.0010195
  LUNO+1 :   19  A 0.0003991
  LUNO+2 :   20  A 0.0001975
  LUNO+3 :   21  A 0.0001975

Computation Completed

Properties will be evaluated at   0.000000,   0.000000,   0.000000 [a0]

Properties computed using the SCF density matrix

  Nuclear Dipole Moment: [e a0]
     X:     0.8272      Y:    -0.0000      Z:    -0.0000

  Electronic Dipole Moment: [e a0]
     X:    -0.7493      Y:     0.0000      Z:     0.0000

  Dipole Moment: [e a0]
     X:     0.0779      Y:     0.0000      Z:     0.0000     Total:     0.0779

  Dipole Moment: [D]
     X:     0.1980      Y:     0.0000      Z:     0.0000     Total:     0.1980

*** tstop() called on n054 at Fri Nov  5 14:38:58 2021
Module time:
	user time   =     508.56 seconds =       8.48 minutes
	system time =      11.57 seconds =       0.19 minutes
	total time  =        131 seconds =       2.18 minutes
Total time:
	user time   =     508.56 seconds =       8.48 minutes
	system time =      11.57 seconds =       0.19 minutes
	total time  =        131 seconds =       2.18 minutes
Grab this energy -157.8130618024747
    Psi4 stopped on: Friday, 05 November 2021 02:38PM
    Psi4 wall time for execution: 0:02:10.84

*** Psi4 exiting successfully. Buy a developer a beer!
