                               Psi4 1.4a2.dev629

  ==> Input File <==

--------------------------------------------------------------------------
import os
memory 14 GB

molecule {
 C   -0.3233405680    0.0017386122   -0.0000000000
 C    0.0601903995   -1.3996495039   -2.4275836285
 C    0.0629166377    2.8009037380   -0.0000000000
 C    0.0601903995   -1.3996495039    2.4275836285
 H    2.0869231507   -1.6423500844   -2.8510957604
 H   -0.7666446648   -0.3909266168   -4.0294681355
 H   -0.7641904351   -3.2906288615   -2.3439898062
 H    2.0868203387    3.2835209737   -0.0000000000
 H   -0.7657805929    3.6804612478    1.6755228793
 H   -0.7657805929    3.6804612478   -1.6755228793
 H    2.0869231507   -1.6423500844    2.8510957604
 H   -0.7641904351   -3.2906288615    2.3439898062
 H   -0.7666446648   -0.3909266168    4.0294681355
units bohr
0 2
}

basis {

assign 6-31g_2dfp_

[ 6-31g_2dfp_ ]

spherical

!----------------------------------------------------------------------
! Basis Set Exchange
! Version v0.8.13
! https://www.basissetexchange.org
!----------------------------------------------------------------------
!   Basis set: 6-31G(2df,p)
! Description: 6-31G(2df,p)
!        Role: orbital
!     Version: 0  (Data from the original Basis Set Exchange)
!----------------------------------------------------------------------

****
H     0
S    3   1.00
     18.7311370              0.03349460
      2.8253937              0.23472695
      0.6401217              0.81375733
S    1   1.00
      0.1612778              1.00000000
P    1   1.00
      1.5000000              1.0000000
P    1   1.00
      0.3750000              1.0000000
****
B     0
S    6   1.00
   2068.8823000              0.0018663
    310.6495700              0.0142515
     70.6830330              0.0695516
     19.8610800              0.2325729
      6.2993048              0.4670787
      2.1270270              0.3634314
SP   3   1.00
      4.7279710             -0.1303938              0.0745976
      1.1903377             -0.1307889              0.3078467
      0.3594117              1.1309444              0.7434568
SP   1   1.00
      0.1267512              1.0000000              1.0000000
D    1   1.00
      0.8020000              1.0000000
D    1   1.00
      0.2005000              1.0000000
F    1   1.00
      0.5000000              1.0000000
****
C     0
S    6   1.00
   3047.5249000              0.0018347
    457.3695100              0.0140373
    103.9486900              0.0688426
     29.2101550              0.2321844
      9.2866630              0.4679413
      3.1639270              0.3623120
SP   3   1.00
      7.8682724             -0.1193324              0.0689991
      1.8812885             -0.1608542              0.3164240
      0.5442493              1.1434564              0.7443083
SP   1   1.00
      0.1687144              1.0000000              1.0000000
D    1   1.00
      1.2520000              1.0000000
D    1   1.00
      0.3130000              1.0000000
F    1   1.00
      0.8000000              1.0000000
****
N     0
S    6   1.00
   4173.5110000              0.0018348
    627.4579000              0.0139950
    142.9021000              0.0685870
     40.2343300              0.2322410
     12.8202100              0.4690700
      4.3904370              0.3604550
SP   3   1.00
     11.6263580             -0.1149610              0.0675800
      2.7162800             -0.1691180              0.3239070
      0.7722180              1.1458520              0.7408950
SP   1   1.00
      0.2120313              1.0000000              1.0000000
D    1   1.00
      1.8260000              1.0000000
D    1   1.00
      0.4565000              1.0000000
F    1   1.00
      1.0000000              1.0000000
****
O     0
S    6   1.00
   5484.6717000              0.0018311
    825.2349500              0.0139501
    188.0469600              0.0684451
     52.9645000              0.2327143
     16.8975700              0.4701930
      5.7996353              0.3585209
SP   3   1.00
     15.5396160             -0.1107775              0.0708743
      3.5999336             -0.1480263              0.3397528
      1.0137618              1.1307670              0.7271586
SP   1   1.00
      0.2700058              1.0000000              1.0000000
D    1   1.00
      2.5840000              1.0000000
D    1   1.00
      0.6460000              1.0000000
F    1   1.00
      1.4000000              1.0000000
****
F     0
S    6   1.00
   7001.7130900              0.0018196169
   1051.3660900              0.0139160796
    239.2856900              0.0684053245
     67.3974453              0.233185760
     21.5199573              0.471267439
      7.40310130             0.356618546
SP   3   1.00
     20.8479528             -0.108506975            0.0716287243
      4.80830834            -0.146451658            0.3459121030
      1.34406986             1.128688580            0.7224699570
SP   1   1.00
      0.358151393            1.0000000              1.0000000
D    1   1.00
      3.5000000              1.0000000
D    1   1.00
      0.8750000              1.0000000
F    1   1.00
      1.8500000              1.0000000
****
Al     0
S    6   1.00
  13983.1000000              0.00194267
   2098.7500000              0.0148599
    477.7050000              0.0728494
    134.3600000              0.2468300
     42.8709000              0.4872580
     14.5189000              0.3234960
SP   6   1.00
    239.6680000             -0.00292619             0.00460285
     57.4419000             -0.0374080              0.0331990
     18.2859000             -0.1144870              0.1362820
      6.5991400              0.1156350              0.3304760
      2.4904900              0.6125950              0.4491460
      0.9445400              0.3937990              0.2657040
SP   3   1.00
      1.2779000             -0.2276060             -0.0175130
      0.3975900              0.00144583             0.2445330
      0.1600950              1.0927900              0.8049340
SP   1   1.00
      0.0556577              1.0000000              1.0000000
D    1   1.00
      0.6500000              1.0000000
D    1   1.00
      0.1625000              1.0000000
F    1   1.00
      0.2500000              1.0000000
****
Si     0
S    6   1.00
  16115.9000000              0.00195948
   2425.5800000              0.01492880
    553.8670000              0.07284780
    156.3400000              0.24613000
     50.0683000              0.48591400
     17.0178000              0.32500200
SP   6   1.00
    292.7180000             -0.00278094             0.00443826
     69.8731000             -0.03571460             0.03266790
     22.3363000             -0.11498500             0.13472100
      8.1503900              0.09356340             0.32867800
      3.1345800              0.60301700             0.44964000
      1.2254300              0.41895900             0.26137200
SP   3   1.00
      1.7273800             -0.24463000            -0.01779510
      0.5729220              0.00431572             0.25353900
      0.2221920              1.09818000             0.80066900
SP   1   1.00
      0.0778369              1.00000000             1.00000000
D    1   1.00
      0.9000000              1.0000000
D    1   1.00
      0.2250000              1.0000000
F    1   1.00
      0.3200000              1.0000000
****
P     0
S    6   1.00
  19413.3000000              0.0018516
   2909.4200000              0.0142062
    661.3640000              0.0699995
    185.7590000              0.2400790
     59.1943000              0.4847620
     20.0310000              0.3352000
SP   6   1.00
    339.4780000             -0.00278217             0.00456462
     81.0101000             -0.0360499              0.03369360
     25.8780000             -0.1166310              0.13975500
      9.4522100              0.0968328              0.33936200
      3.6656600              0.6144180              0.45092100
      1.4674600              0.4037980              0.23858600
SP   3   1.00
      2.1562300             -0.2529230             -0.01776530
      0.7489970              0.0328517              0.27405800
      0.2831450              1.0812500              0.78542100
SP   1   1.00
      0.0998317              1.0000000              1.00000000
D    1   1.00
      1.1000000              1.0000000
D    1   1.00
      0.2750000              1.0000000
F    1   1.00
      0.4500000              1.0000000
****
S     0
S    6   1.00
  21917.1000000              0.0018690
   3301.4900000              0.0142300
    754.1460000              0.0696960
    212.7110000              0.2384870
     67.9896000              0.4833070
     23.0515000              0.3380740
SP   6   1.00
    423.7350000             -0.0023767              0.0040610
    100.7100000             -0.0316930              0.0306810
     32.1599000             -0.1133170              0.1304520
     11.8079000              0.0560900              0.3272050
      4.6311000              0.5922550              0.4528510
      1.8702500              0.4550060              0.2560420
SP   3   1.00
      2.6158400             -0.2503740             -0.0145110
      0.9221670              0.0669570              0.3102630
      0.3412870              1.0545100              0.7544830
SP   1   1.00
      0.1171670              1.0000000              1.0000000
D    1   1.00
      1.3000000              1.0000000
D    1   1.00
      0.3250000              1.0000000
F    1   1.00
      0.5500000              1.0000000
****
Cl     0
S    6   1.00
  25180.1000000              0.0018330
   3780.3500000              0.0140340
    860.4740000              0.0690970
    242.1450000              0.2374520
     77.3349000              0.4830340
     26.2470000              0.3398560
SP   6   1.00
    491.7650000             -0.0022974              0.0039894
    116.9840000             -0.0307140              0.0303180
     37.4153000             -0.1125280              0.1298800
     13.7834000              0.0450160              0.3279510
      5.4521500              0.5893530              0.4535270
      2.2258800              0.4652060              0.2521540
SP   3   1.00
      3.1864900             -0.2518300             -0.0142990
      1.1442700              0.0615890              0.3235720
      0.4203770              1.0601800              0.7435070
SP   1   1.00
      0.1426570              1.0000000              1.0000000
D    1   1.00
      1.5000000              1.0000000
D    1   1.00
      0.3750000              1.0000000
F    1   1.00
      0.7000000              1.0000000
****
}

set {
reference uhf
freeze_core true
e_convergence 10
d_convergence 10
dft_spherical_points 1202
dft_radial_points 99
}

e = energy('b3lyp')

print_out('Grab this energy {0}'.format(e))
--------------------------------------------------------------------------

    Molecular point group: cs

    Geometry (in Bohr), charge = 0, multiplicity = 2:

       Center              X                  Y                   Z               Mass
    ------------   -----------------  -----------------  -----------------  -----------------
         C           -0.323339961968     0.001095089736     0.000000000000    12.000000000000
         C            0.060191005532    -1.400293026364    -2.427583628500    12.000000000000
         C            0.062917243732     2.800260215536     0.000000000000    12.000000000000
         C            0.060191005532    -1.400293026364     2.427583628500    12.000000000000
         H            2.086923756732    -1.642993606864    -2.851095760400     1.007825032230
         H           -0.766644058768    -0.391570139264    -4.029468135500     1.007825032230
         H           -0.764189829068    -3.291272383964    -2.343989806200     1.007825032230
         H            2.086820944732     3.282877451236     0.000000000000     1.007825032230
         H           -0.765779986868     3.679817725336     1.675522879300     1.007825032230
         H           -0.765779986868     3.679817725336    -1.675522879300     1.007825032230
         H            2.086923756732    -1.642993606864     2.851095760400     1.007825032230
         H           -0.764189829068    -3.291272383964     2.343989806200     1.007825032230
         H           -0.766644058768    -0.391570139264     4.029468135500     1.007825032230

  Charge       = 0
  Multiplicity = 2
  Basis Set: ANONYMOUS9873D165
    Blend: 6-31G_2DFP_
  Basis Set: (ANONYMOUS9873D165 AUX)
    Blend: DEF2-UNIVERSAL-JKFIT

    Orbital Energies [Eh]
    ---------------------

    Alpha Occupied:

       1Ap   -10.180342     1App  -10.167137     2Ap   -10.167109
       3Ap   -10.166799     4Ap    -0.797767     5Ap    -0.686276
       2App   -0.686098     6Ap    -0.530776     7Ap    -0.441126
       8Ap    -0.434841     3App   -0.434501     9Ap    -0.382783
       4App   -0.382412     5App   -0.363617     6App   -0.338012
      10Ap    -0.337980    11Ap    -0.168961

    Alpha Virtual:

      12Ap     0.076073     7App    0.134092    13Ap     0.134220
      14Ap     0.142625     8App    0.142626    15Ap     0.154879
       9App    0.178704    16Ap     0.178853    17Ap     0.203549
      10App    0.214804    11App    0.275771    18Ap     0.276199
      19Ap     0.399082    12App    0.399353    20Ap     0.403367
      21Ap     0.423997    13App    0.424200    22Ap     0.456592
      23Ap     0.495301    14App    0.495478    15App    0.512159
      24Ap     0.513979    16App    0.578447    25Ap     0.579188
      17App    0.591219    26Ap     0.592033    27Ap     0.602586
      28Ap     0.624762    18App    0.631779    19App    0.636099
      29Ap     0.636396    20App    0.663274    30Ap     0.663549
      31Ap     0.683731    21App    0.683973    32Ap     0.734994
      33Ap     0.825178    22App    0.825634    23App    0.853917
      24App    0.914865    34Ap     0.915175    25App    0.944124
      35Ap     0.944611    36Ap     0.960686    26App    0.961899
      37Ap     1.003465    38Ap     1.127995    27App    1.128228
      39Ap     1.142219    40Ap     1.163245    28App    1.163285
      41Ap     1.223336    29App    1.274195    42Ap     1.274787
      43Ap     1.279350    30App    1.324103    44Ap     1.324609
      45Ap     1.355988    46Ap     1.365914    31App    1.366189
      32App    1.392443    33App    1.403642    47Ap     1.404486
      34App    1.416415    48Ap     1.417806    35App    1.427915
      36App    1.491493    49Ap     1.499080    50Ap     1.542590
      37App    1.543058    51Ap     1.574286    38App    1.574611
      52Ap     1.669835    39App    1.738644    53Ap     1.740198
      54Ap     1.768315    40App    1.831100    55Ap     1.831699
      41App    1.971725    56Ap     2.017944    42App    2.018484
      57Ap     2.019964    43App    2.051461    58Ap     2.053815
      59Ap     2.738235    44App    2.738725    60Ap     2.790936
      45App    2.811419    61Ap     2.889919    46App    2.889976
      62Ap     2.894969    63Ap     2.929484    47App    2.929511
      48App    2.958994    64Ap     2.964320    49App    2.964428
      65Ap     3.034007    66Ap     3.071039    50App    3.071513
      51App    3.084366    52App    3.168468    67Ap     3.169098
      68Ap     3.180583    53App    3.285236    69Ap     3.285398
      54App    3.326673    70Ap     3.327637    71Ap     3.375616
      72Ap     3.490017    55App    3.490293    56App    3.514020
      73Ap     3.525310    57App    3.567898    74Ap     3.568837
      58App    3.575210    59App    3.666270    75Ap     3.666486
      76Ap     3.679611    60App    3.693704    77Ap     3.694583
      78Ap     3.775603    61App    3.778016    79Ap     3.789151
      62App    3.912044    80Ap     3.912413    81Ap     4.034454
      63App    4.110196    82Ap     4.112550    64App    4.147301
      83Ap     4.148910    84Ap     4.173269    85Ap     4.202458
      65App    4.202823    86Ap     4.203509    66App    4.210868
      67App    4.315511    87Ap     4.316300    68App    4.359082
      88Ap     4.424075    69App    4.424817    70App    4.443453
      71App    4.515372    89Ap     4.518290    72App    4.578132
      90Ap     4.578379    91Ap     4.617530    92Ap     4.709455
      93Ap     4.774057    73App    4.775149    74App    4.836931
      94Ap     4.962855    75App    5.002132    95Ap     5.003769
      96Ap     5.228054    97Ap     5.246366    76App    5.247248
      77App    5.355051    98Ap     5.355955    78App    5.479349

    Beta Occupied:

       1App  -10.167891     1Ap   -10.167874     2Ap   -10.167559
       3Ap   -10.166519     4Ap    -0.781092     5Ap    -0.684071
       2App   -0.683908     6Ap    -0.511747     7Ap    -0.431209
       3App   -0.430875     8Ap    -0.421824     9Ap    -0.376872
       4App   -0.376493     5App   -0.362600     6App   -0.333142
      10Ap    -0.333097

    Beta Virtual:

      11Ap    -0.025743    12Ap     0.077082     7App    0.134998
      13Ap     0.135093    14Ap     0.144491     8App    0.144502
      15Ap     0.163339     9App    0.182355    16Ap     0.182544
      10App    0.215034    17Ap     0.218930    11App    0.282126
      18Ap     0.282540    19Ap     0.400268    12App    0.400524
      20Ap     0.419790    21Ap     0.426809    13App    0.427016
      22Ap     0.468500    23Ap     0.497569    14App    0.497732
      15App    0.513894    24Ap     0.556324    16App    0.584000
      25Ap     0.584735    17App    0.597408    26Ap     0.598205
      27Ap     0.610008    28Ap     0.628138    18App    0.631934
      19App    0.639365    29Ap     0.639703    20App    0.666855
      30Ap     0.667096    31Ap     0.686385    21App    0.686589
      32Ap     0.757517    33Ap     0.830327    22App    0.830822
      23App    0.855270    24App    0.922870    34Ap     0.923111
      25App    0.945961    35Ap     0.953533    36Ap     0.966060
      26App    0.967144    37Ap     1.008707    38Ap     1.131987
      27App    1.132293    39Ap     1.155599    28App    1.168323
      40Ap     1.168352    41Ap     1.232308    29App    1.279789
      42Ap     1.280388    43Ap     1.285103    30App    1.329065
      44Ap     1.329625    45Ap     1.365403    46Ap     1.371127
      31App    1.371462    32App    1.393506    33App    1.407061
      47Ap     1.407990    34App    1.421487    48Ap     1.422838
      35App    1.428184    36App    1.492541    49Ap     1.509523
      50Ap     1.546926    37App    1.547539    51Ap     1.582214
      38App    1.582426    52Ap     1.674681    39App    1.744404
      53Ap     1.745961    54Ap     1.779096    40App    1.834958
      55Ap     1.835552    41App    1.972585    42App    2.024879
      56Ap     2.025985    57Ap     2.039709    43App    2.058174
      58Ap     2.060532    59Ap     2.746585    44App    2.747049
      45App    2.811832    60Ap     2.816067    61Ap     2.902578
      46App    2.902714    62Ap     2.924658    63Ap     2.931953
      47App    2.932002    48App    2.960056    64Ap     2.968878
      49App    2.968959    65Ap     3.041943    66Ap     3.080964
      50App    3.081392    51App    3.086198    52App    3.184209
      67Ap     3.184846    68Ap     3.188277    53App    3.290020
      69Ap     3.290213    54App    3.330480    70Ap     3.331438
      71Ap     3.383435    72Ap     3.492732    55App    3.493039
      56App    3.512386    73Ap     3.528361    57App    3.574928
      58App    3.581398    74Ap     3.582148    59App    3.670853
      75Ap     3.671424    76Ap     3.692910    60App    3.725491
      77Ap     3.726034    78Ap     3.780163    61App    3.782507
      79Ap     3.817697    62App    3.921894    80Ap     3.922196
      81Ap     4.045341    63App    4.117070    82Ap     4.119309
      64App    4.154529    83Ap     4.156103    84Ap     4.187325
      65App    4.208741    85Ap     4.209161    86Ap     4.210729
      66App    4.215343    67App    4.322936    87Ap     4.323740
      68App    4.362461    88Ap     4.432349    69App    4.432962
      70App    4.446346    71App    4.523177    89Ap     4.526065
      72App    4.588722    90Ap     4.588990    91Ap     4.624725
      92Ap     4.719800    93Ap     4.781035    73App    4.782078
      74App    4.839849    94Ap     4.967651    75App    5.006179
      95Ap     5.007799    96Ap     5.233770    97Ap     5.248142
      76App    5.249039    77App    5.361509    98Ap     5.362458
      78App    5.481670

    Final Occupation by Irrep:
             Ap   App
    DOCC [    10,    6 ]
    SOCC [     1,    0 ]

  @DF-UKS Final Energy:  -157.81306801571782

   => Energetics <=

    Nuclear Repulsion Energy =            125.3946119252580189
    One-Electron Energy =                -458.7488863094213229
    Two-Electron Energy =                 195.8483487807715164
    DFT Exchange-Correlation Energy =     -20.3071424123260158
    Empirical Dispersion Energy =           0.0000000000000000
    VV10 Nonlocal Energy =                  0.0000000000000000
    Total Energy =                       -157.8130680157178176

  UHF NO Occupations:
  HONO-2 :    9 Ap 1.9996009
  HONO-1 :   10 Ap 1.9989804
  HONO-0 :   11 Ap 1.0000000
  LUNO+0 :   12 Ap 0.0010196
  LUNO+1 :   13 Ap 0.0003991
  LUNO+2 :    7App 0.0001978
  LUNO+3 :   14 Ap 0.0001973

Computation Completed

Properties will be evaluated at   0.000000,   0.000000,   0.000000 [a0]

Properties computed using the SCF density matrix

  Nuclear Dipole Moment: [e a0]
     X:     0.8272      Y:    -0.0045      Z:     0.0000

  Electronic Dipole Moment: [e a0]
     X:    -0.7493      Y:     0.0045      Z:     0.0000

  Dipole Moment: [e a0]
     X:     0.0779      Y:    -0.0001      Z:     0.0000     Total:     0.0779

  Dipole Moment: [D]
     X:     0.1980      Y:    -0.0002      Z:     0.0000     Total:     0.1980

*** tstop() called on n031 at Fri Nov  5 12:37:51 2021
Module time:
	user time   =     891.96 seconds =      14.87 minutes
	system time =      17.64 seconds =       0.29 minutes
	total time  =        228 seconds =       3.80 minutes
Total time:
	user time   =     891.96 seconds =      14.87 minutes
	system time =      17.64 seconds =       0.29 minutes
	total time  =        228 seconds =       3.80 minutes
Grab this energy -157.81306801571782
    Psi4 stopped on: Friday, 05 November 2021 12:37PM
    Psi4 wall time for execution: 0:03:48.34

*** Psi4 exiting successfully. Buy a developer a beer!
