                               Psi4 1.4a2.dev629

  ==> Input File <==

--------------------------------------------------------------------------
import os
memory 14 GB

molecule {
 C   -0.3233264351   -0.0060287553   -0.0000000000
 C    0.0612103171   -1.3967310210   -2.4330923095
 C    0.0608811268    2.7942345493    0.0000000000
 C    0.0612103171   -1.3967310210    2.4330923095
 H    2.0865035215   -1.6385707348   -2.8559569198
 H   -0.7685659535   -0.3800727876   -4.0272828326
 H   -0.7636864768   -3.2904079619   -2.3619971847
 H    2.0876624347    3.2788483147    0.0000000000
 H   -0.7643739097    3.6722432941    1.6763986988
 H   -0.7643739097    3.6722432941   -1.6763986988
 H    2.0865035215   -1.6385707348    2.8559569198
 H   -0.7636864768   -3.2904079619    2.3619971847
 H   -0.7685659535   -0.3800727876    4.0272828326
units bohr
0 2
}

basis {

assign 6-31g_2dfp_

[ 6-31g_2dfp_ ]

spherical

!----------------------------------------------------------------------
! Basis Set Exchange
! Version v0.8.13
! https://www.basissetexchange.org
!----------------------------------------------------------------------
!   Basis set: 6-31G(2df,p)
! Description: 6-31G(2df,p)
!        Role: orbital
!     Version: 0  (Data from the original Basis Set Exchange)
!----------------------------------------------------------------------

****
H     0
S    3   1.00
     18.7311370              0.03349460
      2.8253937              0.23472695
      0.6401217              0.81375733
S    1   1.00
      0.1612778              1.00000000
P    1   1.00
      1.5000000              1.0000000
P    1   1.00
      0.3750000              1.0000000
****
B     0
S    6   1.00
   2068.8823000              0.0018663
    310.6495700              0.0142515
     70.6830330              0.0695516
     19.8610800              0.2325729
      6.2993048              0.4670787
      2.1270270              0.3634314
SP   3   1.00
      4.7279710             -0.1303938              0.0745976
      1.1903377             -0.1307889              0.3078467
      0.3594117              1.1309444              0.7434568
SP   1   1.00
      0.1267512              1.0000000              1.0000000
D    1   1.00
      0.8020000              1.0000000
D    1   1.00
      0.2005000              1.0000000
F    1   1.00
      0.5000000              1.0000000
****
C     0
S    6   1.00
   3047.5249000              0.0018347
    457.3695100              0.0140373
    103.9486900              0.0688426
     29.2101550              0.2321844
      9.2866630              0.4679413
      3.1639270              0.3623120
SP   3   1.00
      7.8682724             -0.1193324              0.0689991
      1.8812885             -0.1608542              0.3164240
      0.5442493              1.1434564              0.7443083
SP   1   1.00
      0.1687144              1.0000000              1.0000000
D    1   1.00
      1.2520000              1.0000000
D    1   1.00
      0.3130000              1.0000000
F    1   1.00
      0.8000000              1.0000000
****
N     0
S    6   1.00
   4173.5110000              0.0018348
    627.4579000              0.0139950
    142.9021000              0.0685870
     40.2343300              0.2322410
     12.8202100              0.4690700
      4.3904370              0.3604550
SP   3   1.00
     11.6263580             -0.1149610              0.0675800
      2.7162800             -0.1691180              0.3239070
      0.7722180              1.1458520              0.7408950
SP   1   1.00
      0.2120313              1.0000000              1.0000000
D    1   1.00
      1.8260000              1.0000000
D    1   1.00
      0.4565000              1.0000000
F    1   1.00
      1.0000000              1.0000000
****
O     0
S    6   1.00
   5484.6717000              0.0018311
    825.2349500              0.0139501
    188.0469600              0.0684451
     52.9645000              0.2327143
     16.8975700              0.4701930
      5.7996353              0.3585209
SP   3   1.00
     15.5396160             -0.1107775              0.0708743
      3.5999336             -0.1480263              0.3397528
      1.0137618              1.1307670              0.7271586
SP   1   1.00
      0.2700058              1.0000000              1.0000000
D    1   1.00
      2.5840000              1.0000000
D    1   1.00
      0.6460000              1.0000000
F    1   1.00
      1.4000000              1.0000000
****
F     0
S    6   1.00
   7001.7130900              0.0018196169
   1051.3660900              0.0139160796
    239.2856900              0.0684053245
     67.3974453              0.233185760
     21.5199573              0.471267439
      7.40310130             0.356618546
SP   3   1.00
     20.8479528             -0.108506975            0.0716287243
      4.80830834            -0.146451658            0.3459121030
      1.34406986             1.128688580            0.7224699570
SP   1   1.00
      0.358151393            1.0000000              1.0000000
D    1   1.00
      3.5000000              1.0000000
D    1   1.00
      0.8750000              1.0000000
F    1   1.00
      1.8500000              1.0000000
****
Al     0
S    6   1.00
  13983.1000000              0.00194267
   2098.7500000              0.0148599
    477.7050000              0.0728494
    134.3600000              0.2468300
     42.8709000              0.4872580
     14.5189000              0.3234960
SP   6   1.00
    239.6680000             -0.00292619             0.00460285
     57.4419000             -0.0374080              0.0331990
     18.2859000             -0.1144870              0.1362820
      6.5991400              0.1156350              0.3304760
      2.4904900              0.6125950              0.4491460
      0.9445400              0.3937990              0.2657040
SP   3   1.00
      1.2779000             -0.2276060             -0.0175130
      0.3975900              0.00144583             0.2445330
      0.1600950              1.0927900              0.8049340
SP   1   1.00
      0.0556577              1.0000000              1.0000000
D    1   1.00
      0.6500000              1.0000000
D    1   1.00
      0.1625000              1.0000000
F    1   1.00
      0.2500000              1.0000000
****
Si     0
S    6   1.00
  16115.9000000              0.00195948
   2425.5800000              0.01492880
    553.8670000              0.07284780
    156.3400000              0.24613000
     50.0683000              0.48591400
     17.0178000              0.32500200
SP   6   1.00
    292.7180000             -0.00278094             0.00443826
     69.8731000             -0.03571460             0.03266790
     22.3363000             -0.11498500             0.13472100
      8.1503900              0.09356340             0.32867800
      3.1345800              0.60301700             0.44964000
      1.2254300              0.41895900             0.26137200
SP   3   1.00
      1.7273800             -0.24463000            -0.01779510
      0.5729220              0.00431572             0.25353900
      0.2221920              1.09818000             0.80066900
SP   1   1.00
      0.0778369              1.00000000             1.00000000
D    1   1.00
      0.9000000              1.0000000
D    1   1.00
      0.2250000              1.0000000
F    1   1.00
      0.3200000              1.0000000
****
P     0
S    6   1.00
  19413.3000000              0.0018516
   2909.4200000              0.0142062
    661.3640000              0.0699995
    185.7590000              0.2400790
     59.1943000              0.4847620
     20.0310000              0.3352000
SP   6   1.00
    339.4780000             -0.00278217             0.00456462
     81.0101000             -0.0360499              0.03369360
     25.8780000             -0.1166310              0.13975500
      9.4522100              0.0968328              0.33936200
      3.6656600              0.6144180              0.45092100
      1.4674600              0.4037980              0.23858600
SP   3   1.00
      2.1562300             -0.2529230             -0.01776530
      0.7489970              0.0328517              0.27405800
      0.2831450              1.0812500              0.78542100
SP   1   1.00
      0.0998317              1.0000000              1.00000000
D    1   1.00
      1.1000000              1.0000000
D    1   1.00
      0.2750000              1.0000000
F    1   1.00
      0.4500000              1.0000000
****
S     0
S    6   1.00
  21917.1000000              0.0018690
   3301.4900000              0.0142300
    754.1460000              0.0696960
    212.7110000              0.2384870
     67.9896000              0.4833070
     23.0515000              0.3380740
SP   6   1.00
    423.7350000             -0.0023767              0.0040610
    100.7100000             -0.0316930              0.0306810
     32.1599000             -0.1133170              0.1304520
     11.8079000              0.0560900              0.3272050
      4.6311000              0.5922550              0.4528510
      1.8702500              0.4550060              0.2560420
SP   3   1.00
      2.6158400             -0.2503740             -0.0145110
      0.9221670              0.0669570              0.3102630
      0.3412870              1.0545100              0.7544830
SP   1   1.00
      0.1171670              1.0000000              1.0000000
D    1   1.00
      1.3000000              1.0000000
D    1   1.00
      0.3250000              1.0000000
F    1   1.00
      0.5500000              1.0000000
****
Cl     0
S    6   1.00
  25180.1000000              0.0018330
   3780.3500000              0.0140340
    860.4740000              0.0690970
    242.1450000              0.2374520
     77.3349000              0.4830340
     26.2470000              0.3398560
SP   6   1.00
    491.7650000             -0.0022974              0.0039894
    116.9840000             -0.0307140              0.0303180
     37.4153000             -0.1125280              0.1298800
     13.7834000              0.0450160              0.3279510
      5.4521500              0.5893530              0.4535270
      2.2258800              0.4652060              0.2521540
SP   3   1.00
      3.1864900             -0.2518300             -0.0142990
      1.1442700              0.0615890              0.3235720
      0.4203770              1.0601800              0.7435070
SP   1   1.00
      0.1426570              1.0000000              1.0000000
D    1   1.00
      1.5000000              1.0000000
D    1   1.00
      0.3750000              1.0000000
F    1   1.00
      0.7000000              1.0000000
****
}

set {
reference uhf
freeze_core true
e_convergence 10
d_convergence 10
dft_spherical_points 1202
dft_radial_points 99
}

e = energy('b3lyp')

print_out('Grab this energy {0}'.format(e))
--------------------------------------------------------------------------

    Molecular point group: cs

    Geometry (in Bohr), charge = 0, multiplicity = 2:

       Center              X                  Y                   Z               Mass
    ------------   -----------------  -----------------  -----------------  -----------------
         C           -0.323329384065    -0.005015934713     0.000000000000    12.000000000000
         C            0.061207368135    -1.395718200413    -2.433092309500    12.000000000000
         C            0.060878177835     2.795247369887     0.000000000000    12.000000000000
         C            0.061207368135    -1.395718200413     2.433092309500    12.000000000000
         H            2.086500572535    -1.637557914213    -2.855956919800     1.007825032230
         H           -0.768568902465    -0.379059967013    -4.027282832600     1.007825032230
         H           -0.763689425765    -3.289395141313    -2.361997184700     1.007825032230
         H            2.087659485735     3.279861135287     0.000000000000     1.007825032230
         H           -0.764376858665     3.673256114687     1.676398698800     1.007825032230
         H           -0.764376858665     3.673256114687    -1.676398698800     1.007825032230
         H            2.086500572535    -1.637557914213     2.855956919800     1.007825032230
         H           -0.763689425765    -3.289395141313     2.361997184700     1.007825032230
         H           -0.768568902465    -0.379059967013     4.027282832600     1.007825032230

  Charge       = 0
  Multiplicity = 2
  Basis Set: ANONYMOUS7A7B2C8C
    Blend: 6-31G_2DFP_
  Basis Set: (ANONYMOUS7A7B2C8C AUX)
    Blend: DEF2-UNIVERSAL-JKFIT

    Orbital Energies [Eh]
    ---------------------

    Alpha Occupied:

       1Ap   -10.180341     1App  -10.167202     2Ap   -10.167173
       3Ap   -10.166672     4Ap    -0.797769     2App   -0.686484
       5Ap    -0.685887     6Ap    -0.530777     7Ap    -0.441129
       3App   -0.434927     8Ap    -0.434412     4App   -0.382781
       9Ap    -0.382417     5App   -0.363612     6App   -0.338559
      10Ap    -0.337433    11Ap    -0.168961

    Alpha Virtual:

      12Ap     0.076072     7App    0.133955    13Ap     0.134356
       8App    0.142553    14Ap     0.142700    15Ap     0.154879
       9App    0.178504    16Ap     0.179052    17Ap     0.203546
      10App    0.214810    11App    0.275942    18Ap     0.276029
      19Ap     0.399193    12App    0.399203    20Ap     0.403408
      13App    0.423964    21Ap     0.424245    22Ap     0.456598
      14App    0.494949    23Ap     0.495820    15App    0.512172
      24Ap     0.513988    16App    0.578606    25Ap     0.579005
      17App    0.591638    26Ap     0.591640    27Ap     0.602574
      28Ap     0.624767    18App    0.631750    29Ap     0.636022
      19App    0.636489    20App    0.663286    30Ap     0.663539
      21App    0.683606    31Ap     0.684109    32Ap     0.734994
      22App    0.824574    33Ap     0.826227    23App    0.853913
      24App    0.914689    34Ap     0.915367    25App    0.944060
      35Ap     0.944508    36Ap     0.961083    26App    0.961705
      37Ap     1.003465    27App    1.126957    38Ap     1.129285
      39Ap     1.142214    28App    1.162762    40Ap     1.163771
      41Ap     1.223320    29App    1.274159    42Ap     1.274862
      43Ap     1.279337    44Ap     1.324220    30App    1.324487
      45Ap     1.355991    31App    1.365038    46Ap     1.367025
      32App    1.392473    33App    1.403518    47Ap     1.404657
      34App    1.416865    48Ap     1.417352    35App    1.427937
      36App    1.491439    49Ap     1.499070    37App    1.542660
      50Ap     1.543008    38App    1.572348    51Ap     1.576654
      52Ap     1.669796    39App    1.738466    53Ap     1.740280
      54Ap     1.768434    40App    1.830822    55Ap     1.831985
      41App    1.971705    42App    2.017237    56Ap     2.018216
      57Ap     2.020950    43App    2.049537    58Ap     2.055821
      44App    2.738267    59Ap     2.738701    60Ap     2.790919
      45App    2.811445    61Ap     2.889173    46App    2.890725
      62Ap     2.894940    47App    2.929494    63Ap     2.929507
      48App    2.958960    49App    2.963250    64Ap     2.965558
      65Ap     3.034019    50App    3.070394    66Ap     3.072153
      51App    3.084384    52App    3.167930    67Ap     3.169660
      68Ap     3.180552    69Ap     3.284368    53App    3.286232
      54App    3.326182    70Ap     3.328142    71Ap     3.375690
      55App    3.489624    72Ap     3.490568    56App    3.514050
      73Ap     3.525307    57App    3.566956    74Ap     3.569700
      58App    3.575395    75Ap     3.666232    59App    3.666514
      76Ap     3.679718    77Ap     3.693633    60App    3.694571
      78Ap     3.775898    61App    3.777650    79Ap     3.789271
      62App    3.911154    80Ap     3.913303    81Ap     4.034473
      63App    4.109785    82Ap     4.112973    64App    4.146651
      83Ap     4.149572    84Ap     4.173235    65App    4.201354
      85Ap     4.202671    86Ap     4.204739    66App    4.210936
      87Ap     4.315131    67App    4.316756    68App    4.358995
      69App    4.423523    88Ap     4.425136    70App    4.443697
      71App    4.516238    89Ap     4.517466    72App    4.577476
      90Ap     4.579038    91Ap     4.617535    92Ap     4.709446
      73App    4.773117    93Ap     4.776084    74App    4.836943
      94Ap     4.962868    75App    5.001672    95Ap     5.004233
      96Ap     5.227999    97Ap     5.246469    76App    5.247219
      77App    5.354818    98Ap     5.356181    78App    5.479318

    Beta Occupied:

       1App  -10.167954     1Ap   -10.167936     2Ap   -10.167436
       3Ap   -10.166518     4Ap    -0.781094     2App   -0.684288
       5Ap    -0.683688     6Ap    -0.511748     3App   -0.431299
       7Ap    -0.430788     8Ap    -0.421820     4App   -0.376884
       9Ap    -0.376485     5App   -0.362595     6App   -0.333686
      10Ap    -0.332553

    Beta Virtual:

      11Ap    -0.025743    12Ap     0.077081     7App    0.134846
      13Ap     0.135244     8App    0.144411    14Ap     0.144583
      15Ap     0.163339     9App    0.182177    16Ap     0.182721
      10App    0.215039    17Ap     0.218928    11App    0.282264
      18Ap     0.282403    12App    0.400395    19Ap     0.400397
      20Ap     0.419789    13App    0.426758    21Ap     0.427077
      22Ap     0.468510    14App    0.497208    23Ap     0.498086
      15App    0.513907    24Ap     0.556329    16App    0.584185
      25Ap     0.584528    17App    0.597813    26Ap     0.597821
      27Ap     0.609998    28Ap     0.628142    18App    0.631915
      29Ap     0.639296    19App    0.639778    20App    0.666828
      30Ap     0.667124    21App    0.686188    31Ap     0.686798
      32Ap     0.757516    22App    0.829735    33Ap     0.831402
      23App    0.855267    24App    0.922648    34Ap     0.923348
      25App    0.945918    35Ap     0.953424    36Ap     0.966366
      26App    0.967030    37Ap     1.008704    27App    1.131003
      38Ap     1.133302    39Ap     1.155586    28App    1.167791
      40Ap     1.168888    41Ap     1.232290    29App    1.279778
      42Ap     1.280440    43Ap     1.285089    44Ap     1.329182
      30App    1.329504    45Ap     1.365408    31App    1.370146
      46Ap     1.372396    32App    1.393534    33App    1.407026
      47Ap     1.408082    34App    1.421883    48Ap     1.422423
      35App    1.428218    36App    1.492491    49Ap     1.509514
      37App    1.546978    50Ap     1.547498    38App    1.580371
      51Ap     1.584381    52Ap     1.674644    39App    1.744229
      53Ap     1.746048    54Ap     1.779204    40App    1.834662
      55Ap     1.835856    41App    1.972570    42App    2.023588
      56Ap     2.027321    57Ap     2.039667    43App    2.056317
      58Ap     2.062468    44App    2.746551    59Ap     2.747089
      45App    2.811857    60Ap     2.816054    61Ap     2.901909
      46App    2.903359    62Ap     2.924637    63Ap     2.931880
      47App    2.932104    48App    2.960041    49App    2.967819
      64Ap     2.970058    65Ap     3.041954    50App    3.080102
      66Ap     3.082162    51App    3.086313    52App    3.183767
      67Ap     3.185311    68Ap     3.188234    69Ap     3.289269
      53App    3.290934    54App    3.329966    70Ap     3.331969
      71Ap     3.383505    55App    3.492361    72Ap     3.493277
      56App    3.512432    73Ap     3.528362    57App    3.574624
      58App    3.580975    74Ap     3.582984    75Ap     3.670917
      59App    3.671329    76Ap     3.693007    77Ap     3.725490
      60App    3.725968    78Ap     3.780414    61App    3.782254
      79Ap     3.817747    62App    3.920993    80Ap     3.923099
      81Ap     4.045360    63App    4.116605    82Ap     4.119781
      64App    4.153880    83Ap     4.156766    84Ap     4.187294
      65App    4.207264    85Ap     4.210620    86Ap     4.210710
      66App    4.215424    87Ap     4.322520    67App    4.324250
      68App    4.362357    69App    4.431669    88Ap     4.433324
      70App    4.446676    71App    4.524106    89Ap     4.525170
      72App    4.587976    90Ap     4.589742    91Ap     4.624726
      92Ap     4.719792    73App    4.780053    93Ap     4.783055
      74App    4.839861    94Ap     4.967662    75App    5.005710
      95Ap     5.008273    96Ap     5.233706    97Ap     5.248265
      76App    5.248999    77App    5.361300    98Ap     5.362660
      78App    5.481639

    Final Occupation by Irrep:
             Ap   App
    DOCC [    10,    6 ]
    SOCC [     1,    0 ]

  @DF-UKS Final Energy:  -157.81306190260690

   => Energetics <=

    Nuclear Repulsion Energy =            125.3948963302213713
    One-Electron Energy =                -458.7494415781920907
    Two-Electron Energy =                 195.8486280905298429
    DFT Exchange-Correlation Energy =     -20.3071447451660596
    Empirical Dispersion Energy =           0.0000000000000000
    VV10 Nonlocal Energy =                  0.0000000000000000
    Total Energy =                       -157.8130619026069041

  UHF NO Occupations:
  HONO-2 :    9 Ap 1.9996009
  HONO-1 :   10 Ap 1.9989804
  HONO-0 :   11 Ap 1.0000000
  LUNO+0 :   12 Ap 0.0010196
  LUNO+1 :   13 Ap 0.0003991
  LUNO+2 :   14 Ap 0.0001983
  LUNO+3 :    7App 0.0001968

Computation Completed

Properties will be evaluated at   0.000000,   0.000000,   0.000000 [a0]

Properties computed using the SCF density matrix

  Nuclear Dipole Moment: [e a0]
     X:     0.8272      Y:     0.0071      Z:     0.0000

  Electronic Dipole Moment: [e a0]
     X:    -0.7493      Y:    -0.0079      Z:     0.0000

  Dipole Moment: [e a0]
     X:     0.0779      Y:    -0.0008      Z:     0.0000     Total:     0.0779

  Dipole Moment: [D]
     X:     0.1980      Y:    -0.0020      Z:     0.0000     Total:     0.1981

*** tstop() called on n065 at Fri Nov  5 11:59:42 2021
Module time:
	user time   =     738.88 seconds =      12.31 minutes
	system time =      17.24 seconds =       0.29 minutes
	total time  =        190 seconds =       3.17 minutes
Total time:
	user time   =     738.88 seconds =      12.31 minutes
	system time =      17.24 seconds =       0.29 minutes
	total time  =        190 seconds =       3.17 minutes
Grab this energy -157.8130619026069
    Psi4 stopped on: Friday, 05 November 2021 11:59AM
    Psi4 wall time for execution: 0:03:09.98

*** Psi4 exiting successfully. Buy a developer a beer!
