                               Psi4 1.4a2.dev629

  ==> Input File <==

--------------------------------------------------------------------------
import os
memory 14 GB

molecule {
 C   -0.3233525406   -0.0002261058   -0.0000000000
 C    0.0608729276   -1.3998519525   -2.4237691775
 C    0.0610047445    2.8023910031   -0.0000000000
 C    0.0608729276   -1.3998519525    2.4237691775
 H    2.0868405751   -1.6443802823   -2.8482522057
 H   -0.7651655207   -0.3887158859   -4.0261297368
 H   -0.7654353081   -3.2921827236   -2.3498365520
 H    2.0868280434    3.2879184063    0.0000000000
 H   -0.7656567359    3.6800770358    1.6765503477
 H   -0.7656567359    3.6800770358   -1.6765503477
 H    2.0868405751   -1.6443802823    2.8482522057
 H   -0.7654353081   -3.2921827236    2.3498365520
 H   -0.7651655207   -0.3887158859    4.0261297368
units bohr
0 2
}

basis {

assign 6-31g_2dfp_

[ 6-31g_2dfp_ ]

spherical

!----------------------------------------------------------------------
! Basis Set Exchange
! Version v0.8.13
! https://www.basissetexchange.org
!----------------------------------------------------------------------
!   Basis set: 6-31G(2df,p)
! Description: 6-31G(2df,p)
!        Role: orbital
!     Version: 0  (Data from the original Basis Set Exchange)
!----------------------------------------------------------------------

****
H     0
S    3   1.00
     18.7311370              0.03349460
      2.8253937              0.23472695
      0.6401217              0.81375733
S    1   1.00
      0.1612778              1.00000000
P    1   1.00
      1.5000000              1.0000000
P    1   1.00
      0.3750000              1.0000000
****
B     0
S    6   1.00
   2068.8823000              0.0018663
    310.6495700              0.0142515
     70.6830330              0.0695516
     19.8610800              0.2325729
      6.2993048              0.4670787
      2.1270270              0.3634314
SP   3   1.00
      4.7279710             -0.1303938              0.0745976
      1.1903377             -0.1307889              0.3078467
      0.3594117              1.1309444              0.7434568
SP   1   1.00
      0.1267512              1.0000000              1.0000000
D    1   1.00
      0.8020000              1.0000000
D    1   1.00
      0.2005000              1.0000000
F    1   1.00
      0.5000000              1.0000000
****
C     0
S    6   1.00
   3047.5249000              0.0018347
    457.3695100              0.0140373
    103.9486900              0.0688426
     29.2101550              0.2321844
      9.2866630              0.4679413
      3.1639270              0.3623120
SP   3   1.00
      7.8682724             -0.1193324              0.0689991
      1.8812885             -0.1608542              0.3164240
      0.5442493              1.1434564              0.7443083
SP   1   1.00
      0.1687144              1.0000000              1.0000000
D    1   1.00
      1.2520000              1.0000000
D    1   1.00
      0.3130000              1.0000000
F    1   1.00
      0.8000000              1.0000000
****
N     0
S    6   1.00
   4173.5110000              0.0018348
    627.4579000              0.0139950
    142.9021000              0.0685870
     40.2343300              0.2322410
     12.8202100              0.4690700
      4.3904370              0.3604550
SP   3   1.00
     11.6263580             -0.1149610              0.0675800
      2.7162800             -0.1691180              0.3239070
      0.7722180              1.1458520              0.7408950
SP   1   1.00
      0.2120313              1.0000000              1.0000000
D    1   1.00
      1.8260000              1.0000000
D    1   1.00
      0.4565000              1.0000000
F    1   1.00
      1.0000000              1.0000000
****
O     0
S    6   1.00
   5484.6717000              0.0018311
    825.2349500              0.0139501
    188.0469600              0.0684451
     52.9645000              0.2327143
     16.8975700              0.4701930
      5.7996353              0.3585209
SP   3   1.00
     15.5396160             -0.1107775              0.0708743
      3.5999336             -0.1480263              0.3397528
      1.0137618              1.1307670              0.7271586
SP   1   1.00
      0.2700058              1.0000000              1.0000000
D    1   1.00
      2.5840000              1.0000000
D    1   1.00
      0.6460000              1.0000000
F    1   1.00
      1.4000000              1.0000000
****
F     0
S    6   1.00
   7001.7130900              0.0018196169
   1051.3660900              0.0139160796
    239.2856900              0.0684053245
     67.3974453              0.233185760
     21.5199573              0.471267439
      7.40310130             0.356618546
SP   3   1.00
     20.8479528             -0.108506975            0.0716287243
      4.80830834            -0.146451658            0.3459121030
      1.34406986             1.128688580            0.7224699570
SP   1   1.00
      0.358151393            1.0000000              1.0000000
D    1   1.00
      3.5000000              1.0000000
D    1   1.00
      0.8750000              1.0000000
F    1   1.00
      1.8500000              1.0000000
****
Al     0
S    6   1.00
  13983.1000000              0.00194267
   2098.7500000              0.0148599
    477.7050000              0.0728494
    134.3600000              0.2468300
     42.8709000              0.4872580
     14.5189000              0.3234960
SP   6   1.00
    239.6680000             -0.00292619             0.00460285
     57.4419000             -0.0374080              0.0331990
     18.2859000             -0.1144870              0.1362820
      6.5991400              0.1156350              0.3304760
      2.4904900              0.6125950              0.4491460
      0.9445400              0.3937990              0.2657040
SP   3   1.00
      1.2779000             -0.2276060             -0.0175130
      0.3975900              0.00144583             0.2445330
      0.1600950              1.0927900              0.8049340
SP   1   1.00
      0.0556577              1.0000000              1.0000000
D    1   1.00
      0.6500000              1.0000000
D    1   1.00
      0.1625000              1.0000000
F    1   1.00
      0.2500000              1.0000000
****
Si     0
S    6   1.00
  16115.9000000              0.00195948
   2425.5800000              0.01492880
    553.8670000              0.07284780
    156.3400000              0.24613000
     50.0683000              0.48591400
     17.0178000              0.32500200
SP   6   1.00
    292.7180000             -0.00278094             0.00443826
     69.8731000             -0.03571460             0.03266790
     22.3363000             -0.11498500             0.13472100
      8.1503900              0.09356340             0.32867800
      3.1345800              0.60301700             0.44964000
      1.2254300              0.41895900             0.26137200
SP   3   1.00
      1.7273800             -0.24463000            -0.01779510
      0.5729220              0.00431572             0.25353900
      0.2221920              1.09818000             0.80066900
SP   1   1.00
      0.0778369              1.00000000             1.00000000
D    1   1.00
      0.9000000              1.0000000
D    1   1.00
      0.2250000              1.0000000
F    1   1.00
      0.3200000              1.0000000
****
P     0
S    6   1.00
  19413.3000000              0.0018516
   2909.4200000              0.0142062
    661.3640000              0.0699995
    185.7590000              0.2400790
     59.1943000              0.4847620
     20.0310000              0.3352000
SP   6   1.00
    339.4780000             -0.00278217             0.00456462
     81.0101000             -0.0360499              0.03369360
     25.8780000             -0.1166310              0.13975500
      9.4522100              0.0968328              0.33936200
      3.6656600              0.6144180              0.45092100
      1.4674600              0.4037980              0.23858600
SP   3   1.00
      2.1562300             -0.2529230             -0.01776530
      0.7489970              0.0328517              0.27405800
      0.2831450              1.0812500              0.78542100
SP   1   1.00
      0.0998317              1.0000000              1.00000000
D    1   1.00
      1.1000000              1.0000000
D    1   1.00
      0.2750000              1.0000000
F    1   1.00
      0.4500000              1.0000000
****
S     0
S    6   1.00
  21917.1000000              0.0018690
   3301.4900000              0.0142300
    754.1460000              0.0696960
    212.7110000              0.2384870
     67.9896000              0.4833070
     23.0515000              0.3380740
SP   6   1.00
    423.7350000             -0.0023767              0.0040610
    100.7100000             -0.0316930              0.0306810
     32.1599000             -0.1133170              0.1304520
     11.8079000              0.0560900              0.3272050
      4.6311000              0.5922550              0.4528510
      1.8702500              0.4550060              0.2560420
SP   3   1.00
      2.6158400             -0.2503740             -0.0145110
      0.9221670              0.0669570              0.3102630
      0.3412870              1.0545100              0.7544830
SP   1   1.00
      0.1171670              1.0000000              1.0000000
D    1   1.00
      1.3000000              1.0000000
D    1   1.00
      0.3250000              1.0000000
F    1   1.00
      0.5500000              1.0000000
****
Cl     0
S    6   1.00
  25180.1000000              0.0018330
   3780.3500000              0.0140340
    860.4740000              0.0690970
    242.1450000              0.2374520
     77.3349000              0.4830340
     26.2470000              0.3398560
SP   6   1.00
    491.7650000             -0.0022974              0.0039894
    116.9840000             -0.0307140              0.0303180
     37.4153000             -0.1125280              0.1298800
     13.7834000              0.0450160              0.3279510
      5.4521500              0.5893530              0.4535270
      2.2258800              0.4652060              0.2521540
SP   3   1.00
      3.1864900             -0.2518300             -0.0142990
      1.1442700              0.0615890              0.3235720
      0.4203770              1.0601800              0.7435070
SP   1   1.00
      0.1426570              1.0000000              1.0000000
D    1   1.00
      1.5000000              1.0000000
D    1   1.00
      0.3750000              1.0000000
F    1   1.00
      0.7000000              1.0000000
****
}

set {
reference uhf
freeze_core true
e_convergence 10
d_convergence 10
dft_spherical_points 1202
dft_radial_points 99
}

e = energy('b3lyp')

print_out('Grab this energy {0}'.format(e))
--------------------------------------------------------------------------

    Molecular point group: cs

    Geometry (in Bohr), charge = 0, multiplicity = 2:

       Center              X                  Y                   Z               Mass
    ------------   -----------------  -----------------  -----------------  -----------------
         C           -0.323244303816    -0.000699681284     0.000000000000    12.000000000000
         C            0.060981164384    -1.400325527984    -2.423769177500    12.000000000000
         C            0.061112981284     2.801917427616     0.000000000000    12.000000000000
         C            0.060981164384    -1.400325527984     2.423769177500    12.000000000000
         H            2.086948811884    -1.644853857784    -2.848252205700     1.007825032230
         H           -0.765057283916    -0.389189461384    -4.026129736800     1.007825032230
         H           -0.765327071316    -3.292656299084    -2.349836552000     1.007825032230
         H            2.086936280184     3.287444830816     0.000000000000     1.007825032230
         H           -0.765548499116     3.679603460316     1.676550347700     1.007825032230
         H           -0.765548499116     3.679603460316    -1.676550347700     1.007825032230
         H            2.086948811884    -1.644853857784     2.848252205700     1.007825032230
         H           -0.765327071316    -3.292656299084     2.349836552000     1.007825032230
         H           -0.765057283916    -0.389189461384     4.026129736800     1.007825032230

  Charge       = 0
  Multiplicity = 2
  Basis Set: ANONYMOUSA1272387
    Blend: 6-31G_2DFP_
  Basis Set: (ANONYMOUSA1272387 AUX)
    Blend: DEF2-UNIVERSAL-JKFIT

    Orbital Energies [Eh]
    ---------------------

    Alpha Occupied:

       1Ap   -10.180290     1App  -10.167104     2Ap   -10.167081
       3Ap   -10.167017     4Ap    -0.798023     5Ap    -0.686219
       2App   -0.686172     6Ap    -0.530942     7Ap    -0.441134
       3App   -0.434822     8Ap    -0.434657     9Ap    -0.382552
       4App   -0.382370     5App   -0.363411     6App   -0.338366
      10Ap    -0.337950    11Ap    -0.168982

    Alpha Virtual:

      12Ap     0.076065     7App    0.134080    13Ap     0.134115
      14Ap     0.142431     8App    0.142560    15Ap     0.154986
       9App    0.178530    16Ap     0.178695    17Ap     0.203835
      10App    0.214678    18Ap     0.276003    11App    0.276451
      19Ap     0.399208    12App    0.399235    20Ap     0.403255
      21Ap     0.424000    13App    0.424087    22Ap     0.456774
      23Ap     0.495357    14App    0.495402    15App    0.512105
      24Ap     0.513922    25Ap     0.578731    16App    0.578813
      17App    0.591475    26Ap     0.591595    27Ap     0.602530
      28Ap     0.624642    18App    0.631543    29Ap     0.636141
      19App    0.636471    30Ap     0.663465    20App    0.663589
      21App    0.683818    31Ap     0.683857    32Ap     0.734862
      22App    0.825372    33Ap     0.825485    23App    0.854052
      34Ap     0.914972    24App    0.914997    25App    0.944172
      35Ap     0.944925    26App    0.961185    36Ap     0.961267
      37Ap     1.003282    38Ap     1.128099    27App    1.128270
      39Ap     1.142644    40Ap     1.162369    28App    1.162951
      41Ap     1.223752    42Ap     1.274301    29App    1.274922
      43Ap     1.279535    44Ap     1.324494    30App    1.324622
      45Ap     1.356328    46Ap     1.366049    31App    1.366347
      32App    1.391956    33App    1.403160    47Ap     1.403497
      48Ap     1.416950    34App    1.417235    35App    1.427670
      36App    1.492014    49Ap     1.498497    50Ap     1.542916
      37App    1.543057    51Ap     1.574351    38App    1.574743
      52Ap     1.669037    39App    1.739786    53Ap     1.740057
      54Ap     1.768291    40App    1.830467    55Ap     1.831479
      41App    1.972328    56Ap     2.018033    57Ap     2.019293
      42App    2.020334    58Ap     2.052399    43App    2.053759
      44App    2.738539    59Ap     2.738782    60Ap     2.791146
      45App    2.811513    61Ap     2.889973    46App    2.890143
      62Ap     2.895354    63Ap     2.929271    47App    2.929403
      48App    2.958944    64Ap     2.964262    49App    2.964432
      65Ap     3.034182    50App    3.071090    66Ap     3.071374
      51App    3.084756    67Ap     3.168670    52App    3.169077
      68Ap     3.181200    69Ap     3.284972    53App    3.284994
      70Ap     3.327211    54App    3.327595    71Ap     3.375516
      72Ap     3.489920    55App    3.490564    56App    3.514162
      73Ap     3.525675    74Ap     3.568568    57App    3.568705
      58App    3.575005    59App    3.664912    75Ap     3.666247
      76Ap     3.679102    60App    3.693905    77Ap     3.694162
      78Ap     3.776663    61App    3.777053    79Ap     3.788827
      80Ap     3.912572    62App    3.914082    81Ap     4.035013
      82Ap     4.110946    63App    4.111245    83Ap     4.147811
      64App    4.148431    84Ap     4.173927    85Ap     4.203025
      86Ap     4.203858    65App    4.204132    66App    4.211216
      87Ap     4.315095    67App    4.316552    68App    4.358343
      88Ap     4.422362    69App    4.424112    70App    4.441576
      89Ap     4.516519    71App    4.517839    90Ap     4.578970
      72App    4.579010    91Ap     4.617914    92Ap     4.710736
      73App    4.775036    93Ap     4.775696    74App    4.838242
      94Ap     4.961521    75App    5.001366    95Ap     5.002828
      96Ap     5.227514    97Ap     5.246330    76App    5.246726
      98Ap     5.355592    77App    5.355735    78App    5.480566

    Beta Occupied:

       1App  -10.167860     1Ap   -10.167845     2Ap   -10.167781
       3Ap   -10.166478     4Ap    -0.781333     5Ap    -0.684022
       2App   -0.683964     6Ap    -0.511960     3App   -0.431175
       7Ap    -0.431007     8Ap    -0.421789     9Ap    -0.376641
       4App   -0.376419     5App   -0.362391     6App   -0.333504
      10Ap    -0.333087

    Beta Virtual:

      11Ap    -0.025913    12Ap     0.077077    13Ap     0.134992
       7App    0.134999    14Ap     0.144320     8App    0.144415
      15Ap     0.163487     9App    0.182229    16Ap     0.182369
      10App    0.214910    17Ap     0.219168    18Ap     0.282341
      11App    0.282770    19Ap     0.400388    12App    0.400408
      20Ap     0.419708    21Ap     0.426812    13App    0.426901
      22Ap     0.468759    23Ap     0.497619    14App    0.497677
      15App    0.513849    24Ap     0.556236    25Ap     0.584275
      16App    0.584368    17App    0.597646    26Ap     0.597765
      27Ap     0.609949    28Ap     0.628054    18App    0.631704
      29Ap     0.639449    19App    0.639767    30Ap     0.667025
      20App    0.667160    21App    0.686476    31Ap     0.686490
      32Ap     0.757309    22App    0.830551    33Ap     0.830674
      23App    0.855417    34Ap     0.922938    24App    0.922968
      25App    0.946016    35Ap     0.953866    26App    0.966503
      36Ap     0.966578    37Ap     1.008513    38Ap     1.132130
      27App    1.132286    39Ap     1.156054    40Ap     1.167417
      28App    1.168031    41Ap     1.232667    42Ap     1.279927
      29App    1.280556    43Ap     1.285264    44Ap     1.329519
      30App    1.329620    45Ap     1.365755    46Ap     1.371258
      31App    1.371498    32App    1.393023    33App    1.406708
      47Ap     1.406947    48Ap     1.422017    34App    1.422263
      35App    1.427934    36App    1.493074    49Ap     1.508961
      50Ap     1.547336    37App    1.547496    51Ap     1.582200
      38App    1.582601    52Ap     1.673879    39App    1.745541
      53Ap     1.745819    54Ap     1.779112    40App    1.834357
      55Ap     1.835349    41App    1.973194    56Ap     2.025705
      42App    2.026805    57Ap     2.039452    58Ap     2.059079
      43App    2.060435    44App    2.746866    59Ap     2.747064
      45App    2.811924    60Ap     2.816248    61Ap     2.902649
      46App    2.902769    62Ap     2.925092    63Ap     2.931801
      47App    2.931896    48App    2.960004    64Ap     2.968823
      49App    2.969022    65Ap     3.042160    50App    3.081048
      66Ap     3.081322    51App    3.086584    67Ap     3.184277
      52App    3.184749    68Ap     3.188888    53App    3.289815
      69Ap     3.289846    70Ap     3.331018    54App    3.331385
      71Ap     3.383367    72Ap     3.492637    55App    3.493324
      56App    3.512525    73Ap     3.528684    57App    3.574865
      74Ap     3.581819    58App    3.581995    59App    3.669461
      75Ap     3.670857    76Ap     3.692392    60App    3.725631
      77Ap     3.725907    78Ap     3.781206    61App    3.781683
      79Ap     3.817319    80Ap     3.922400    62App    3.923810
      81Ap     4.045822    82Ap     4.117756    63App    4.118256
      83Ap     4.155064    64App    4.155492    84Ap     4.188040
      85Ap     4.209208    65App    4.210073    86Ap     4.211612
      66App    4.215710    87Ap     4.322415    67App    4.323926
      68App    4.361727    88Ap     4.430678    69App    4.432324
      70App    4.444497    89Ap     4.524378    71App    4.525686
      90Ap     4.589573    72App    4.589647    91Ap     4.625127
      92Ap     4.721084    73App    4.782005    93Ap     4.782629
      74App    4.841157    94Ap     4.966338    75App    5.005442
      95Ap     5.006875    96Ap     5.233246    97Ap     5.248132
      76App    5.248513    98Ap     5.362080    77App    5.362265
      78App    5.482895

    Final Occupation by Irrep:
             Ap   App
    DOCC [    10,    6 ]
    SOCC [     1,    0 ]

  @DF-UKS Final Energy:  -157.81309193543504

   => Energetics <=

    Nuclear Repulsion Energy =            125.4225425266676268
    One-Electron Energy =                -458.8038480285889591
    Two-Electron Energy =                 195.8752402579055456
    DFT Exchange-Correlation Energy =     -20.3070266914192352
    Empirical Dispersion Energy =           0.0000000000000000
    VV10 Nonlocal Energy =                  0.0000000000000000
    Total Energy =                       -157.8130919354350397

  UHF NO Occupations:
  HONO-2 :    9 Ap 1.9995992
  HONO-1 :   10 Ap 1.9989827
  HONO-0 :   11 Ap 1.0000000
  LUNO+0 :   12 Ap 0.0010173
  LUNO+1 :   13 Ap 0.0004008
  LUNO+2 :   14 Ap 0.0001971
  LUNO+3 :    7App 0.0001964

Computation Completed

Properties will be evaluated at   0.000000,   0.000000,   0.000000 [a0]

Properties computed using the SCF density matrix

  Nuclear Dipole Moment: [e a0]
     X:     0.8280      Y:    -0.0033      Z:    -0.0000

  Electronic Dipole Moment: [e a0]
     X:    -0.7502      Y:     0.0034      Z:     0.0000

  Dipole Moment: [e a0]
     X:     0.0778      Y:     0.0001      Z:    -0.0000     Total:     0.0778

  Dipole Moment: [D]
     X:     0.1977      Y:     0.0002      Z:    -0.0000     Total:     0.1977

*** tstop() called on n070 at Fri Nov  5 12:55:04 2021
Module time:
	user time   =     575.26 seconds =       9.59 minutes
	system time =      13.33 seconds =       0.22 minutes
	total time  =        148 seconds =       2.47 minutes
Total time:
	user time   =     575.26 seconds =       9.59 minutes
	system time =      13.33 seconds =       0.22 minutes
	total time  =        148 seconds =       2.47 minutes
Grab this energy -157.81309193543504
    Psi4 stopped on: Friday, 05 November 2021 12:55PM
    Psi4 wall time for execution: 0:02:28.16

*** Psi4 exiting successfully. Buy a developer a beer!
