                               Psi4 1.4a2.dev629

  ==> Input File <==

--------------------------------------------------------------------------
import os
memory 14 GB

molecule {
 C   -0.3233371882   -0.0000013400   -0.0007745684
 C    0.0627526120   -1.4013682534   -2.4255784425
 C    0.0610208523    2.8017596675    0.0016540135
 C    0.0595319141   -1.4003845534    2.4271824451
 H    2.0896692277   -1.6456768519   -2.8527257994
 H   -0.7645740367   -0.3874277678   -4.0234561022
 H   -0.7639237296   -3.2902269499   -2.3459893551
 H    2.0867946502    3.2881054791   -0.0025527630
 H   -0.7648312248    3.6789242020    1.6767925767
 H   -0.7664625951    3.6815813335   -1.6762091846
 H    2.0841918317   -1.6425259226    2.8421626293
 H   -0.7672104847   -3.2937673786    2.3519855204
 H   -0.7662297055   -0.3890159782    4.0275090302
units bohr
0 2
}

basis {

assign 6-31g_2dfp_

[ 6-31g_2dfp_ ]

spherical

!----------------------------------------------------------------------
! Basis Set Exchange
! Version v0.8.13
! https://www.basissetexchange.org
!----------------------------------------------------------------------
!   Basis set: 6-31G(2df,p)
! Description: 6-31G(2df,p)
!        Role: orbital
!     Version: 0  (Data from the original Basis Set Exchange)
!----------------------------------------------------------------------

****
H     0
S    3   1.00
     18.7311370              0.03349460
      2.8253937              0.23472695
      0.6401217              0.81375733
S    1   1.00
      0.1612778              1.00000000
P    1   1.00
      1.5000000              1.0000000
P    1   1.00
      0.3750000              1.0000000
****
B     0
S    6   1.00
   2068.8823000              0.0018663
    310.6495700              0.0142515
     70.6830330              0.0695516
     19.8610800              0.2325729
      6.2993048              0.4670787
      2.1270270              0.3634314
SP   3   1.00
      4.7279710             -0.1303938              0.0745976
      1.1903377             -0.1307889              0.3078467
      0.3594117              1.1309444              0.7434568
SP   1   1.00
      0.1267512              1.0000000              1.0000000
D    1   1.00
      0.8020000              1.0000000
D    1   1.00
      0.2005000              1.0000000
F    1   1.00
      0.5000000              1.0000000
****
C     0
S    6   1.00
   3047.5249000              0.0018347
    457.3695100              0.0140373
    103.9486900              0.0688426
     29.2101550              0.2321844
      9.2866630              0.4679413
      3.1639270              0.3623120
SP   3   1.00
      7.8682724             -0.1193324              0.0689991
      1.8812885             -0.1608542              0.3164240
      0.5442493              1.1434564              0.7443083
SP   1   1.00
      0.1687144              1.0000000              1.0000000
D    1   1.00
      1.2520000              1.0000000
D    1   1.00
      0.3130000              1.0000000
F    1   1.00
      0.8000000              1.0000000
****
N     0
S    6   1.00
   4173.5110000              0.0018348
    627.4579000              0.0139950
    142.9021000              0.0685870
     40.2343300              0.2322410
     12.8202100              0.4690700
      4.3904370              0.3604550
SP   3   1.00
     11.6263580             -0.1149610              0.0675800
      2.7162800             -0.1691180              0.3239070
      0.7722180              1.1458520              0.7408950
SP   1   1.00
      0.2120313              1.0000000              1.0000000
D    1   1.00
      1.8260000              1.0000000
D    1   1.00
      0.4565000              1.0000000
F    1   1.00
      1.0000000              1.0000000
****
O     0
S    6   1.00
   5484.6717000              0.0018311
    825.2349500              0.0139501
    188.0469600              0.0684451
     52.9645000              0.2327143
     16.8975700              0.4701930
      5.7996353              0.3585209
SP   3   1.00
     15.5396160             -0.1107775              0.0708743
      3.5999336             -0.1480263              0.3397528
      1.0137618              1.1307670              0.7271586
SP   1   1.00
      0.2700058              1.0000000              1.0000000
D    1   1.00
      2.5840000              1.0000000
D    1   1.00
      0.6460000              1.0000000
F    1   1.00
      1.4000000              1.0000000
****
F     0
S    6   1.00
   7001.7130900              0.0018196169
   1051.3660900              0.0139160796
    239.2856900              0.0684053245
     67.3974453              0.233185760
     21.5199573              0.471267439
      7.40310130             0.356618546
SP   3   1.00
     20.8479528             -0.108506975            0.0716287243
      4.80830834            -0.146451658            0.3459121030
      1.34406986             1.128688580            0.7224699570
SP   1   1.00
      0.358151393            1.0000000              1.0000000
D    1   1.00
      3.5000000              1.0000000
D    1   1.00
      0.8750000              1.0000000
F    1   1.00
      1.8500000              1.0000000
****
Al     0
S    6   1.00
  13983.1000000              0.00194267
   2098.7500000              0.0148599
    477.7050000              0.0728494
    134.3600000              0.2468300
     42.8709000              0.4872580
     14.5189000              0.3234960
SP   6   1.00
    239.6680000             -0.00292619             0.00460285
     57.4419000             -0.0374080              0.0331990
     18.2859000             -0.1144870              0.1362820
      6.5991400              0.1156350              0.3304760
      2.4904900              0.6125950              0.4491460
      0.9445400              0.3937990              0.2657040
SP   3   1.00
      1.2779000             -0.2276060             -0.0175130
      0.3975900              0.00144583             0.2445330
      0.1600950              1.0927900              0.8049340
SP   1   1.00
      0.0556577              1.0000000              1.0000000
D    1   1.00
      0.6500000              1.0000000
D    1   1.00
      0.1625000              1.0000000
F    1   1.00
      0.2500000              1.0000000
****
Si     0
S    6   1.00
  16115.9000000              0.00195948
   2425.5800000              0.01492880
    553.8670000              0.07284780
    156.3400000              0.24613000
     50.0683000              0.48591400
     17.0178000              0.32500200
SP   6   1.00
    292.7180000             -0.00278094             0.00443826
     69.8731000             -0.03571460             0.03266790
     22.3363000             -0.11498500             0.13472100
      8.1503900              0.09356340             0.32867800
      3.1345800              0.60301700             0.44964000
      1.2254300              0.41895900             0.26137200
SP   3   1.00
      1.7273800             -0.24463000            -0.01779510
      0.5729220              0.00431572             0.25353900
      0.2221920              1.09818000             0.80066900
SP   1   1.00
      0.0778369              1.00000000             1.00000000
D    1   1.00
      0.9000000              1.0000000
D    1   1.00
      0.2250000              1.0000000
F    1   1.00
      0.3200000              1.0000000
****
P     0
S    6   1.00
  19413.3000000              0.0018516
   2909.4200000              0.0142062
    661.3640000              0.0699995
    185.7590000              0.2400790
     59.1943000              0.4847620
     20.0310000              0.3352000
SP   6   1.00
    339.4780000             -0.00278217             0.00456462
     81.0101000             -0.0360499              0.03369360
     25.8780000             -0.1166310              0.13975500
      9.4522100              0.0968328              0.33936200
      3.6656600              0.6144180              0.45092100
      1.4674600              0.4037980              0.23858600
SP   3   1.00
      2.1562300             -0.2529230             -0.01776530
      0.7489970              0.0328517              0.27405800
      0.2831450              1.0812500              0.78542100
SP   1   1.00
      0.0998317              1.0000000              1.00000000
D    1   1.00
      1.1000000              1.0000000
D    1   1.00
      0.2750000              1.0000000
F    1   1.00
      0.4500000              1.0000000
****
S     0
S    6   1.00
  21917.1000000              0.0018690
   3301.4900000              0.0142300
    754.1460000              0.0696960
    212.7110000              0.2384870
     67.9896000              0.4833070
     23.0515000              0.3380740
SP   6   1.00
    423.7350000             -0.0023767              0.0040610
    100.7100000             -0.0316930              0.0306810
     32.1599000             -0.1133170              0.1304520
     11.8079000              0.0560900              0.3272050
      4.6311000              0.5922550              0.4528510
      1.8702500              0.4550060              0.2560420
SP   3   1.00
      2.6158400             -0.2503740             -0.0145110
      0.9221670              0.0669570              0.3102630
      0.3412870              1.0545100              0.7544830
SP   1   1.00
      0.1171670              1.0000000              1.0000000
D    1   1.00
      1.3000000              1.0000000
D    1   1.00
      0.3250000              1.0000000
F    1   1.00
      0.5500000              1.0000000
****
Cl     0
S    6   1.00
  25180.1000000              0.0018330
   3780.3500000              0.0140340
    860.4740000              0.0690970
    242.1450000              0.2374520
     77.3349000              0.4830340
     26.2470000              0.3398560
SP   6   1.00
    491.7650000             -0.0022974              0.0039894
    116.9840000             -0.0307140              0.0303180
     37.4153000             -0.1125280              0.1298800
     13.7834000              0.0450160              0.3279510
      5.4521500              0.5893530              0.4535270
      2.2258800              0.4652060              0.2521540
SP   3   1.00
      3.1864900             -0.2518300             -0.0142990
      1.1442700              0.0615890              0.3235720
      0.4203770              1.0601800              0.7435070
SP   1   1.00
      0.1426570              1.0000000              1.0000000
D    1   1.00
      1.5000000              1.0000000
D    1   1.00
      0.3750000              1.0000000
F    1   1.00
      0.7000000              1.0000000
****
}

set {
reference uhf
freeze_core true
e_convergence 10
d_convergence 10
dft_spherical_points 1202
dft_radial_points 99
}

e = energy('b3lyp')

print_out('Grab this energy {0}'.format(e))
--------------------------------------------------------------------------

    Molecular point group: c1

    Geometry (in Bohr), charge = 0, multiplicity = 2:

       Center              X                  Y                   Z               Mass
    ------------   -----------------  -----------------  -----------------  -----------------
         C           -0.323338762774    -0.000001973963    -0.001252898314    12.000000000000
         C            0.062751037426    -1.401368887363    -2.426056772414    12.000000000000
         C            0.061019277726     2.801759033537     0.001175683586    12.000000000000
         C            0.059530339526    -1.400385187363     2.426704115186    12.000000000000
         H            2.089667653126    -1.645677485863    -2.853204129314     1.007825032230
         H           -0.764575611274    -0.387428401763    -4.023934432114     1.007825032230
         H           -0.763925304174    -3.290227583863    -2.346467685014     1.007825032230
         H            2.086793075626     3.288104845137    -0.003031092914     1.007825032230
         H           -0.764832799374     3.678923568037     1.676314246786     1.007825032230
         H           -0.766464169674     3.681580699537    -1.676687514514     1.007825032230
         H            2.084190257126    -1.642526556563     2.841684299386     1.007825032230
         H           -0.767212059274    -3.293768012563     2.351507190486     1.007825032230
         H           -0.766231280074    -0.389016612163     4.027030700286     1.007825032230

  Charge       = 0
  Multiplicity = 2
  Basis Set: ANONYMOUS8D9797D0
    Blend: 6-31G_2DFP_
  Basis Set: (ANONYMOUS8D9797D0 AUX)
    Blend: DEF2-UNIVERSAL-JKFIT

    Orbital Energies [Eh]
    ---------------------

    Alpha Occupied:

       1A    -10.180342     2A    -10.167032     3A    -10.167029
       4A    -10.166984     5A     -0.797766     6A     -0.686237
       7A     -0.686137     8A     -0.530776     9A     -0.441126
      10A     -0.434766    11A     -0.434576    12A     -0.382785
      13A     -0.382412    14A     -0.363610    15A     -0.338140
      16A     -0.337859    17A     -0.168960

    Alpha Virtual:

      18A      0.076072    19A      0.134145    20A      0.134166
      21A      0.142486    22A      0.142770    23A      0.154881
      24A      0.178590    25A      0.178961    26A      0.203550
      27A      0.214802    28A      0.275881    29A      0.276091
      30A      0.398994    31A      0.399463    32A      0.403343
      33A      0.423999    34A      0.424195    35A      0.456593
      36A      0.495365    37A      0.495413    38A      0.512161
      39A      0.513982    40A      0.578642    41A      0.578980
      42A      0.591391    43A      0.591865    44A      0.602594
      45A      0.624761    46A      0.631770    47A      0.636035
      48A      0.636470    49A      0.663283    50A      0.663542
      51A      0.683750    52A      0.683955    53A      0.734993
      54A      0.825344    55A      0.825469    56A      0.853916
      57A      0.914602    58A      0.915448    59A      0.944107
      60A      0.944612    61A      0.961280    62A      0.961328
      63A      1.003455    64A      1.127721    65A      1.128497
      66A      1.142219    67A      1.163129    68A      1.163406
      69A      1.223323    70A      1.274190    71A      1.274751
      72A      1.279386    73A      1.324341    74A      1.324370
      75A      1.355976    76A      1.365828    77A      1.366298
      78A      1.392444    79A      1.403801    80A      1.404296
      81A      1.417038    82A      1.417189    83A      1.427914
      84A      1.491502    85A      1.499061    86A      1.542656
      87A      1.543010    88A      1.573650    89A      1.575261
      90A      1.669826    91A      1.739366    92A      1.739420
      93A      1.768385    94A      1.831037    95A      1.831754
      96A      1.971732    97A      2.018138    98A      2.018656
      99A      2.019586   100A      2.051579   101A      2.053704
     102A      2.738451   103A      2.738523   104A      2.790927
     105A      2.811427   106A      2.889109   107A      2.890768
     108A      2.894978   109A      2.929354   110A      2.929635
     111A      2.958967   112A      2.964283   113A      2.964502
     114A      3.034002   115A      3.070773   116A      3.071794
     117A      3.084351   118A      3.168661   119A      3.168880
     120A      3.180602   121A      3.284981   122A      3.285651
     123A      3.326332   124A      3.327996   125A      3.375621
     126A      3.489130   127A      3.491180   128A      3.514008
     129A      3.525330   130A      3.568303   131A      3.568381
     132A      3.575246   133A      3.666161   134A      3.666631
     135A      3.679622   136A      3.693480   137A      3.694758
     138A      3.776739   139A      3.776868   140A      3.789151
     141A      3.911746   142A      3.912708   143A      4.034462
     144A      4.111021   145A      4.111720   146A      4.147947
     147A      4.148260   148A      4.173252   149A      4.202358
     150A      4.202892   151A      4.203568   152A      4.210842
     153A      4.315371   154A      4.316561   155A      4.358968
     156A      4.423802   157A      4.425091   158A      4.443437
     159A      4.516385   160A      4.517264   161A      4.577975
     162A      4.578585   163A      4.617575   164A      4.709409
     165A      4.773853   166A      4.775346   167A      4.836916
     168A      4.962864   169A      5.002124   170A      5.003779
     171A      5.228042   172A      5.246512   173A      5.247132
     174A      5.355431   175A      5.355574   176A      5.479356

    Beta Occupied:

       1A    -10.167784     2A    -10.167782     3A    -10.167758
       4A    -10.166520     5A     -0.781091     6A     -0.684042
       7A     -0.683937     8A     -0.511747     9A     -0.431157
      10A     -0.430931    11A     -0.421820    12A     -0.376870
      13A     -0.376498    14A     -0.362593    15A     -0.333274
      16A     -0.332971

    Beta Virtual:

      17A     -0.025743    18A      0.077081    19A      0.135037
      20A      0.135054    21A      0.144361    22A      0.144636
      23A      0.163339    24A      0.182269    25A      0.182626
      26A      0.215032    27A      0.218932    28A      0.282248
      29A      0.282420    30A      0.400167    31A      0.400629
      32A      0.419789    33A      0.426810    34A      0.427007
      35A      0.468501    36A      0.497630    37A      0.497670
      38A      0.513896    39A      0.556326    40A      0.584188
      41A      0.584536    42A      0.597575    43A      0.598040
      44A      0.610016    45A      0.628137    46A      0.631928
      47A      0.639319    48A      0.639756    49A      0.666834
      50A      0.667118    51A      0.686403    52A      0.686573
      53A      0.757516    54A      0.830518    55A      0.830632
      56A      0.855269    57A      0.922599    58A      0.923394
      59A      0.945945    60A      0.953539    61A      0.966590
      62A      0.966630    63A      1.008695    64A      1.131783
      65A      1.132492    66A      1.155597    67A      1.168179
      68A      1.168501    69A      1.232296    70A      1.279773
      71A      1.280359    72A      1.285143    73A      1.329335
      74A      1.329354    75A      1.365378    76A      1.371071
      77A      1.371556    78A      1.393502    79A      1.407271
      80A      1.407758    81A      1.422068    82A      1.422252
      83A      1.428188    84A      1.492550    85A      1.509501
      86A      1.546956    87A      1.547536    88A      1.581436
      89A      1.583210    90A      1.674673    91A      1.745134
      92A      1.745183    93A      1.779157    94A      1.834895
      95A      1.835607    96A      1.972591    97A      2.024977
      98A      2.025916    99A      2.039658   100A      2.058265
     101A      2.060457   102A      2.746805   103A      2.746841
     104A      2.811839   105A      2.816062   106A      2.901796
     107A      2.903481   108A      2.924661   109A      2.931880
     110A      2.932071   111A      2.960040   112A      2.968832
     113A      2.969030   114A      3.041937   115A      3.080648
     116A      3.081739   117A      3.086168   118A      3.184410
     119A      3.184598   120A      3.188316   121A      3.289773
     122A      3.290456   123A      3.330160   124A      3.331777
     125A      3.383439   126A      3.491898   127A      3.493872
     128A      3.512374   129A      3.528376   130A      3.574945
     131A      3.581571   132A      3.581950   133A      3.671017
     134A      3.671265   135A      3.692923   136A      3.725171
     137A      3.726338   138A      3.781237   139A      3.781429
     140A      3.817685   141A      3.921536   142A      3.922552
     143A      4.045349   144A      4.117865   145A      4.118509
     146A      4.155275   147A      4.155352   148A      4.187308
     149A      4.208592   150A      4.209340   151A      4.210730
     152A      4.215314   153A      4.322751   154A      4.324064
     155A      4.362330   156A      4.432004   157A      4.433310
     158A      4.446328   159A      4.524169   160A      4.525061
     161A      4.588583   162A      4.589180   163A      4.624768
     164A      4.719753   165A      4.780796   166A      4.782311
     167A      4.839833   168A      4.967658   169A      5.006178
     170A      5.007804   171A      5.233756   172A      5.248291
     173A      5.248924   174A      5.361899   175A      5.362067
     176A      5.481677

    Final Occupation by Irrep:
              A
    DOCC [    16 ]
    SOCC [     1 ]

  @DF-UKS Final Energy:  -157.81306709987916

   => Energetics <=

    Nuclear Repulsion Energy =            125.3946106009053665
    One-Electron Energy =                -458.7488777257368042
    Two-Electron Energy =                 195.8483427610050285
    DFT Exchange-Correlation Energy =     -20.3071427360527466
    Empirical Dispersion Energy =           0.0000000000000000
    VV10 Nonlocal Energy =                  0.0000000000000000
    Total Energy =                       -157.8130670998791629

  UHF NO Occupations:
  HONO-2 :   15  A 1.9996009
  HONO-1 :   16  A 1.9989805
  HONO-0 :   17  A 1.0000000
  LUNO+0 :   18  A 0.0010195
  LUNO+1 :   19  A 0.0003991
  LUNO+2 :   20  A 0.0001978
  LUNO+3 :   21  A 0.0001973

Computation Completed

Properties will be evaluated at   0.000000,   0.000000,   0.000000 [a0]

Properties computed using the SCF density matrix

  Nuclear Dipole Moment: [e a0]
     X:     0.8272      Y:    -0.0000      Z:    -0.0034

  Electronic Dipole Moment: [e a0]
     X:    -0.7493      Y:     0.0000      Z:     0.0041

  Dipole Moment: [e a0]
     X:     0.0779      Y:     0.0000      Z:     0.0007     Total:     0.0779

  Dipole Moment: [D]
     X:     0.1980      Y:     0.0000      Z:     0.0018     Total:     0.1980

*** tstop() called on n073 at Fri Nov  5 12:07:59 2021
Module time:
	user time   =     570.83 seconds =       9.51 minutes
	system time =      12.98 seconds =       0.22 minutes
	total time  =        147 seconds =       2.45 minutes
Total time:
	user time   =     570.83 seconds =       9.51 minutes
	system time =      12.98 seconds =       0.22 minutes
	total time  =        147 seconds =       2.45 minutes
Grab this energy -157.81306709987916
    Psi4 stopped on: Friday, 05 November 2021 12:07PM
    Psi4 wall time for execution: 0:02:26.80

*** Psi4 exiting successfully. Buy a developer a beer!
