                               Psi4 1.4a2.dev629

  ==> Input File <==

--------------------------------------------------------------------------
import os
memory 14 GB

molecule {
 C   -0.3233411107    0.0034498614    0.0000000000
 C    0.0611599938   -1.4017023030   -2.4268525990
 C    0.0609726242    2.8001145569   -0.0000000000
 C    0.0611599938   -1.4017023030    2.4268525990
 H    2.0882589357   -1.6458556547   -2.8458900976
 H   -0.7606851293   -0.3874916074   -4.0303255560
 H   -0.7686512012   -3.2887055560   -2.3497025628
 H    2.0841456182    3.2890178903   -0.0000000000
 H   -0.7672751032    3.6774518100    1.6766460689
 H   -0.7672751032    3.6774518100   -1.6766460689
 H    2.0882589357   -1.6458556547    2.8458900976
 H   -0.7686512012   -3.2887055560    2.3497025628
 H   -0.7606851293   -0.3874916074    4.0303255560
units bohr
0 2
}

basis {

assign 6-31g_2dfp_

[ 6-31g_2dfp_ ]

spherical

!----------------------------------------------------------------------
! Basis Set Exchange
! Version v0.8.13
! https://www.basissetexchange.org
!----------------------------------------------------------------------
!   Basis set: 6-31G(2df,p)
! Description: 6-31G(2df,p)
!        Role: orbital
!     Version: 0  (Data from the original Basis Set Exchange)
!----------------------------------------------------------------------

****
H     0
S    3   1.00
     18.7311370              0.03349460
      2.8253937              0.23472695
      0.6401217              0.81375733
S    1   1.00
      0.1612778              1.00000000
P    1   1.00
      1.5000000              1.0000000
P    1   1.00
      0.3750000              1.0000000
****
B     0
S    6   1.00
   2068.8823000              0.0018663
    310.6495700              0.0142515
     70.6830330              0.0695516
     19.8610800              0.2325729
      6.2993048              0.4670787
      2.1270270              0.3634314
SP   3   1.00
      4.7279710             -0.1303938              0.0745976
      1.1903377             -0.1307889              0.3078467
      0.3594117              1.1309444              0.7434568
SP   1   1.00
      0.1267512              1.0000000              1.0000000
D    1   1.00
      0.8020000              1.0000000
D    1   1.00
      0.2005000              1.0000000
F    1   1.00
      0.5000000              1.0000000
****
C     0
S    6   1.00
   3047.5249000              0.0018347
    457.3695100              0.0140373
    103.9486900              0.0688426
     29.2101550              0.2321844
      9.2866630              0.4679413
      3.1639270              0.3623120
SP   3   1.00
      7.8682724             -0.1193324              0.0689991
      1.8812885             -0.1608542              0.3164240
      0.5442493              1.1434564              0.7443083
SP   1   1.00
      0.1687144              1.0000000              1.0000000
D    1   1.00
      1.2520000              1.0000000
D    1   1.00
      0.3130000              1.0000000
F    1   1.00
      0.8000000              1.0000000
****
N     0
S    6   1.00
   4173.5110000              0.0018348
    627.4579000              0.0139950
    142.9021000              0.0685870
     40.2343300              0.2322410
     12.8202100              0.4690700
      4.3904370              0.3604550
SP   3   1.00
     11.6263580             -0.1149610              0.0675800
      2.7162800             -0.1691180              0.3239070
      0.7722180              1.1458520              0.7408950
SP   1   1.00
      0.2120313              1.0000000              1.0000000
D    1   1.00
      1.8260000              1.0000000
D    1   1.00
      0.4565000              1.0000000
F    1   1.00
      1.0000000              1.0000000
****
O     0
S    6   1.00
   5484.6717000              0.0018311
    825.2349500              0.0139501
    188.0469600              0.0684451
     52.9645000              0.2327143
     16.8975700              0.4701930
      5.7996353              0.3585209
SP   3   1.00
     15.5396160             -0.1107775              0.0708743
      3.5999336             -0.1480263              0.3397528
      1.0137618              1.1307670              0.7271586
SP   1   1.00
      0.2700058              1.0000000              1.0000000
D    1   1.00
      2.5840000              1.0000000
D    1   1.00
      0.6460000              1.0000000
F    1   1.00
      1.4000000              1.0000000
****
F     0
S    6   1.00
   7001.7130900              0.0018196169
   1051.3660900              0.0139160796
    239.2856900              0.0684053245
     67.3974453              0.233185760
     21.5199573              0.471267439
      7.40310130             0.356618546
SP   3   1.00
     20.8479528             -0.108506975            0.0716287243
      4.80830834            -0.146451658            0.3459121030
      1.34406986             1.128688580            0.7224699570
SP   1   1.00
      0.358151393            1.0000000              1.0000000
D    1   1.00
      3.5000000              1.0000000
D    1   1.00
      0.8750000              1.0000000
F    1   1.00
      1.8500000              1.0000000
****
Al     0
S    6   1.00
  13983.1000000              0.00194267
   2098.7500000              0.0148599
    477.7050000              0.0728494
    134.3600000              0.2468300
     42.8709000              0.4872580
     14.5189000              0.3234960
SP   6   1.00
    239.6680000             -0.00292619             0.00460285
     57.4419000             -0.0374080              0.0331990
     18.2859000             -0.1144870              0.1362820
      6.5991400              0.1156350              0.3304760
      2.4904900              0.6125950              0.4491460
      0.9445400              0.3937990              0.2657040
SP   3   1.00
      1.2779000             -0.2276060             -0.0175130
      0.3975900              0.00144583             0.2445330
      0.1600950              1.0927900              0.8049340
SP   1   1.00
      0.0556577              1.0000000              1.0000000
D    1   1.00
      0.6500000              1.0000000
D    1   1.00
      0.1625000              1.0000000
F    1   1.00
      0.2500000              1.0000000
****
Si     0
S    6   1.00
  16115.9000000              0.00195948
   2425.5800000              0.01492880
    553.8670000              0.07284780
    156.3400000              0.24613000
     50.0683000              0.48591400
     17.0178000              0.32500200
SP   6   1.00
    292.7180000             -0.00278094             0.00443826
     69.8731000             -0.03571460             0.03266790
     22.3363000             -0.11498500             0.13472100
      8.1503900              0.09356340             0.32867800
      3.1345800              0.60301700             0.44964000
      1.2254300              0.41895900             0.26137200
SP   3   1.00
      1.7273800             -0.24463000            -0.01779510
      0.5729220              0.00431572             0.25353900
      0.2221920              1.09818000             0.80066900
SP   1   1.00
      0.0778369              1.00000000             1.00000000
D    1   1.00
      0.9000000              1.0000000
D    1   1.00
      0.2250000              1.0000000
F    1   1.00
      0.3200000              1.0000000
****
P     0
S    6   1.00
  19413.3000000              0.0018516
   2909.4200000              0.0142062
    661.3640000              0.0699995
    185.7590000              0.2400790
     59.1943000              0.4847620
     20.0310000              0.3352000
SP   6   1.00
    339.4780000             -0.00278217             0.00456462
     81.0101000             -0.0360499              0.03369360
     25.8780000             -0.1166310              0.13975500
      9.4522100              0.0968328              0.33936200
      3.6656600              0.6144180              0.45092100
      1.4674600              0.4037980              0.23858600
SP   3   1.00
      2.1562300             -0.2529230             -0.01776530
      0.7489970              0.0328517              0.27405800
      0.2831450              1.0812500              0.78542100
SP   1   1.00
      0.0998317              1.0000000              1.00000000
D    1   1.00
      1.1000000              1.0000000
D    1   1.00
      0.2750000              1.0000000
F    1   1.00
      0.4500000              1.0000000
****
S     0
S    6   1.00
  21917.1000000              0.0018690
   3301.4900000              0.0142300
    754.1460000              0.0696960
    212.7110000              0.2384870
     67.9896000              0.4833070
     23.0515000              0.3380740
SP   6   1.00
    423.7350000             -0.0023767              0.0040610
    100.7100000             -0.0316930              0.0306810
     32.1599000             -0.1133170              0.1304520
     11.8079000              0.0560900              0.3272050
      4.6311000              0.5922550              0.4528510
      1.8702500              0.4550060              0.2560420
SP   3   1.00
      2.6158400             -0.2503740             -0.0145110
      0.9221670              0.0669570              0.3102630
      0.3412870              1.0545100              0.7544830
SP   1   1.00
      0.1171670              1.0000000              1.0000000
D    1   1.00
      1.3000000              1.0000000
D    1   1.00
      0.3250000              1.0000000
F    1   1.00
      0.5500000              1.0000000
****
Cl     0
S    6   1.00
  25180.1000000              0.0018330
   3780.3500000              0.0140340
    860.4740000              0.0690970
    242.1450000              0.2374520
     77.3349000              0.4830340
     26.2470000              0.3398560
SP   6   1.00
    491.7650000             -0.0022974              0.0039894
    116.9840000             -0.0307140              0.0303180
     37.4153000             -0.1125280              0.1298800
     13.7834000              0.0450160              0.3279510
      5.4521500              0.5893530              0.4535270
      2.2258800              0.4652060              0.2521540
SP   3   1.00
      3.1864900             -0.2518300             -0.0142990
      1.1442700              0.0615890              0.3235720
      0.4203770              1.0601800              0.7435070
SP   1   1.00
      0.1426570              1.0000000              1.0000000
D    1   1.00
      1.5000000              1.0000000
D    1   1.00
      0.3750000              1.0000000
F    1   1.00
      0.7000000              1.0000000
****
}

set {
reference uhf
freeze_core true
e_convergence 10
d_convergence 10
dft_spherical_points 1202
dft_radial_points 99
}

e = energy('b3lyp')

print_out('Grab this energy {0}'.format(e))
--------------------------------------------------------------------------

    Molecular point group: cs

    Geometry (in Bohr), charge = 0, multiplicity = 2:

       Center              X                  Y                   Z               Mass
    ------------   -----------------  -----------------  -----------------  -----------------
         C           -0.323339470832     0.003419509762     0.000000000000    12.000000000000
         C            0.061161633668    -1.401732654638    -2.426852599000    12.000000000000
         C            0.060974264068     2.800084205262     0.000000000000    12.000000000000
         C            0.061161633668    -1.401732654638     2.426852599000    12.000000000000
         H            2.088260575568    -1.645886006338    -2.845890097600     1.007825032230
         H           -0.760683489432    -0.387521959038    -4.030325556000     1.007825032230
         H           -0.768649561332    -3.288735907638    -2.349702562800     1.007825032230
         H            2.084147258068     3.288987538662     0.000000000000     1.007825032230
         H           -0.767273463332     3.677421458362     1.676646068900     1.007825032230
         H           -0.767273463332     3.677421458362    -1.676646068900     1.007825032230
         H            2.088260575568    -1.645886006338     2.845890097600     1.007825032230
         H           -0.768649561332    -3.288735907638     2.349702562800     1.007825032230
         H           -0.760683489432    -0.387521959038     4.030325556000     1.007825032230

  Charge       = 0
  Multiplicity = 2
  Basis Set: ANONYMOUSB71C9806
    Blend: 6-31G_2DFP_
  Basis Set: (ANONYMOUSB71C9806 AUX)
    Blend: DEF2-UNIVERSAL-JKFIT

    Orbital Energies [Eh]
    ---------------------

    Alpha Occupied:

       1Ap   -10.180341     1App  -10.167123     2Ap   -10.167094
       3Ap   -10.166827     4Ap    -0.797768     5Ap    -0.686409
       2App   -0.685965     6Ap    -0.530776     7Ap    -0.441128
       3App   -0.434753     8Ap    -0.434589     9Ap    -0.382680
       4App   -0.382520     5App   -0.363605    10Ap    -0.338441
       6App   -0.337556    11Ap    -0.168960

    Alpha Virtual:

      12Ap     0.076072     7App    0.134056    13Ap     0.134255
       8App    0.142576    14Ap     0.142678    15Ap     0.154879
      16Ap     0.178725     9App    0.178829    17Ap     0.203545
      10App    0.214804    11App    0.275522    18Ap     0.276448
      12App    0.399115    19Ap     0.399330    20Ap     0.403355
      13App    0.424068    21Ap     0.424129    22Ap     0.456592
      23Ap     0.495304    14App    0.495475    15App    0.512160
      24Ap     0.513978    16App    0.578587    25Ap     0.579042
      17App    0.591389    26Ap     0.591877    27Ap     0.602577
      28Ap     0.624758    18App    0.631778    19App    0.636155
      29Ap     0.636350    20App    0.663119    30Ap     0.663706
      31Ap     0.683821    21App    0.683889    32Ap     0.734994
      22App    0.825379    33Ap     0.825435    23App    0.853916
      24App    0.914997    34Ap     0.915055    25App    0.944123
      35Ap     0.944614    26App    0.961183    36Ap     0.961403
      37Ap     1.003454    38Ap     1.128023    27App    1.128170
      39Ap     1.142235    40Ap     1.163113    28App    1.163426
      41Ap     1.223333    29App    1.274125    42Ap     1.274840
      43Ap     1.279370    30App    1.324178    44Ap     1.324537
      45Ap     1.355998    31App    1.365987    46Ap     1.366119
      32App    1.392401    33App    1.403518    47Ap     1.404608
      34App    1.416607    48Ap     1.417640    35App    1.427906
      36App    1.491495    49Ap     1.499089    37App    1.542523
      50Ap     1.543135    51Ap     1.573906    38App    1.574985
      52Ap     1.669818    39App    1.739051    53Ap     1.739789
      54Ap     1.768313    40App    1.831045    55Ap     1.831750
      41App    1.971739    56Ap     2.017807    57Ap     2.019126
      42App    2.019424    43App    2.052283    58Ap     2.053035
      44App    2.738381    59Ap     2.738585    60Ap     2.790928
      45App    2.811419    46App    2.888875    61Ap     2.890958
      62Ap     2.895020    63Ap     2.929492    47App    2.929504
      48App    2.958989    64Ap     2.963811    49App    2.964950
      65Ap     3.034008    50App    3.070853    66Ap     3.071724
      51App    3.084347    67Ap     3.168617    52App    3.168854
      68Ap     3.180681    53App    3.285050    69Ap     3.285581
      54App    3.326769    70Ap     3.327552    71Ap     3.375611
      55App    3.489866    72Ap     3.490444    56App    3.514013
      73Ap     3.525314    57App    3.567656    74Ap     3.569136
      58App    3.575140    59App    3.666385    75Ap     3.666388
      76Ap     3.679622    60App    3.693771    77Ap     3.694498
      78Ap     3.775441    61App    3.778153    79Ap     3.789156
      62App    3.911385    80Ap     3.913069    81Ap     4.034444
      63App    4.110570    82Ap     4.112166    64App    4.147378
      83Ap     4.148852    84Ap     4.173257    85Ap     4.202402
      65App    4.202559    86Ap     4.203826    66App    4.210868
      67App    4.314654    87Ap     4.317270    68App    4.358961
      88Ap     4.423392    69App    4.425515    70App    4.443431
      71App    4.515893    89Ap     4.517775    72App    4.577347
      90Ap     4.579180    91Ap     4.617516    92Ap     4.709475
      93Ap     4.773911    73App    4.775356    74App    4.836912
      94Ap     4.962832    75App    5.002598    95Ap     5.003322
      96Ap     5.228011    76App    5.246692    97Ap     5.246966
      77App    5.354535    98Ap     5.356490    78App    5.479365

    Beta Occupied:

       1App  -10.167875     1Ap   -10.167857     2Ap   -10.167592
       3Ap   -10.166518     4Ap    -0.781093     5Ap    -0.684197
       2App   -0.683781     6Ap    -0.511747     3App   -0.431138
       7Ap    -0.430949     8Ap    -0.421823     9Ap    -0.376761
       4App   -0.376612     5App   -0.362588    10Ap    -0.333563
       6App   -0.332680

    Beta Virtual:

      11Ap    -0.025742    12Ap     0.077081     7App    0.134930
      13Ap     0.135161     8App    0.144475    14Ap     0.144520
      15Ap     0.163337    16Ap     0.182417     9App    0.182481
      10App    0.215033    17Ap     0.218927    11App    0.281895
      18Ap     0.282771    12App    0.400289    19Ap     0.400504
      20Ap     0.419790    13App    0.426866    21Ap     0.426955
      22Ap     0.468500    23Ap     0.497574    14App    0.497726
      15App    0.513895    24Ap     0.556322    16App    0.584125
      25Ap     0.584606    17App    0.597579    26Ap     0.598046
      27Ap     0.609996    28Ap     0.628137    18App    0.631934
      19App    0.639424    29Ap     0.639653    20App    0.666689
      30Ap     0.667263    31Ap     0.686467    21App    0.686514
      32Ap     0.757517    22App    0.830572    33Ap     0.830579
      23App    0.855269    24App    0.922965    34Ap     0.923030
      25App    0.945960    35Ap     0.953543    26App    0.966469
      36Ap     0.966730    37Ap     1.008694    38Ap     1.132016
      27App    1.132240    39Ap     1.155609    40Ap     1.168238
      28App    1.168446    41Ap     1.232304    29App    1.279690
      42Ap     1.280457    43Ap     1.285136    30App    1.329169
      44Ap     1.329525    45Ap     1.365413    31App    1.371296
      46Ap     1.371298    32App    1.393463    33App    1.406945
      47Ap     1.408110    34App    1.421682    48Ap     1.422662
      35App    1.428174    36App    1.492544    49Ap     1.509533
      37App    1.546949    50Ap     1.547523    51Ap     1.581831
      38App    1.582806    52Ap     1.674667    39App    1.744800
      53Ap     1.745564    54Ap     1.779089    40App    1.834891
      55Ap     1.835615    41App    1.972599    56Ap     2.025078
      42App    2.025765    57Ap     2.039683    43App    2.059054
      58Ap     2.059706    44App    2.746695    59Ap     2.746942
      45App    2.811833    60Ap     2.816063    46App    2.901632
      61Ap     2.903639    62Ap     2.924657    47App    2.931950
      63Ap     2.932017    48App    2.960054    64Ap     2.968384
      49App    2.969463    65Ap     3.041941    50App    3.080796
      66Ap     3.081601    51App    3.086164    67Ap     3.184249
      52App    3.184557    68Ap     3.188529    53App    3.289876
      69Ap     3.290351    54App    3.330593    70Ap     3.331337
      71Ap     3.383430    55App    3.492559    72Ap     3.493210
      56App    3.512381    73Ap     3.528361    57App    3.575000
      58App    3.580975    74Ap     3.582488    59App    3.670921
      75Ap     3.671366    76Ap     3.692921    60App    3.725739
      77Ap     3.725768    78Ap     3.780094    61App    3.782575
      79Ap     3.817679    62App    3.921225    80Ap     3.922868
      81Ap     4.045331    63App    4.117387    82Ap     4.118979
      64App    4.154690    83Ap     4.155961    84Ap     4.187313
      65App    4.208475    85Ap     4.209297    86Ap     4.210858
      66App    4.215343    67App    4.322029    87Ap     4.324775
      68App    4.362324    88Ap     4.431633    69App    4.433707
      70App    4.446312    71App    4.523708    89Ap     4.525539
      72App    4.587968    90Ap     4.589756    91Ap     4.624716
      92Ap     4.719821    93Ap     4.780926    73App    4.782249
      74App    4.839830    94Ap     4.967626    75App    5.006620
      95Ap     5.007380    96Ap     5.233724    76App    5.248496
      97Ap     5.248733    77App    5.360975    98Ap     5.363011
      78App    5.481687

    Final Occupation by Irrep:
             Ap   App
    DOCC [    10,    6 ]
    SOCC [     1,    0 ]

  @DF-UKS Final Energy:  -157.81306308583214

   => Energetics <=

    Nuclear Repulsion Energy =            125.3946759386181640
    One-Electron Energy =                -458.7489966895558382
    Two-Electron Energy =                 195.8484038465238086
    DFT Exchange-Correlation Energy =     -20.3071461814182470
    Empirical Dispersion Energy =           0.0000000000000000
    VV10 Nonlocal Energy =                  0.0000000000000000
    Total Energy =                       -157.8130630858321410

  UHF NO Occupations:
  HONO-2 :    9 Ap 1.9996009
  HONO-1 :   10 Ap 1.9989805
  HONO-0 :   11 Ap 1.0000000
  LUNO+0 :   12 Ap 0.0010195
  LUNO+1 :   13 Ap 0.0003991
  LUNO+2 :    7App 0.0001985
  LUNO+3 :   14 Ap 0.0001966

Computation Completed

Properties will be evaluated at   0.000000,   0.000000,   0.000000 [a0]

Properties computed using the SCF density matrix

  Nuclear Dipole Moment: [e a0]
     X:     0.8272      Y:    -0.0002      Z:     0.0000

  Electronic Dipole Moment: [e a0]
     X:    -0.7493      Y:     0.0002      Z:     0.0000

  Dipole Moment: [e a0]
     X:     0.0779      Y:     0.0000      Z:     0.0000     Total:     0.0779

  Dipole Moment: [D]
     X:     0.1980      Y:     0.0001      Z:     0.0000     Total:     0.1980

*** tstop() called on n041 at Fri Nov  5 11:58:04 2021
Module time:
	user time   =     878.90 seconds =      14.65 minutes
	system time =      17.24 seconds =       0.29 minutes
	total time  =        225 seconds =       3.75 minutes
Total time:
	user time   =     878.90 seconds =      14.65 minutes
	system time =      17.24 seconds =       0.29 minutes
	total time  =        225 seconds =       3.75 minutes
Grab this energy -157.81306308583214
    Psi4 stopped on: Friday, 05 November 2021 11:58AM
    Psi4 wall time for execution: 0:03:45.05

*** Psi4 exiting successfully. Buy a developer a beer!
