                               Psi4 1.4a2.dev629

  ==> Input File <==

--------------------------------------------------------------------------
import os
memory 14 GB

molecule {
 C   -0.3233326121   -0.0004916989   -0.0049991192
 C    0.0599301303   -1.4073057559   -2.4306295074
 C    0.0623951980    2.8016487378    0.0062294816
 C    0.0609769172   -1.3950553982    2.4218742563
 H    2.0883253051   -1.6528985594   -2.8512259738
 H   -0.7669348195   -0.3988247684   -4.0321421774
 H   -0.7677807345   -3.2959872037   -2.3497842681
 H    2.0826704355    3.2885641797    0.0111398626
 H   -0.7665047784    3.6725770728    1.6890505987
 H   -0.7609758891    3.6877832621   -1.6701668050
 H    2.0896743843   -1.6353121315    2.8430583974
 H   -0.7631946955   -3.2844415287    2.3493570150
 H   -0.7678567178   -0.3802805213    4.0182382393
units bohr
0 2
}

basis {

assign 6-31g_2dfp_

[ 6-31g_2dfp_ ]

spherical

!----------------------------------------------------------------------
! Basis Set Exchange
! Version v0.8.13
! https://www.basissetexchange.org
!----------------------------------------------------------------------
!   Basis set: 6-31G(2df,p)
! Description: 6-31G(2df,p)
!        Role: orbital
!     Version: 0  (Data from the original Basis Set Exchange)
!----------------------------------------------------------------------

****
H     0
S    3   1.00
     18.7311370              0.03349460
      2.8253937              0.23472695
      0.6401217              0.81375733
S    1   1.00
      0.1612778              1.00000000
P    1   1.00
      1.5000000              1.0000000
P    1   1.00
      0.3750000              1.0000000
****
B     0
S    6   1.00
   2068.8823000              0.0018663
    310.6495700              0.0142515
     70.6830330              0.0695516
     19.8610800              0.2325729
      6.2993048              0.4670787
      2.1270270              0.3634314
SP   3   1.00
      4.7279710             -0.1303938              0.0745976
      1.1903377             -0.1307889              0.3078467
      0.3594117              1.1309444              0.7434568
SP   1   1.00
      0.1267512              1.0000000              1.0000000
D    1   1.00
      0.8020000              1.0000000
D    1   1.00
      0.2005000              1.0000000
F    1   1.00
      0.5000000              1.0000000
****
C     0
S    6   1.00
   3047.5249000              0.0018347
    457.3695100              0.0140373
    103.9486900              0.0688426
     29.2101550              0.2321844
      9.2866630              0.4679413
      3.1639270              0.3623120
SP   3   1.00
      7.8682724             -0.1193324              0.0689991
      1.8812885             -0.1608542              0.3164240
      0.5442493              1.1434564              0.7443083
SP   1   1.00
      0.1687144              1.0000000              1.0000000
D    1   1.00
      1.2520000              1.0000000
D    1   1.00
      0.3130000              1.0000000
F    1   1.00
      0.8000000              1.0000000
****
N     0
S    6   1.00
   4173.5110000              0.0018348
    627.4579000              0.0139950
    142.9021000              0.0685870
     40.2343300              0.2322410
     12.8202100              0.4690700
      4.3904370              0.3604550
SP   3   1.00
     11.6263580             -0.1149610              0.0675800
      2.7162800             -0.1691180              0.3239070
      0.7722180              1.1458520              0.7408950
SP   1   1.00
      0.2120313              1.0000000              1.0000000
D    1   1.00
      1.8260000              1.0000000
D    1   1.00
      0.4565000              1.0000000
F    1   1.00
      1.0000000              1.0000000
****
O     0
S    6   1.00
   5484.6717000              0.0018311
    825.2349500              0.0139501
    188.0469600              0.0684451
     52.9645000              0.2327143
     16.8975700              0.4701930
      5.7996353              0.3585209
SP   3   1.00
     15.5396160             -0.1107775              0.0708743
      3.5999336             -0.1480263              0.3397528
      1.0137618              1.1307670              0.7271586
SP   1   1.00
      0.2700058              1.0000000              1.0000000
D    1   1.00
      2.5840000              1.0000000
D    1   1.00
      0.6460000              1.0000000
F    1   1.00
      1.4000000              1.0000000
****
F     0
S    6   1.00
   7001.7130900              0.0018196169
   1051.3660900              0.0139160796
    239.2856900              0.0684053245
     67.3974453              0.233185760
     21.5199573              0.471267439
      7.40310130             0.356618546
SP   3   1.00
     20.8479528             -0.108506975            0.0716287243
      4.80830834            -0.146451658            0.3459121030
      1.34406986             1.128688580            0.7224699570
SP   1   1.00
      0.358151393            1.0000000              1.0000000
D    1   1.00
      3.5000000              1.0000000
D    1   1.00
      0.8750000              1.0000000
F    1   1.00
      1.8500000              1.0000000
****
Al     0
S    6   1.00
  13983.1000000              0.00194267
   2098.7500000              0.0148599
    477.7050000              0.0728494
    134.3600000              0.2468300
     42.8709000              0.4872580
     14.5189000              0.3234960
SP   6   1.00
    239.6680000             -0.00292619             0.00460285
     57.4419000             -0.0374080              0.0331990
     18.2859000             -0.1144870              0.1362820
      6.5991400              0.1156350              0.3304760
      2.4904900              0.6125950              0.4491460
      0.9445400              0.3937990              0.2657040
SP   3   1.00
      1.2779000             -0.2276060             -0.0175130
      0.3975900              0.00144583             0.2445330
      0.1600950              1.0927900              0.8049340
SP   1   1.00
      0.0556577              1.0000000              1.0000000
D    1   1.00
      0.6500000              1.0000000
D    1   1.00
      0.1625000              1.0000000
F    1   1.00
      0.2500000              1.0000000
****
Si     0
S    6   1.00
  16115.9000000              0.00195948
   2425.5800000              0.01492880
    553.8670000              0.07284780
    156.3400000              0.24613000
     50.0683000              0.48591400
     17.0178000              0.32500200
SP   6   1.00
    292.7180000             -0.00278094             0.00443826
     69.8731000             -0.03571460             0.03266790
     22.3363000             -0.11498500             0.13472100
      8.1503900              0.09356340             0.32867800
      3.1345800              0.60301700             0.44964000
      1.2254300              0.41895900             0.26137200
SP   3   1.00
      1.7273800             -0.24463000            -0.01779510
      0.5729220              0.00431572             0.25353900
      0.2221920              1.09818000             0.80066900
SP   1   1.00
      0.0778369              1.00000000             1.00000000
D    1   1.00
      0.9000000              1.0000000
D    1   1.00
      0.2250000              1.0000000
F    1   1.00
      0.3200000              1.0000000
****
P     0
S    6   1.00
  19413.3000000              0.0018516
   2909.4200000              0.0142062
    661.3640000              0.0699995
    185.7590000              0.2400790
     59.1943000              0.4847620
     20.0310000              0.3352000
SP   6   1.00
    339.4780000             -0.00278217             0.00456462
     81.0101000             -0.0360499              0.03369360
     25.8780000             -0.1166310              0.13975500
      9.4522100              0.0968328              0.33936200
      3.6656600              0.6144180              0.45092100
      1.4674600              0.4037980              0.23858600
SP   3   1.00
      2.1562300             -0.2529230             -0.01776530
      0.7489970              0.0328517              0.27405800
      0.2831450              1.0812500              0.78542100
SP   1   1.00
      0.0998317              1.0000000              1.00000000
D    1   1.00
      1.1000000              1.0000000
D    1   1.00
      0.2750000              1.0000000
F    1   1.00
      0.4500000              1.0000000
****
S     0
S    6   1.00
  21917.1000000              0.0018690
   3301.4900000              0.0142300
    754.1460000              0.0696960
    212.7110000              0.2384870
     67.9896000              0.4833070
     23.0515000              0.3380740
SP   6   1.00
    423.7350000             -0.0023767              0.0040610
    100.7100000             -0.0316930              0.0306810
     32.1599000             -0.1133170              0.1304520
     11.8079000              0.0560900              0.3272050
      4.6311000              0.5922550              0.4528510
      1.8702500              0.4550060              0.2560420
SP   3   1.00
      2.6158400             -0.2503740             -0.0145110
      0.9221670              0.0669570              0.3102630
      0.3412870              1.0545100              0.7544830
SP   1   1.00
      0.1171670              1.0000000              1.0000000
D    1   1.00
      1.3000000              1.0000000
D    1   1.00
      0.3250000              1.0000000
F    1   1.00
      0.5500000              1.0000000
****
Cl     0
S    6   1.00
  25180.1000000              0.0018330
   3780.3500000              0.0140340
    860.4740000              0.0690970
    242.1450000              0.2374520
     77.3349000              0.4830340
     26.2470000              0.3398560
SP   6   1.00
    491.7650000             -0.0022974              0.0039894
    116.9840000             -0.0307140              0.0303180
     37.4153000             -0.1125280              0.1298800
     13.7834000              0.0450160              0.3279510
      5.4521500              0.5893530              0.4535270
      2.2258800              0.4652060              0.2521540
SP   3   1.00
      3.1864900             -0.2518300             -0.0142990
      1.1442700              0.0615890              0.3235720
      0.4203770              1.0601800              0.7435070
SP   1   1.00
      0.1426570              1.0000000              1.0000000
D    1   1.00
      1.5000000              1.0000000
D    1   1.00
      0.3750000              1.0000000
F    1   1.00
      0.7000000              1.0000000
****
}

set {
reference uhf
freeze_core true
e_convergence 10
d_convergence 10
dft_spherical_points 1202
dft_radial_points 99
}

e = energy('b3lyp')

print_out('Grab this energy {0}'.format(e))
--------------------------------------------------------------------------

    Molecular point group: c1

    Geometry (in Bohr), charge = 0, multiplicity = 2:

       Center              X                  Y                   Z               Mass
    ------------   -----------------  -----------------  -----------------  -----------------
         C           -0.323334464647    -0.000259348278    -0.003549771437    12.000000000000
         C            0.059928277753    -1.407073405278    -2.429180159637    12.000000000000
         C            0.062393345453     2.801881088422     0.007678829363    12.000000000000
         C            0.060975064653    -1.394823047578     2.423323604063    12.000000000000
         H            2.088323452553    -1.652666208778    -2.849776626037     1.007825032230
         H           -0.766936672047    -0.398592417778    -4.030692829637     1.007825032230
         H           -0.767782587047    -3.295754853078    -2.348334920337     1.007825032230
         H            2.082668582953     3.288796530322     0.012589210363     1.007825032230
         H           -0.766506630947     3.672809423422     1.690499946463     1.007825032230
         H           -0.760977741647     3.688015612722    -1.668717457237     1.007825032230
         H            2.089672531753    -1.635079780878     2.844507745163     1.007825032230
         H           -0.763196548047    -3.284209178078     2.350806362763     1.007825032230
         H           -0.767858570347    -0.380048170678     4.019687587063     1.007825032230

  Charge       = 0
  Multiplicity = 2
  Basis Set: ANONYMOUS623A13E7
    Blend: 6-31G_2DFP_
  Basis Set: (ANONYMOUS623A13E7 AUX)
    Blend: DEF2-UNIVERSAL-JKFIT

    Orbital Energies [Eh]
    ---------------------

    Alpha Occupied:

       1A    -10.180342     2A    -10.167300     3A    -10.166990
       4A    -10.166756     5A     -0.797770     6A     -0.686407
       7A     -0.685966     8A     -0.530778     9A     -0.441129
      10A     -0.434934    11A     -0.434406    12A     -0.382744
      13A     -0.382451    14A     -0.363610    15A     -0.338274
      16A     -0.337722    17A     -0.168961

    Alpha Virtual:

      18A      0.076071    19A      0.133863    20A      0.134444
      21A      0.142475    22A      0.142777    23A      0.154881
      24A      0.178539    25A      0.179021    26A      0.203545
      27A      0.214808    28A      0.275801    29A      0.276172
      30A      0.399053    31A      0.399337    32A      0.403414
      33A      0.423942    34A      0.424262    35A      0.456594
      36A      0.494962    37A      0.495806    38A      0.512173
      39A      0.513989    40A      0.578501    41A      0.579105
      42A      0.591485    43A      0.591781    44A      0.602585
      45A      0.624767    46A      0.631749    47A      0.636007
      48A      0.636511    49A      0.662986    50A      0.663853
      51A      0.683559    52A      0.684155    53A      0.734994
      54A      0.824565    55A      0.826229    56A      0.853920
      57A      0.914693    58A      0.915360    59A      0.944052
      60A      0.944515    61A      0.961080    62A      0.961716
      63A      1.003469    64A      1.126951    65A      1.129287
      66A      1.142206    67A      1.162766    68A      1.163774
      69A      1.223334    70A      1.273934    71A      1.275047
      72A      1.279365    73A      1.324264    74A      1.324444
      75A      1.355959    76A      1.365292    77A      1.366753
      78A      1.392434    79A      1.403155    80A      1.405031
      81A      1.416405    82A      1.417845    83A      1.427930
      84A      1.491431    85A      1.499062    86A      1.542237
      87A      1.543451    88A      1.572636    89A      1.576364
      90A      1.669815    91A      1.738280    92A      1.740482
      93A      1.768382    94A      1.830452    95A      1.832354
      96A      1.971710    97A      2.017522    98A      2.018247
      99A      2.020597   100A      2.049979   101A      2.055427
     102A      2.737995   103A      2.738975   104A      2.790922
     105A      2.811438   106A      2.889820   107A      2.890050
     108A      2.894970   109A      2.929319   110A      2.929669
     111A      2.958991   112A      2.963440   113A      2.965343
     114A      3.034020   115A      3.070256   116A      3.072279
     117A      3.084392   118A      3.167998   119A      3.169605
     120A      3.180574   121A      3.284521   122A      3.286094
     123A      3.326187   124A      3.328144   125A      3.375672
     126A      3.489637   127A      3.490603   128A      3.514034
     129A      3.525301   130A      3.567231   131A      3.569403
     132A      3.575392   133A      3.665667   134A      3.667113
     135A      3.679652   136A      3.693653   137A      3.694572
     138A      3.775975   139A      3.777535   140A      3.789302
     141A      3.910800   142A      3.913665   143A      4.034457
     144A      4.109926   145A      4.112813   146A      4.146350
     147A      4.149802   148A      4.173217   149A      4.200839
     150A      4.202947   151A      4.204966   152A      4.210996
     153A      4.315135   154A      4.316820   155A      4.359003
     156A      4.424008   157A      4.424805   158A      4.443539
     159A      4.515743   160A      4.517980   161A      4.577180
     162A      4.579339   163A      4.617562   164A      4.709442
     165A      4.773211   166A      4.775995   167A      4.836938
     168A      4.962864   169A      5.001730   170A      5.004182
     171A      5.227991   172A      5.244737   173A      5.248896
     174A      5.354123   175A      5.356946   176A      5.479358

    Beta Occupied:

       1A    -10.168057     2A    -10.167747     3A    -10.167521
       4A    -10.166519     5A     -0.781095     6A     -0.684214
       7A     -0.683765     8A     -0.511750     9A     -0.431319
      10A     -0.430770    11A     -0.421820    12A     -0.376844
      13A     -0.376522    14A     -0.362594    15A     -0.333400
      16A     -0.332841

    Beta Virtual:

      17A     -0.025744    18A      0.077080    19A      0.134750
      20A      0.135339    21A      0.144360    22A      0.144634
      23A      0.163338    24A      0.182194    25A      0.182708
      26A      0.215037    27A      0.218927    28A      0.282137
      29A      0.282532    30A      0.400274    31A      0.400513
      32A      0.419798    33A      0.426740    34A      0.427088
      35A      0.468505    36A      0.497216    37A      0.498077
      38A      0.513908    39A      0.556329    40A      0.584085
      41A      0.584624    42A      0.597638    43A      0.597987
      44A      0.610001    45A      0.628149    46A      0.631916
      47A      0.639275    48A      0.639803    49A      0.666562
      50A      0.667404    51A      0.686159    52A      0.686826
      53A      0.757517    54A      0.829722    55A      0.831407
      56A      0.855274    57A      0.922660    58A      0.923333
      59A      0.945912    60A      0.953429    61A      0.966338
      62A      0.967068    63A      1.008706    64A      1.130989
      65A      1.133307    66A      1.155575    67A      1.167797
      68A      1.168898    69A      1.232303    70A      1.279523
      71A      1.280651    72A      1.285121    73A      1.329240
      74A      1.329447    75A      1.365369    76A      1.370431
      77A      1.372097    78A      1.393497    79A      1.406629
      80A      1.408497    81A      1.421436    82A      1.422907
      83A      1.428203    84A      1.492483    85A      1.509505
      86A      1.546584    87A      1.547914    88A      1.580656
      89A      1.584091    90A      1.674661    91A      1.744054
      92A      1.746240    93A      1.779153    94A      1.834293
      95A      1.836226    96A      1.972574    97A      2.023879
      98A      2.027005    99A      2.039642   100A      2.056793
     101A      2.062054   102A      2.746312   103A      2.747330
     104A      2.811850   105A      2.816057   106A      2.902541
     107A      2.902729   108A      2.924650   109A      2.931884
     110A      2.932070   111A      2.960059   112A      2.968008
     113A      2.969864   114A      3.041953   115A      3.079963
     116A      3.082270   117A      3.086341   118A      3.183791
     119A      3.185285   120A      3.188268   121A      3.289376
     122A      3.290840   123A      3.329981   124A      3.331962
     125A      3.383487   126A      3.492385   127A      3.493309
     128A      3.512411   129A      3.528355   130A      3.574768
     131A      3.580735   132A      3.583055   133A      3.670362
     134A      3.671914   135A      3.692950   136A      3.725315
     137A      3.726159   138A      3.780502   139A      3.782147
     140A      3.817762   141A      3.920614   142A      3.923483
     143A      4.045344   144A      4.116751   145A      4.119615
     146A      4.153634   147A      4.156947   148A      4.187268
     149A      4.206882   150A      4.210603   151A      4.211107
     152A      4.215483   153A      4.322574   154A      4.324259
     155A      4.362366   156A      4.432189   157A      4.433011
     158A      4.446468   159A      4.523601   160A      4.525694
     161A      4.587701   162A      4.590019   163A      4.624756
     164A      4.719788   165A      4.780128   166A      4.782982
     167A      4.839857   168A      4.967658   169A      5.005781
     170A      5.008210   171A      5.233702   172A      5.246536
     173A      5.250671   174A      5.360586   175A      5.363443
     176A      5.481679

    Final Occupation by Irrep:
              A
    DOCC [    16 ]
    SOCC [     1 ]

  @DF-UKS Final Energy:  -157.81305417040176

   => Energetics <=

    Nuclear Repulsion Energy =            125.3948812828072761
    One-Electron Energy =                -458.7493842916768472
    Two-Electron Energy =                 195.8485974315181579
    DFT Exchange-Correlation Energy =     -20.3071485930503357
    Empirical Dispersion Energy =           0.0000000000000000
    VV10 Nonlocal Energy =                  0.0000000000000000
    Total Energy =                       -157.8130541704017560

  UHF NO Occupations:
  HONO-2 :   15  A 1.9996008
  HONO-1 :   16  A 1.9989804
  HONO-0 :   17  A 1.0000000
  LUNO+0 :   18  A 0.0010196
  LUNO+1 :   19  A 0.0003992
  LUNO+2 :   20  A 0.0001979
  LUNO+3 :   21  A 0.0001972

Computation Completed

Properties will be evaluated at   0.000000,   0.000000,   0.000000 [a0]

Properties computed using the SCF density matrix

  Nuclear Dipole Moment: [e a0]
     X:     0.8272      Y:     0.0016      Z:     0.0102

  Electronic Dipole Moment: [e a0]
     X:    -0.7493      Y:    -0.0023      Z:    -0.0109

  Dipole Moment: [e a0]
     X:     0.0779      Y:    -0.0007      Z:    -0.0007     Total:     0.0779

  Dipole Moment: [D]
     X:     0.1980      Y:    -0.0017      Z:    -0.0019     Total:     0.1980

*** tstop() called on n089 at Fri Nov  5 14:21:26 2021
Module time:
	user time   =     508.87 seconds =       8.48 minutes
	system time =       4.62 seconds =       0.08 minutes
	total time  =        129 seconds =       2.15 minutes
Total time:
	user time   =     508.87 seconds =       8.48 minutes
	system time =       4.62 seconds =       0.08 minutes
	total time  =        129 seconds =       2.15 minutes
Grab this energy -157.81305417040176
    Psi4 stopped on: Friday, 05 November 2021 02:21PM
    Psi4 wall time for execution: 0:02:09.12

*** Psi4 exiting successfully. Buy a developer a beer!
