                               Psi4 1.4a2.dev629

  ==> Input File <==

--------------------------------------------------------------------------
import os
memory 14 GB

molecule {
 C   -0.3201729012   -0.0000024366    0.0002570254
 C    0.0642425186   -1.4004511642   -2.4264106094
 C    0.0623460963    2.8015784503   -0.0007691596
 C    0.0606907202   -1.4011239392    2.4260371037
 H    2.0864327442   -1.6440676079   -2.8471554902
 H   -0.7670556724   -0.3889245691   -4.0253594721
 H   -0.7670846576   -3.2916637107   -2.3494165974
 H    2.0864672620    3.2878358772    0.0002346768
 H   -0.7665374102    3.6804519789    1.6762607444
 H   -0.7668056597    3.6805375258   -1.6759340660
 H    2.0867813471   -1.6438596587    2.8472649259
 H   -0.7661048159   -3.2918764155    2.3493775366
 H   -0.7658074482   -0.3884586438    4.0256133817
units bohr
0 2
}

basis {

assign 6-31g_2dfp_

[ 6-31g_2dfp_ ]

spherical

!----------------------------------------------------------------------
! Basis Set Exchange
! Version v0.8.13
! https://www.basissetexchange.org
!----------------------------------------------------------------------
!   Basis set: 6-31G(2df,p)
! Description: 6-31G(2df,p)
!        Role: orbital
!     Version: 0  (Data from the original Basis Set Exchange)
!----------------------------------------------------------------------

****
H     0
S    3   1.00
     18.7311370              0.03349460
      2.8253937              0.23472695
      0.6401217              0.81375733
S    1   1.00
      0.1612778              1.00000000
P    1   1.00
      1.5000000              1.0000000
P    1   1.00
      0.3750000              1.0000000
****
B     0
S    6   1.00
   2068.8823000              0.0018663
    310.6495700              0.0142515
     70.6830330              0.0695516
     19.8610800              0.2325729
      6.2993048              0.4670787
      2.1270270              0.3634314
SP   3   1.00
      4.7279710             -0.1303938              0.0745976
      1.1903377             -0.1307889              0.3078467
      0.3594117              1.1309444              0.7434568
SP   1   1.00
      0.1267512              1.0000000              1.0000000
D    1   1.00
      0.8020000              1.0000000
D    1   1.00
      0.2005000              1.0000000
F    1   1.00
      0.5000000              1.0000000
****
C     0
S    6   1.00
   3047.5249000              0.0018347
    457.3695100              0.0140373
    103.9486900              0.0688426
     29.2101550              0.2321844
      9.2866630              0.4679413
      3.1639270              0.3623120
SP   3   1.00
      7.8682724             -0.1193324              0.0689991
      1.8812885             -0.1608542              0.3164240
      0.5442493              1.1434564              0.7443083
SP   1   1.00
      0.1687144              1.0000000              1.0000000
D    1   1.00
      1.2520000              1.0000000
D    1   1.00
      0.3130000              1.0000000
F    1   1.00
      0.8000000              1.0000000
****
N     0
S    6   1.00
   4173.5110000              0.0018348
    627.4579000              0.0139950
    142.9021000              0.0685870
     40.2343300              0.2322410
     12.8202100              0.4690700
      4.3904370              0.3604550
SP   3   1.00
     11.6263580             -0.1149610              0.0675800
      2.7162800             -0.1691180              0.3239070
      0.7722180              1.1458520              0.7408950
SP   1   1.00
      0.2120313              1.0000000              1.0000000
D    1   1.00
      1.8260000              1.0000000
D    1   1.00
      0.4565000              1.0000000
F    1   1.00
      1.0000000              1.0000000
****
O     0
S    6   1.00
   5484.6717000              0.0018311
    825.2349500              0.0139501
    188.0469600              0.0684451
     52.9645000              0.2327143
     16.8975700              0.4701930
      5.7996353              0.3585209
SP   3   1.00
     15.5396160             -0.1107775              0.0708743
      3.5999336             -0.1480263              0.3397528
      1.0137618              1.1307670              0.7271586
SP   1   1.00
      0.2700058              1.0000000              1.0000000
D    1   1.00
      2.5840000              1.0000000
D    1   1.00
      0.6460000              1.0000000
F    1   1.00
      1.4000000              1.0000000
****
F     0
S    6   1.00
   7001.7130900              0.0018196169
   1051.3660900              0.0139160796
    239.2856900              0.0684053245
     67.3974453              0.233185760
     21.5199573              0.471267439
      7.40310130             0.356618546
SP   3   1.00
     20.8479528             -0.108506975            0.0716287243
      4.80830834            -0.146451658            0.3459121030
      1.34406986             1.128688580            0.7224699570
SP   1   1.00
      0.358151393            1.0000000              1.0000000
D    1   1.00
      3.5000000              1.0000000
D    1   1.00
      0.8750000              1.0000000
F    1   1.00
      1.8500000              1.0000000
****
Al     0
S    6   1.00
  13983.1000000              0.00194267
   2098.7500000              0.0148599
    477.7050000              0.0728494
    134.3600000              0.2468300
     42.8709000              0.4872580
     14.5189000              0.3234960
SP   6   1.00
    239.6680000             -0.00292619             0.00460285
     57.4419000             -0.0374080              0.0331990
     18.2859000             -0.1144870              0.1362820
      6.5991400              0.1156350              0.3304760
      2.4904900              0.6125950              0.4491460
      0.9445400              0.3937990              0.2657040
SP   3   1.00
      1.2779000             -0.2276060             -0.0175130
      0.3975900              0.00144583             0.2445330
      0.1600950              1.0927900              0.8049340
SP   1   1.00
      0.0556577              1.0000000              1.0000000
D    1   1.00
      0.6500000              1.0000000
D    1   1.00
      0.1625000              1.0000000
F    1   1.00
      0.2500000              1.0000000
****
Si     0
S    6   1.00
  16115.9000000              0.00195948
   2425.5800000              0.01492880
    553.8670000              0.07284780
    156.3400000              0.24613000
     50.0683000              0.48591400
     17.0178000              0.32500200
SP   6   1.00
    292.7180000             -0.00278094             0.00443826
     69.8731000             -0.03571460             0.03266790
     22.3363000             -0.11498500             0.13472100
      8.1503900              0.09356340             0.32867800
      3.1345800              0.60301700             0.44964000
      1.2254300              0.41895900             0.26137200
SP   3   1.00
      1.7273800             -0.24463000            -0.01779510
      0.5729220              0.00431572             0.25353900
      0.2221920              1.09818000             0.80066900
SP   1   1.00
      0.0778369              1.00000000             1.00000000
D    1   1.00
      0.9000000              1.0000000
D    1   1.00
      0.2250000              1.0000000
F    1   1.00
      0.3200000              1.0000000
****
P     0
S    6   1.00
  19413.3000000              0.0018516
   2909.4200000              0.0142062
    661.3640000              0.0699995
    185.7590000              0.2400790
     59.1943000              0.4847620
     20.0310000              0.3352000
SP   6   1.00
    339.4780000             -0.00278217             0.00456462
     81.0101000             -0.0360499              0.03369360
     25.8780000             -0.1166310              0.13975500
      9.4522100              0.0968328              0.33936200
      3.6656600              0.6144180              0.45092100
      1.4674600              0.4037980              0.23858600
SP   3   1.00
      2.1562300             -0.2529230             -0.01776530
      0.7489970              0.0328517              0.27405800
      0.2831450              1.0812500              0.78542100
SP   1   1.00
      0.0998317              1.0000000              1.00000000
D    1   1.00
      1.1000000              1.0000000
D    1   1.00
      0.2750000              1.0000000
F    1   1.00
      0.4500000              1.0000000
****
S     0
S    6   1.00
  21917.1000000              0.0018690
   3301.4900000              0.0142300
    754.1460000              0.0696960
    212.7110000              0.2384870
     67.9896000              0.4833070
     23.0515000              0.3380740
SP   6   1.00
    423.7350000             -0.0023767              0.0040610
    100.7100000             -0.0316930              0.0306810
     32.1599000             -0.1133170              0.1304520
     11.8079000              0.0560900              0.3272050
      4.6311000              0.5922550              0.4528510
      1.8702500              0.4550060              0.2560420
SP   3   1.00
      2.6158400             -0.2503740             -0.0145110
      0.9221670              0.0669570              0.3102630
      0.3412870              1.0545100              0.7544830
SP   1   1.00
      0.1171670              1.0000000              1.0000000
D    1   1.00
      1.3000000              1.0000000
D    1   1.00
      0.3250000              1.0000000
F    1   1.00
      0.5500000              1.0000000
****
Cl     0
S    6   1.00
  25180.1000000              0.0018330
   3780.3500000              0.0140340
    860.4740000              0.0690970
    242.1450000              0.2374520
     77.3349000              0.4830340
     26.2470000              0.3398560
SP   6   1.00
    491.7650000             -0.0022974              0.0039894
    116.9840000             -0.0307140              0.0303180
     37.4153000             -0.1125280              0.1298800
     13.7834000              0.0450160              0.3279510
      5.4521500              0.5893530              0.4535270
      2.2258800              0.4652060              0.2521540
SP   3   1.00
      3.1864900             -0.2518300             -0.0142990
      1.1442700              0.0615890              0.3235720
      0.4203770              1.0601800              0.7435070
SP   1   1.00
      0.1426570              1.0000000              1.0000000
D    1   1.00
      1.5000000              1.0000000
D    1   1.00
      0.3750000              1.0000000
F    1   1.00
      0.7000000              1.0000000
****
}

set {
reference uhf
freeze_core true
e_convergence 10
d_convergence 10
dft_spherical_points 1202
dft_radial_points 99
}

e = energy('b3lyp')

print_out('Grab this energy {0}'.format(e))
--------------------------------------------------------------------------

    Molecular point group: c1

    Geometry (in Bohr), charge = 0, multiplicity = 2:

       Center              X                  Y                   Z               Mass
    ------------   -----------------  -----------------  -----------------  -----------------
         C           -0.321549352921    -0.000002182570     0.000427606027    12.000000000000
         C            0.062866066879    -1.400450910170    -2.426240028773    12.000000000000
         C            0.060969644579     2.801578704330    -0.000598578973    12.000000000000
         C            0.059314268479    -1.401123685170     2.426207684327    12.000000000000
         H            2.085056292479    -1.644067353870    -2.846984909573     1.007825032230
         H           -0.768432124121    -0.388924315070    -4.025188891473     1.007825032230
         H           -0.768461109321    -3.291663456670    -2.349246016773     1.007825032230
         H            2.085090810279     3.287836131230     0.000405257427     1.007825032230
         H           -0.767913861921     3.680452232930     1.676431325027     1.007825032230
         H           -0.768182111421     3.680537779830    -1.675763485373     1.007825032230
         H            2.085404895379    -1.643859404670     2.847435506527     1.007825032230
         H           -0.767481267621    -3.291876161470     2.349548117227     1.007825032230
         H           -0.767183899921    -0.388458389770     4.025783962327     1.007825032230

  Charge       = 0
  Multiplicity = 2
  Basis Set: ANONYMOUSC382B555
    Blend: 6-31G_2DFP_
  Basis Set: (ANONYMOUSC382B555 AUX)
    Blend: DEF2-UNIVERSAL-JKFIT

    Orbital Energies [Eh]
    ---------------------

    Alpha Occupied:

       1A    -10.180229     2A    -10.167027     3A    -10.166996
       4A    -10.166950     5A     -0.797820     6A     -0.686232
       7A     -0.686166     8A     -0.530754     9A     -0.441361
      10A     -0.434625    11A     -0.434424    12A     -0.382997
      13A     -0.382697    14A     -0.363330    15A     -0.338033
      16A     -0.337865    17A     -0.168846

    Alpha Virtual:

      18A      0.076056    19A      0.134115    20A      0.134181
      21A      0.142485    22A      0.142609    23A      0.154944
      24A      0.178769    25A      0.178998    26A      0.203593
      27A      0.214670    28A      0.276069    29A      0.276179
      30A      0.399088    31A      0.399402    32A      0.403387
      33A      0.424054    34A      0.424151    35A      0.456597
      36A      0.495310    37A      0.495367    38A      0.512265
      39A      0.513975    40A      0.578642    41A      0.578813
      42A      0.591817    43A      0.592059    44A      0.602883
      45A      0.624619    46A      0.631635    47A      0.636010
      48A      0.636223    49A      0.663415    50A      0.663755
      51A      0.683679    52A      0.683977    53A      0.735123
      54A      0.825567    55A      0.825594    56A      0.853869
      57A      0.915171    58A      0.915213    59A      0.944230
      60A      0.944630    61A      0.961122    62A      0.961276
      63A      1.002573    64A      1.127775    65A      1.127967
      66A      1.142592    67A      1.163321    68A      1.163532
      69A      1.223741    70A      1.274635    71A      1.274916
      72A      1.279506    73A      1.323986    74A      1.324496
      75A      1.357019    76A      1.365401    77A      1.366014
      78A      1.392373    79A      1.404560    80A      1.404791
      81A      1.417423    82A      1.418018    83A      1.428095
      84A      1.491029    85A      1.499584    86A      1.542391
      87A      1.542455    88A      1.574236    89A      1.574516
      90A      1.669293    91A      1.739221    92A      1.740034
      93A      1.768534    94A      1.830876    95A      1.831265
      96A      1.971170    97A      2.018448    98A      2.018834
      99A      2.019979   100A      2.052636   101A      2.053396
     102A      2.738775   103A      2.738856   104A      2.791146
     105A      2.811150   106A      2.889858   107A      2.890403
     108A      2.894906   109A      2.929315   110A      2.929383
     111A      2.958833   112A      2.964300   113A      2.964510
     114A      3.034050   115A      3.071780   116A      3.072022
     117A      3.084296   118A      3.168677   119A      3.168924
     120A      3.180388   121A      3.284928   122A      3.285000
     123A      3.326084   124A      3.326382   125A      3.375916
     126A      3.490042   127A      3.490662   128A      3.514476
     129A      3.525168   130A      3.568699   131A      3.568920
     132A      3.575599   133A      3.666100   134A      3.666703
     135A      3.678620   136A      3.694392   137A      3.694430
     138A      3.777635   139A      3.777734   140A      3.790437
     141A      3.912038   142A      3.912200   143A      4.035628
     144A      4.110914   145A      4.111088   146A      4.147844
     147A      4.147953   148A      4.173374   149A      4.202834
     150A      4.203308   151A      4.203667   152A      4.210943
     153A      4.315728   154A      4.316596   155A      4.358869
     156A      4.424942   157A      4.425184   158A      4.442549
     159A      4.515666   160A      4.517771   161A      4.577976
     162A      4.578393   163A      4.618361   164A      4.709892
     165A      4.774332   166A      4.775348   167A      4.837142
     168A      4.962794   169A      5.003199   170A      5.004098
     171A      5.228133   172A      5.246770   173A      5.246814
     174A      5.354805   175A      5.355322   176A      5.479860

    Beta Occupied:

       1A    -10.167784     2A    -10.167753     3A    -10.167717
       4A    -10.166404     5A     -0.781129     6A     -0.684031
       7A     -0.683965     8A     -0.511721     9A     -0.430991
      10A     -0.430780    11A     -0.422063    12A     -0.377103
      13A     -0.376785    14A     -0.362312    15A     -0.333160
      16A     -0.332989

    Beta Virtual:

      17A     -0.025594    18A      0.077063    19A      0.134980
      20A      0.135030    21A      0.144369    22A      0.144484
      23A      0.163371    24A      0.182450    25A      0.182681
      26A      0.214903    27A      0.218998    28A      0.282408
      29A      0.282512    30A      0.400253    31A      0.400570
      32A      0.419771    33A      0.426866    34A      0.426969
      35A      0.468569    36A      0.497574    37A      0.497623
      38A      0.513995    39A      0.556368    40A      0.584206
      41A      0.584368    42A      0.597975    43A      0.598227
      44A      0.610281    45A      0.628027    46A      0.631791
      47A      0.639313    48A      0.639527    49A      0.666967
      50A      0.667276    51A      0.686314    52A      0.686617
      53A      0.757640    54A      0.830717    55A      0.830740
      56A      0.855220    57A      0.923140    58A      0.923179
      59A      0.946067    60A      0.953594    61A      0.966439
      62A      0.966607    63A      1.007764    64A      1.131871
      65A      1.132137    66A      1.155961    67A      1.168380
      68A      1.168496    69A      1.232721    70A      1.280211
      71A      1.280501    72A      1.285267    73A      1.328907
      74A      1.329438    75A      1.366452    76A      1.370639
      77A      1.371254    78A      1.393419    79A      1.408031
      80A      1.408290    81A      1.422503    82A      1.423066
      83A      1.428382    84A      1.492073    85A      1.510048
      86A      1.546692    87A      1.546764    88A      1.582257
      89A      1.582435    90A      1.674155    91A      1.744982
      92A      1.745781    93A      1.779307    94A      1.834738
      95A      1.835127    96A      1.972032    97A      2.025147
      98A      2.026413    99A      2.039933   100A      2.059353
     101A      2.060059   102A      2.747113   103A      2.747184
     104A      2.811562   105A      2.816334   106A      2.902541
     107A      2.903070   108A      2.924701   109A      2.931822
     110A      2.931885   111A      2.959894   112A      2.968833
     113A      2.969034   114A      3.041946   115A      3.081665
     116A      3.081895   117A      3.086119   118A      3.184524
     119A      3.184727   120A      3.188011   121A      3.289781
     122A      3.289832   123A      3.329857   124A      3.330184
     125A      3.383772   126A      3.492765   127A      3.493383
     128A      3.512837   129A      3.528251   130A      3.575464
     131A      3.582032   132A      3.582129   133A      3.670977
     134A      3.671459   135A      3.691935   136A      3.725875
     137A      3.726160   138A      3.782133   139A      3.782212
     140A      3.818957   141A      3.921837   142A      3.922031
     143A      4.046504   144A      4.117804   145A      4.117874
     146A      4.154991   147A      4.155188   148A      4.187407
     149A      4.209120   150A      4.209479   151A      4.211076
     152A      4.215380   153A      4.323155   154A      4.324072
     155A      4.362220   156A      4.433109   157A      4.433328
     158A      4.445460   159A      4.523461   160A      4.525554
     161A      4.588616   162A      4.589003   163A      4.625628
     164A      4.720146   165A      4.781327   166A      4.782306
     167A      4.840062   168A      4.967573   169A      5.007244
     170A      5.008107   171A      5.233880   172A      5.248563
     173A      5.248609   174A      5.361304   175A      5.361819
     176A      5.482183

    Final Occupation by Irrep:
              A
    DOCC [    16 ]
    SOCC [     1 ]

  @DF-UKS Final Energy:  -157.81307364356368

   => Energetics <=

    Nuclear Repulsion Energy =            125.4033498825327797
    One-Electron Energy =                -458.7664668753983506
    Two-Electron Energy =                 195.8574411313823873
    DFT Exchange-Correlation Energy =     -20.3073977820804963
    Empirical Dispersion Energy =           0.0000000000000000
    VV10 Nonlocal Energy =                  0.0000000000000000
    Total Energy =                       -157.8130736435636834

  UHF NO Occupations:
  HONO-2 :   15  A 1.9996019
  HONO-1 :   16  A 1.9989796
  HONO-0 :   17  A 1.0000000
  LUNO+0 :   18  A 0.0010204
  LUNO+1 :   19  A 0.0003981
  LUNO+2 :   20  A 0.0001976
  LUNO+3 :   21  A 0.0001973

Computation Completed

Properties will be evaluated at   0.000000,   0.000000,   0.000000 [a0]

Properties computed using the SCF density matrix

  Nuclear Dipole Moment: [e a0]
     X:     0.8175      Y:    -0.0000      Z:     0.0012

  Electronic Dipole Moment: [e a0]
     X:    -0.7395      Y:     0.0000      Z:    -0.0011

  Dipole Moment: [e a0]
     X:     0.0780      Y:     0.0000      Z:     0.0001     Total:     0.0780

  Dipole Moment: [D]
     X:     0.1983      Y:     0.0000      Z:     0.0003     Total:     0.1983

*** tstop() called on n073 at Fri Nov  5 12:16:53 2021
Module time:
	user time   =     663.52 seconds =      11.06 minutes
	system time =      17.12 seconds =       0.29 minutes
	total time  =        171 seconds =       2.85 minutes
Total time:
	user time   =     663.52 seconds =      11.06 minutes
	system time =      17.12 seconds =       0.29 minutes
	total time  =        171 seconds =       2.85 minutes
Grab this energy -157.81307364356368
    Psi4 stopped on: Friday, 05 November 2021 12:16PM
    Psi4 wall time for execution: 0:02:51.00

*** Psi4 exiting successfully. Buy a developer a beer!
