                               Psi4 1.4a2.dev629

  ==> Input File <==

--------------------------------------------------------------------------
import os
memory 14 GB

molecule {
 C   -0.3233409465    0.0002538599   -0.0024296470
 C    0.0614747938   -1.4003683968   -2.4254179231
 C    0.0589702605    2.8017660503   -0.0012561472
 C    0.0628554861   -1.4025344135    2.4266716183
 H    2.0846084494   -1.6457262672   -2.8473228966
 H   -0.7646584847   -0.3860168198   -4.0254923032
 H   -0.7694081071   -3.2885598476   -2.3464550243
 H    2.0869962247    3.2880939095    0.0033532335
 H   -0.7693618294    3.6773694642    1.6733643775
 H   -0.7606434440    3.6831621023   -1.6800370860
 H    2.0890608547   -1.6421171827    2.8477656064
 H   -0.7626041236   -3.2950332118    2.3518261436
 H   -0.7665570105   -0.3903135604    4.0254300482
units bohr
0 2
}

basis {

assign 6-31g_2dfp_

[ 6-31g_2dfp_ ]

spherical

!----------------------------------------------------------------------
! Basis Set Exchange
! Version v0.8.13
! https://www.basissetexchange.org
!----------------------------------------------------------------------
!   Basis set: 6-31G(2df,p)
! Description: 6-31G(2df,p)
!        Role: orbital
!     Version: 0  (Data from the original Basis Set Exchange)
!----------------------------------------------------------------------

****
H     0
S    3   1.00
     18.7311370              0.03349460
      2.8253937              0.23472695
      0.6401217              0.81375733
S    1   1.00
      0.1612778              1.00000000
P    1   1.00
      1.5000000              1.0000000
P    1   1.00
      0.3750000              1.0000000
****
B     0
S    6   1.00
   2068.8823000              0.0018663
    310.6495700              0.0142515
     70.6830330              0.0695516
     19.8610800              0.2325729
      6.2993048              0.4670787
      2.1270270              0.3634314
SP   3   1.00
      4.7279710             -0.1303938              0.0745976
      1.1903377             -0.1307889              0.3078467
      0.3594117              1.1309444              0.7434568
SP   1   1.00
      0.1267512              1.0000000              1.0000000
D    1   1.00
      0.8020000              1.0000000
D    1   1.00
      0.2005000              1.0000000
F    1   1.00
      0.5000000              1.0000000
****
C     0
S    6   1.00
   3047.5249000              0.0018347
    457.3695100              0.0140373
    103.9486900              0.0688426
     29.2101550              0.2321844
      9.2866630              0.4679413
      3.1639270              0.3623120
SP   3   1.00
      7.8682724             -0.1193324              0.0689991
      1.8812885             -0.1608542              0.3164240
      0.5442493              1.1434564              0.7443083
SP   1   1.00
      0.1687144              1.0000000              1.0000000
D    1   1.00
      1.2520000              1.0000000
D    1   1.00
      0.3130000              1.0000000
F    1   1.00
      0.8000000              1.0000000
****
N     0
S    6   1.00
   4173.5110000              0.0018348
    627.4579000              0.0139950
    142.9021000              0.0685870
     40.2343300              0.2322410
     12.8202100              0.4690700
      4.3904370              0.3604550
SP   3   1.00
     11.6263580             -0.1149610              0.0675800
      2.7162800             -0.1691180              0.3239070
      0.7722180              1.1458520              0.7408950
SP   1   1.00
      0.2120313              1.0000000              1.0000000
D    1   1.00
      1.8260000              1.0000000
D    1   1.00
      0.4565000              1.0000000
F    1   1.00
      1.0000000              1.0000000
****
O     0
S    6   1.00
   5484.6717000              0.0018311
    825.2349500              0.0139501
    188.0469600              0.0684451
     52.9645000              0.2327143
     16.8975700              0.4701930
      5.7996353              0.3585209
SP   3   1.00
     15.5396160             -0.1107775              0.0708743
      3.5999336             -0.1480263              0.3397528
      1.0137618              1.1307670              0.7271586
SP   1   1.00
      0.2700058              1.0000000              1.0000000
D    1   1.00
      2.5840000              1.0000000
D    1   1.00
      0.6460000              1.0000000
F    1   1.00
      1.4000000              1.0000000
****
F     0
S    6   1.00
   7001.7130900              0.0018196169
   1051.3660900              0.0139160796
    239.2856900              0.0684053245
     67.3974453              0.233185760
     21.5199573              0.471267439
      7.40310130             0.356618546
SP   3   1.00
     20.8479528             -0.108506975            0.0716287243
      4.80830834            -0.146451658            0.3459121030
      1.34406986             1.128688580            0.7224699570
SP   1   1.00
      0.358151393            1.0000000              1.0000000
D    1   1.00
      3.5000000              1.0000000
D    1   1.00
      0.8750000              1.0000000
F    1   1.00
      1.8500000              1.0000000
****
Al     0
S    6   1.00
  13983.1000000              0.00194267
   2098.7500000              0.0148599
    477.7050000              0.0728494
    134.3600000              0.2468300
     42.8709000              0.4872580
     14.5189000              0.3234960
SP   6   1.00
    239.6680000             -0.00292619             0.00460285
     57.4419000             -0.0374080              0.0331990
     18.2859000             -0.1144870              0.1362820
      6.5991400              0.1156350              0.3304760
      2.4904900              0.6125950              0.4491460
      0.9445400              0.3937990              0.2657040
SP   3   1.00
      1.2779000             -0.2276060             -0.0175130
      0.3975900              0.00144583             0.2445330
      0.1600950              1.0927900              0.8049340
SP   1   1.00
      0.0556577              1.0000000              1.0000000
D    1   1.00
      0.6500000              1.0000000
D    1   1.00
      0.1625000              1.0000000
F    1   1.00
      0.2500000              1.0000000
****
Si     0
S    6   1.00
  16115.9000000              0.00195948
   2425.5800000              0.01492880
    553.8670000              0.07284780
    156.3400000              0.24613000
     50.0683000              0.48591400
     17.0178000              0.32500200
SP   6   1.00
    292.7180000             -0.00278094             0.00443826
     69.8731000             -0.03571460             0.03266790
     22.3363000             -0.11498500             0.13472100
      8.1503900              0.09356340             0.32867800
      3.1345800              0.60301700             0.44964000
      1.2254300              0.41895900             0.26137200
SP   3   1.00
      1.7273800             -0.24463000            -0.01779510
      0.5729220              0.00431572             0.25353900
      0.2221920              1.09818000             0.80066900
SP   1   1.00
      0.0778369              1.00000000             1.00000000
D    1   1.00
      0.9000000              1.0000000
D    1   1.00
      0.2250000              1.0000000
F    1   1.00
      0.3200000              1.0000000
****
P     0
S    6   1.00
  19413.3000000              0.0018516
   2909.4200000              0.0142062
    661.3640000              0.0699995
    185.7590000              0.2400790
     59.1943000              0.4847620
     20.0310000              0.3352000
SP   6   1.00
    339.4780000             -0.00278217             0.00456462
     81.0101000             -0.0360499              0.03369360
     25.8780000             -0.1166310              0.13975500
      9.4522100              0.0968328              0.33936200
      3.6656600              0.6144180              0.45092100
      1.4674600              0.4037980              0.23858600
SP   3   1.00
      2.1562300             -0.2529230             -0.01776530
      0.7489970              0.0328517              0.27405800
      0.2831450              1.0812500              0.78542100
SP   1   1.00
      0.0998317              1.0000000              1.00000000
D    1   1.00
      1.1000000              1.0000000
D    1   1.00
      0.2750000              1.0000000
F    1   1.00
      0.4500000              1.0000000
****
S     0
S    6   1.00
  21917.1000000              0.0018690
   3301.4900000              0.0142300
    754.1460000              0.0696960
    212.7110000              0.2384870
     67.9896000              0.4833070
     23.0515000              0.3380740
SP   6   1.00
    423.7350000             -0.0023767              0.0040610
    100.7100000             -0.0316930              0.0306810
     32.1599000             -0.1133170              0.1304520
     11.8079000              0.0560900              0.3272050
      4.6311000              0.5922550              0.4528510
      1.8702500              0.4550060              0.2560420
SP   3   1.00
      2.6158400             -0.2503740             -0.0145110
      0.9221670              0.0669570              0.3102630
      0.3412870              1.0545100              0.7544830
SP   1   1.00
      0.1171670              1.0000000              1.0000000
D    1   1.00
      1.3000000              1.0000000
D    1   1.00
      0.3250000              1.0000000
F    1   1.00
      0.5500000              1.0000000
****
Cl     0
S    6   1.00
  25180.1000000              0.0018330
   3780.3500000              0.0140340
    860.4740000              0.0690970
    242.1450000              0.2374520
     77.3349000              0.4830340
     26.2470000              0.3398560
SP   6   1.00
    491.7650000             -0.0022974              0.0039894
    116.9840000             -0.0307140              0.0303180
     37.4153000             -0.1125280              0.1298800
     13.7834000              0.0450160              0.3279510
      5.4521500              0.5893530              0.4535270
      2.2258800              0.4652060              0.2521540
SP   3   1.00
      3.1864900             -0.2518300             -0.0142990
      1.1442700              0.0615890              0.3235720
      0.4203770              1.0601800              0.7435070
SP   1   1.00
      0.1426570              1.0000000              1.0000000
D    1   1.00
      1.5000000              1.0000000
D    1   1.00
      0.3750000              1.0000000
F    1   1.00
      0.7000000              1.0000000
****
}

set {
reference uhf
freeze_core true
e_convergence 10
d_convergence 10
dft_spherical_points 1202
dft_radial_points 99
}

e = energy('b3lyp')

print_out('Grab this energy {0}'.format(e))
--------------------------------------------------------------------------

    Molecular point group: c1

    Geometry (in Bohr), charge = 0, multiplicity = 2:

       Center              X                  Y                   Z               Mass
    ------------   -----------------  -----------------  -----------------  -----------------
         C           -0.323340865365     0.000424342180    -0.001961207217    12.000000000000
         C            0.061474874935    -1.400197914520    -2.424949483317    12.000000000000
         C            0.058970341635     2.801936532580    -0.000787707417    12.000000000000
         C            0.062855567235    -1.402363931220     2.427140058083    12.000000000000
         H            2.084608530535    -1.645555784920    -2.846854456817     1.007825032230
         H           -0.764658403565    -0.385846337520    -4.025023863417     1.007825032230
         H           -0.769408025965    -3.288389365320    -2.345986584517     1.007825032230
         H            2.086996305835     3.288264391780     0.003821673283     1.007825032230
         H           -0.769361748265     3.677539946480     1.673832817283     1.007825032230
         H           -0.760643362865     3.683332584580    -1.679568646217     1.007825032230
         H            2.089060935835    -1.641946700420     2.848234046183     1.007825032230
         H           -0.762604042465    -3.294862729520     2.352294583383     1.007825032230
         H           -0.766556929365    -0.390143078120     4.025898487983     1.007825032230

  Charge       = 0
  Multiplicity = 2
  Basis Set: ANONYMOUS877156C6
    Blend: 6-31G_2DFP_
  Basis Set: (ANONYMOUS877156C6 AUX)
    Blend: DEF2-UNIVERSAL-JKFIT

    Orbital Energies [Eh]
    ---------------------

    Alpha Occupied:

       1A    -10.180341     2A    -10.167188     3A    -10.167047
       4A    -10.166809     5A     -0.797767     6A     -0.686333
       7A     -0.686040     8A     -0.530776     9A     -0.441127
      10A     -0.434795    11A     -0.434547    12A     -0.382755
      13A     -0.382443    14A     -0.363611    15A     -0.338170
      16A     -0.337825    17A     -0.168960

    Alpha Virtual:

      18A      0.076072    19A      0.134085    20A      0.134227
      21A      0.142564    22A      0.142690    23A      0.154879
      24A      0.178664    25A      0.178891    26A      0.203547
      27A      0.214802    28A      0.275645    29A      0.276326
      30A      0.399063    31A      0.399380    32A      0.403359
      33A      0.424039    34A      0.424156    35A      0.456594
      36A      0.495331    37A      0.495447    38A      0.512160
      39A      0.513979    40A      0.578605    41A      0.579023
      42A      0.591381    43A      0.591889    44A      0.602575
      45A      0.624761    46A      0.631770    47A      0.636114
      48A      0.636390    49A      0.663148    50A      0.663679
      51A      0.683702    52A      0.684002    53A      0.734995
      54A      0.825373    55A      0.825441    56A      0.853916
      57A      0.914893    58A      0.915160    59A      0.944123
      60A      0.944613    61A      0.961214    62A      0.961371
      63A      1.003454    64A      1.127986    65A      1.128212
      66A      1.142208    67A      1.163123    68A      1.163445
      69A      1.223325    70A      1.274261    71A      1.274715
      72A      1.279365    73A      1.324077    74A      1.324636
      75A      1.355989    76A      1.365628    77A      1.366473
      78A      1.392442    79A      1.403717    80A      1.404392
      81A      1.416723    82A      1.417505    83A      1.427919
      84A      1.491493    85A      1.499084    86A      1.542684
      87A      1.542970    88A      1.574178    89A      1.574716
      90A      1.669832    91A      1.738927    92A      1.739907
      93A      1.768322    94A      1.830938    95A      1.831847
      96A      1.971730    97A      2.018065    98A      2.018586
      99A      2.019727   100A      2.051609   101A      2.053688
     102A      2.738420   103A      2.738543   104A      2.790930
     105A      2.811421   106A      2.889406   107A      2.890452
     108A      2.894995   109A      2.929327   110A      2.929672
     111A      2.958994   112A      2.964090   113A      2.964660
     114A      3.034008   115A      3.070958   116A      3.071604
     117A      3.084354   118A      3.168648   119A      3.168889
     120A      3.180615   121A      3.285257   122A      3.285373
     123A      3.326687   124A      3.327632   125A      3.375620
     126A      3.489764   127A      3.490559   128A      3.514005
     129A      3.525313   130A      3.567553   131A      3.569238
     132A      3.575145   133A      3.666021   134A      3.666722
     135A      3.679674   136A      3.693775   137A      3.694472
     138A      3.775455   139A      3.778110   140A      3.789170
     141A      3.911730   142A      3.912725   143A      4.034451
     144A      4.110341   145A      4.112400   146A      4.147570
     147A      4.148677   148A      4.173245   149A      4.202120
     150A      4.203067   151A      4.203592   152A      4.210873
     153A      4.315281   154A      4.316628   155A      4.358990
     156A      4.423945   157A      4.424956   158A      4.443429
     159A      4.515540   160A      4.518140   161A      4.577549
     162A      4.578980   163A      4.617530   164A      4.709446
     165A      4.773789   166A      4.775437   167A      4.836922
     168A      4.962849   169A      5.002175   170A      5.003728
     171A      5.228036   172A      5.246685   173A      5.246941
     174A      5.354526   175A      5.356499   176A      5.479351

    Beta Occupied:

       1A    -10.167943     2A    -10.167808     3A    -10.167572
       4A    -10.166518     5A     -0.781092     6A     -0.684125
       7A     -0.683853     8A     -0.511747     9A     -0.431174
      10A     -0.430911    11A     -0.421822    12A     -0.376846
      13A     -0.376523    14A     -0.362595    15A     -0.333294
      16A     -0.332947

    Beta Virtual:

      17A     -0.025742    18A      0.077081    19A      0.134974
      20A      0.135117    21A      0.144436    22A      0.144560
      23A      0.163337    24A      0.182333    25A      0.182565
      26A      0.215031    27A      0.218929    28A      0.282004
      29A      0.282663    30A      0.400239    31A      0.400554
      32A      0.419793    33A      0.426840    34A      0.426979
      35A      0.468502    36A      0.497600    37A      0.497700
      38A      0.513895    39A      0.556323    40A      0.584147
      41A      0.584583    42A      0.597575    43A      0.598053
      44A      0.609998    45A      0.628136    46A      0.631928
      47A      0.639384    48A      0.639690    49A      0.666730
      50A      0.667225    51A      0.686336    52A      0.686639
      53A      0.757518    54A      0.830563    55A      0.830588
      56A      0.855269    57A      0.922861    58A      0.923135
      59A      0.945960    60A      0.953542    61A      0.966496
      62A      0.966702    63A      1.008694    64A      1.131956
      65A      1.132300    66A      1.155582    67A      1.168275
      68A      1.168441    69A      1.232298    70A      1.279851
      71A      1.280316    72A      1.285122    73A      1.329062
      74A      1.329630    75A      1.365404    76A      1.370896
      77A      1.371691    78A      1.393500    79A      1.407151
      80A      1.407887    81A      1.421788    82A      1.422539
      83A      1.428190    84A      1.492541    85A      1.509527
      86A      1.547124    87A      1.547345    88A      1.582114
      89A      1.582524    90A      1.674679    91A      1.744688
      92A      1.745670    93A      1.779101    94A      1.834788
      95A      1.835708    96A      1.972590    97A      2.024795
      98A      2.026075    99A      2.039684   100A      2.058365
     101A      2.060365   102A      2.746735   103A      2.746900
     104A      2.811834   105A      2.816064   106A      2.902186
     107A      2.903092   108A      2.924639   109A      2.931821
     110A      2.932158   111A      2.960056   112A      2.968651
     113A      2.969189   114A      3.041943   115A      3.080899
     116A      3.081473   117A      3.086181   118A      3.184379
     119A      3.184592   120A      3.188365   121A      3.290058
     122A      3.290169   123A      3.330494   124A      3.331435
     125A      3.383438   126A      3.492483   127A      3.493300
     128A      3.512373   129A      3.528360   130A      3.574987
     131A      3.580942   132A      3.582539   133A      3.670882
     134A      3.671375   135A      3.692951   136A      3.725524
     137A      3.725988   138A      3.780032   139A      3.782611
     140A      3.817688   141A      3.921588   142A      3.922502
     143A      4.045338   144A      4.117163   145A      4.119209
     146A      4.154837   147A      4.155827   148A      4.187305
     149A      4.208384   150A      4.209501   151A      4.210735
     152A      4.215349   153A      4.322680   154A      4.324108
     155A      4.362355   156A      4.432185   157A      4.433139
     158A      4.446319   159A      4.523339   160A      4.525920
     161A      4.588149   162A      4.589580   163A      4.624726
     164A      4.719790   165A      4.780785   166A      4.782349
     167A      4.839839   168A      4.967643   169A      5.006210
     170A      5.007771   171A      5.233751   172A      5.248458
     173A      5.248738   174A      5.360986   175A      5.363000
     176A      5.481673

    Final Occupation by Irrep:
              A
    DOCC [    16 ]
    SOCC [     1 ]

  @DF-UKS Final Energy:  -157.81306696568328

   => Energetics <=

    Nuclear Repulsion Energy =            125.3946332043268228
    One-Electron Energy =                -458.7489258017809561
    Two-Electron Energy =                 195.8483697464893680
    DFT Exchange-Correlation Energy =     -20.3071441147185432
    Empirical Dispersion Energy =           0.0000000000000000
    VV10 Nonlocal Energy =                  0.0000000000000000
    Total Energy =                       -157.8130669656832765

  UHF NO Occupations:
  HONO-2 :   15  A 1.9996009
  HONO-1 :   16  A 1.9989805
  HONO-0 :   17  A 1.0000000
  LUNO+0 :   18  A 0.0010195
  LUNO+1 :   19  A 0.0003991
  LUNO+2 :   20  A 0.0001981
  LUNO+3 :   21  A 0.0001970

Computation Completed

Properties will be evaluated at   0.000000,   0.000000,   0.000000 [a0]

Properties computed using the SCF density matrix

  Nuclear Dipole Moment: [e a0]
     X:     0.8272      Y:     0.0012      Z:     0.0033

  Electronic Dipole Moment: [e a0]
     X:    -0.7493      Y:    -0.0011      Z:    -0.0033

  Dipole Moment: [e a0]
     X:     0.0779      Y:     0.0001      Z:     0.0000     Total:     0.0779

  Dipole Moment: [D]
     X:     0.1980      Y:     0.0003      Z:     0.0001     Total:     0.1980

*** tstop() called on n046 at Fri Nov  5 12:39:08 2021
Module time:
	user time   =     541.02 seconds =       9.02 minutes
	system time =      12.55 seconds =       0.21 minutes
	total time  =        140 seconds =       2.33 minutes
Total time:
	user time   =     541.02 seconds =       9.02 minutes
	system time =      12.55 seconds =       0.21 minutes
	total time  =        140 seconds =       2.33 minutes
Grab this energy -157.81306696568328
    Psi4 stopped on: Friday, 05 November 2021 12:39PM
    Psi4 wall time for execution: 0:02:19.52

*** Psi4 exiting successfully. Buy a developer a beer!
