                               Psi4 1.4a2.dev629

  ==> Input File <==

--------------------------------------------------------------------------
import os
memory 14 GB

molecule {
 C   -0.3250958117   -0.0000020971   -0.0000000000
 C    0.0621357342   -1.4035519722   -2.4310128665
 C    0.0620157137    2.8071083121   -0.0000000000
 C    0.0621357342   -1.4035519722    2.4310128665
 H    2.0871806783   -1.6474151687   -2.8531867997
 H   -0.7657321779   -0.3909363933   -4.0308407778
 H   -0.7658954428   -3.2952833620   -2.3540185727
 H    2.0870414797    3.2947378384    0.0000000000
 H   -0.7659734210    3.6862527128    1.6768284879
 H   -0.7659734210    3.6862527128   -1.6768284879
 H    2.0871806783   -1.6474151687    2.8531867997
 H   -0.7658954428   -3.2952833620    2.3540185727
 H   -0.7657321779   -0.3909363933    4.0308407778
units bohr
0 2
}

basis {

assign 6-31g_2dfp_

[ 6-31g_2dfp_ ]

spherical

!----------------------------------------------------------------------
! Basis Set Exchange
! Version v0.8.13
! https://www.basissetexchange.org
!----------------------------------------------------------------------
!   Basis set: 6-31G(2df,p)
! Description: 6-31G(2df,p)
!        Role: orbital
!     Version: 0  (Data from the original Basis Set Exchange)
!----------------------------------------------------------------------

****
H     0
S    3   1.00
     18.7311370              0.03349460
      2.8253937              0.23472695
      0.6401217              0.81375733
S    1   1.00
      0.1612778              1.00000000
P    1   1.00
      1.5000000              1.0000000
P    1   1.00
      0.3750000              1.0000000
****
B     0
S    6   1.00
   2068.8823000              0.0018663
    310.6495700              0.0142515
     70.6830330              0.0695516
     19.8610800              0.2325729
      6.2993048              0.4670787
      2.1270270              0.3634314
SP   3   1.00
      4.7279710             -0.1303938              0.0745976
      1.1903377             -0.1307889              0.3078467
      0.3594117              1.1309444              0.7434568
SP   1   1.00
      0.1267512              1.0000000              1.0000000
D    1   1.00
      0.8020000              1.0000000
D    1   1.00
      0.2005000              1.0000000
F    1   1.00
      0.5000000              1.0000000
****
C     0
S    6   1.00
   3047.5249000              0.0018347
    457.3695100              0.0140373
    103.9486900              0.0688426
     29.2101550              0.2321844
      9.2866630              0.4679413
      3.1639270              0.3623120
SP   3   1.00
      7.8682724             -0.1193324              0.0689991
      1.8812885             -0.1608542              0.3164240
      0.5442493              1.1434564              0.7443083
SP   1   1.00
      0.1687144              1.0000000              1.0000000
D    1   1.00
      1.2520000              1.0000000
D    1   1.00
      0.3130000              1.0000000
F    1   1.00
      0.8000000              1.0000000
****
N     0
S    6   1.00
   4173.5110000              0.0018348
    627.4579000              0.0139950
    142.9021000              0.0685870
     40.2343300              0.2322410
     12.8202100              0.4690700
      4.3904370              0.3604550
SP   3   1.00
     11.6263580             -0.1149610              0.0675800
      2.7162800             -0.1691180              0.3239070
      0.7722180              1.1458520              0.7408950
SP   1   1.00
      0.2120313              1.0000000              1.0000000
D    1   1.00
      1.8260000              1.0000000
D    1   1.00
      0.4565000              1.0000000
F    1   1.00
      1.0000000              1.0000000
****
O     0
S    6   1.00
   5484.6717000              0.0018311
    825.2349500              0.0139501
    188.0469600              0.0684451
     52.9645000              0.2327143
     16.8975700              0.4701930
      5.7996353              0.3585209
SP   3   1.00
     15.5396160             -0.1107775              0.0708743
      3.5999336             -0.1480263              0.3397528
      1.0137618              1.1307670              0.7271586
SP   1   1.00
      0.2700058              1.0000000              1.0000000
D    1   1.00
      2.5840000              1.0000000
D    1   1.00
      0.6460000              1.0000000
F    1   1.00
      1.4000000              1.0000000
****
F     0
S    6   1.00
   7001.7130900              0.0018196169
   1051.3660900              0.0139160796
    239.2856900              0.0684053245
     67.3974453              0.233185760
     21.5199573              0.471267439
      7.40310130             0.356618546
SP   3   1.00
     20.8479528             -0.108506975            0.0716287243
      4.80830834            -0.146451658            0.3459121030
      1.34406986             1.128688580            0.7224699570
SP   1   1.00
      0.358151393            1.0000000              1.0000000
D    1   1.00
      3.5000000              1.0000000
D    1   1.00
      0.8750000              1.0000000
F    1   1.00
      1.8500000              1.0000000
****
Al     0
S    6   1.00
  13983.1000000              0.00194267
   2098.7500000              0.0148599
    477.7050000              0.0728494
    134.3600000              0.2468300
     42.8709000              0.4872580
     14.5189000              0.3234960
SP   6   1.00
    239.6680000             -0.00292619             0.00460285
     57.4419000             -0.0374080              0.0331990
     18.2859000             -0.1144870              0.1362820
      6.5991400              0.1156350              0.3304760
      2.4904900              0.6125950              0.4491460
      0.9445400              0.3937990              0.2657040
SP   3   1.00
      1.2779000             -0.2276060             -0.0175130
      0.3975900              0.00144583             0.2445330
      0.1600950              1.0927900              0.8049340
SP   1   1.00
      0.0556577              1.0000000              1.0000000
D    1   1.00
      0.6500000              1.0000000
D    1   1.00
      0.1625000              1.0000000
F    1   1.00
      0.2500000              1.0000000
****
Si     0
S    6   1.00
  16115.9000000              0.00195948
   2425.5800000              0.01492880
    553.8670000              0.07284780
    156.3400000              0.24613000
     50.0683000              0.48591400
     17.0178000              0.32500200
SP   6   1.00
    292.7180000             -0.00278094             0.00443826
     69.8731000             -0.03571460             0.03266790
     22.3363000             -0.11498500             0.13472100
      8.1503900              0.09356340             0.32867800
      3.1345800              0.60301700             0.44964000
      1.2254300              0.41895900             0.26137200
SP   3   1.00
      1.7273800             -0.24463000            -0.01779510
      0.5729220              0.00431572             0.25353900
      0.2221920              1.09818000             0.80066900
SP   1   1.00
      0.0778369              1.00000000             1.00000000
D    1   1.00
      0.9000000              1.0000000
D    1   1.00
      0.2250000              1.0000000
F    1   1.00
      0.3200000              1.0000000
****
P     0
S    6   1.00
  19413.3000000              0.0018516
   2909.4200000              0.0142062
    661.3640000              0.0699995
    185.7590000              0.2400790
     59.1943000              0.4847620
     20.0310000              0.3352000
SP   6   1.00
    339.4780000             -0.00278217             0.00456462
     81.0101000             -0.0360499              0.03369360
     25.8780000             -0.1166310              0.13975500
      9.4522100              0.0968328              0.33936200
      3.6656600              0.6144180              0.45092100
      1.4674600              0.4037980              0.23858600
SP   3   1.00
      2.1562300             -0.2529230             -0.01776530
      0.7489970              0.0328517              0.27405800
      0.2831450              1.0812500              0.78542100
SP   1   1.00
      0.0998317              1.0000000              1.00000000
D    1   1.00
      1.1000000              1.0000000
D    1   1.00
      0.2750000              1.0000000
F    1   1.00
      0.4500000              1.0000000
****
S     0
S    6   1.00
  21917.1000000              0.0018690
   3301.4900000              0.0142300
    754.1460000              0.0696960
    212.7110000              0.2384870
     67.9896000              0.4833070
     23.0515000              0.3380740
SP   6   1.00
    423.7350000             -0.0023767              0.0040610
    100.7100000             -0.0316930              0.0306810
     32.1599000             -0.1133170              0.1304520
     11.8079000              0.0560900              0.3272050
      4.6311000              0.5922550              0.4528510
      1.8702500              0.4550060              0.2560420
SP   3   1.00
      2.6158400             -0.2503740             -0.0145110
      0.9221670              0.0669570              0.3102630
      0.3412870              1.0545100              0.7544830
SP   1   1.00
      0.1171670              1.0000000              1.0000000
D    1   1.00
      1.3000000              1.0000000
D    1   1.00
      0.3250000              1.0000000
F    1   1.00
      0.5500000              1.0000000
****
Cl     0
S    6   1.00
  25180.1000000              0.0018330
   3780.3500000              0.0140340
    860.4740000              0.0690970
    242.1450000              0.2374520
     77.3349000              0.4830340
     26.2470000              0.3398560
SP   6   1.00
    491.7650000             -0.0022974              0.0039894
    116.9840000             -0.0307140              0.0303180
     37.4153000             -0.1125280              0.1298800
     13.7834000              0.0450160              0.3279510
      5.4521500              0.5893530              0.4535270
      2.2258800              0.4652060              0.2521540
SP   3   1.00
      3.1864900             -0.2518300             -0.0142990
      1.1442700              0.0615890              0.3235720
      0.4203770              1.0601800              0.7435070
SP   1   1.00
      0.1426570              1.0000000              1.0000000
D    1   1.00
      1.5000000              1.0000000
D    1   1.00
      0.3750000              1.0000000
F    1   1.00
      0.7000000              1.0000000
****
}

set {
reference uhf
freeze_core true
e_convergence 10
d_convergence 10
dft_spherical_points 1202
dft_radial_points 99
}

e = energy('b3lyp')

print_out('Grab this energy {0}'.format(e))
--------------------------------------------------------------------------

    Molecular point group: cs

    Geometry (in Bohr), charge = 0, multiplicity = 2:

       Center              X                  Y                   Z               Mass
    ------------   -----------------  -----------------  -----------------  -----------------
         C           -0.325332979589    -0.000002105076     0.000000000000    12.000000000000
         C            0.061898566311    -1.403551980176    -2.431012866500    12.000000000000
         C            0.061778545811     2.807108304124     0.000000000000    12.000000000000
         C            0.061898566311    -1.403551980176     2.431012866500    12.000000000000
         H            2.086943510411    -1.647415176676    -2.853186799700     1.007825032230
         H           -0.765969345789    -0.390936401276    -4.030840777800     1.007825032230
         H           -0.766132610689    -3.295283369976    -2.354018572700     1.007825032230
         H            2.086804311811     3.294737830424     0.000000000000     1.007825032230
         H           -0.766210588889     3.686252704824     1.676828487900     1.007825032230
         H           -0.766210588889     3.686252704824    -1.676828487900     1.007825032230
         H            2.086943510411    -1.647415176676     2.853186799700     1.007825032230
         H           -0.766132610689    -3.295283369976     2.354018572700     1.007825032230
         H           -0.765969345789    -0.390936401276     4.030840777800     1.007825032230

  Charge       = 0
  Multiplicity = 2
  Basis Set: ANONYMOUS6DE6E456
    Blend: 6-31G_2DFP_
  Basis Set: (ANONYMOUS6DE6E456 AUX)
    Blend: DEF2-UNIVERSAL-JKFIT

    Orbital Energies [Eh]
    ---------------------

    Alpha Occupied:

       1Ap   -10.181178     2Ap   -10.167383     1App  -10.167383
       3Ap   -10.167337     4Ap    -0.796705     5Ap    -0.685870
       2App   -0.685869     6Ap    -0.530784     7Ap    -0.440588
       3App   -0.434129     8Ap    -0.434128     9Ap    -0.382633
       4App   -0.382631     5App   -0.363603     6App   -0.337720
      10Ap    -0.337720    11Ap    -0.169469

    Alpha Virtual:

      12Ap     0.076105    13Ap     0.134112     7App    0.134113
      14Ap     0.142402     8App    0.142402    15Ap     0.154898
      16Ap     0.178672     9App    0.178672    17Ap     0.202464
      10App    0.214409    11App    0.275279    18Ap     0.275281
      19Ap     0.399227    12App    0.399231    20Ap     0.403470
      13App    0.424354    21Ap     0.424355    22Ap     0.456123
      23Ap     0.495137    14App    0.495138    15App    0.511872
      24Ap     0.513470    25Ap     0.578243    16App    0.578251
      17App    0.591117    26Ap     0.591118    27Ap     0.602341
      28Ap     0.624274    18App    0.631363    19App    0.635291
      29Ap     0.635295    30Ap     0.663089    20App    0.663090
      31Ap     0.683303    21App    0.683304    32Ap     0.734998
      22App    0.825505    33Ap     0.825508    23App    0.852913
      24App    0.914233    34Ap     0.914239    25App    0.942850
      35Ap     0.945228    26App    0.960345    36Ap     0.960361
      37Ap     1.002337    38Ap     1.127308    27App    1.127320
      39Ap     1.141901    40Ap     1.162911    28App    1.162924
      41Ap     1.222272    42Ap     1.273525    29App    1.273528
      43Ap     1.279079    30App    1.323771    44Ap     1.323774
      45Ap     1.356059    31App    1.363851    46Ap     1.363855
      32App    1.390947    47Ap     1.404355    33App    1.404357
      34App    1.416999    48Ap     1.417006    35App    1.426534
      36App    1.490113    49Ap     1.498902    37App    1.542140
      50Ap     1.542142    51Ap     1.572993    38App    1.572996
      52Ap     1.669629    53Ap     1.738536    39App    1.738548
      54Ap     1.766855    40App    1.829814    55Ap     1.829815
      41App    1.970094    56Ap     2.015015    57Ap     2.018227
      42App    2.018231    58Ap     2.048567    43App    2.048567
      44App    2.737683    59Ap     2.737684    60Ap     2.789958
      45App    2.808674    61Ap     2.888533    46App    2.888539
      62Ap     2.893738    63Ap     2.929343    47App    2.929351
      48App    2.958691    64Ap     2.964562    49App    2.964576
      65Ap     3.034385    50App    3.069504    66Ap     3.069518
      51App    3.082708    67Ap     3.168050    52App    3.168058
      68Ap     3.178701    53App    3.285566    69Ap     3.285567
      70Ap     3.327118    54App    3.327123    71Ap     3.377136
      55App    3.488117    72Ap     3.488137    56App    3.513054
      73Ap     3.523433    57App    3.568171    74Ap     3.568191
      58App    3.573641    75Ap     3.665866    59App    3.665875
      76Ap     3.677520    60App    3.692737    77Ap     3.692753
      78Ap     3.772044    61App    3.772070    79Ap     3.787141
      80Ap     3.910114    62App    3.910120    81Ap     4.032307
      82Ap     4.108245    63App    4.108250    83Ap     4.147387
      64App    4.147395    84Ap     4.171984    85Ap     4.200871
      65App    4.201013    86Ap     4.201017    66App    4.209282
      87Ap     4.314614    67App    4.314633    68App    4.356976
      88Ap     4.422249    69App    4.422252    70App    4.440760
      71App    4.514156    89Ap     4.514157    72App    4.574845
      90Ap     4.574857    91Ap     4.609754    92Ap     4.705010
      93Ap     4.768007    73App    4.768015    74App    4.831728
      94Ap     4.959944    75App    5.001473    95Ap     5.001484
      96Ap     5.226925    76App    5.245291    97Ap     5.245291
      98Ap     5.352627    77App    5.352640    78App    5.473294

    Beta Occupied:

       1Ap   -10.168131     1App  -10.168131     2Ap   -10.168115
       3Ap   -10.167320     4Ap    -0.780058     5Ap    -0.683691
       2App   -0.683690     6Ap    -0.511646     3App   -0.430508
       7Ap    -0.430508     8Ap    -0.421413     9Ap    -0.376765
       4App   -0.376763     5App   -0.362597     6App   -0.332842
      10Ap    -0.332841

    Beta Virtual:

      11Ap    -0.025876    12Ap     0.077098    13Ap     0.134998
       7App    0.134999    14Ap     0.144247     8App    0.144247
      15Ap     0.163303    16Ap     0.182317     9App    0.182318
      10App    0.214632    17Ap     0.218003    11App    0.281709
      18Ap     0.281711    19Ap     0.400364    12App    0.400368
      20Ap     0.419986    13App    0.427176    21Ap     0.427177
      22Ap     0.467691    23Ap     0.497388    14App    0.497389
      15App    0.513588    24Ap     0.555886    25Ap     0.583774
      16App    0.583782    17App    0.597361    26Ap     0.597362
      27Ap     0.609704    28Ap     0.627612    18App    0.631509
      19App    0.638509    29Ap     0.638513    30Ap     0.666696
      20App    0.666697    31Ap     0.685853    21App    0.685855
      32Ap     0.757720    22App    0.830660    33Ap     0.830663
      23App    0.854225    24App    0.922201    34Ap     0.922208
      25App    0.944680    35Ap     0.954241    26App    0.965593
      36Ap     0.965609    37Ap     1.007676    38Ap     1.131344
      27App    1.131356    39Ap     1.155237    40Ap     1.167979
      28App    1.167991    41Ap     1.231101    42Ap     1.279099
      29App    1.279102    43Ap     1.284906    30App    1.328772
      44Ap     1.328774    45Ap     1.365421    31App    1.369096
      46Ap     1.369101    32App    1.391988    47Ap     1.407856
      33App    1.407859    34App    1.421969    48Ap     1.421975
      35App    1.426775    36App    1.491160    49Ap     1.509290
      50Ap     1.546604    37App    1.546604    38App    1.580798
      51Ap     1.580798    52Ap     1.674484    53Ap     1.744293
      39App    1.744304    54Ap     1.777593    40App    1.833643
      55Ap     1.833644    41App    1.970948    56Ap     2.024616
      42App    2.024619    57Ap     2.036331    58Ap     2.055271
      43App    2.055272    44App    2.746114    59Ap     2.746115
      45App    2.809089    60Ap     2.815095    61Ap     2.901480
      46App    2.901486    62Ap     2.923369    63Ap     2.931654
      47App    2.931663    48App    2.959741    64Ap     2.969059
      49App    2.969073    65Ap     3.042190    50App    3.079367
      66Ap     3.079379    51App    3.084501    67Ap     3.183815
      52App    3.183819    68Ap     3.186479    53App    3.290151
      69Ap     3.290151    70Ap     3.331005    54App    3.331011
      71Ap     3.384982    55App    3.490882    72Ap     3.490902
      56App    3.511431    73Ap     3.526539    57App    3.573483
      58App    3.581535    74Ap     3.581557    75Ap     3.670691
      59App    3.670702    76Ap     3.690827    60App    3.724560
      77Ap     3.724575    78Ap     3.776571    61App    3.776597
      79Ap     3.815811    80Ap     3.919886    62App    3.919893
      81Ap     4.043293    82Ap     4.115319    63App    4.115321
      83Ap     4.154426    64App    4.154435    84Ap     4.185889
      65App    4.206953    85Ap     4.206957    86Ap     4.208791
      66App    4.213659    87Ap     4.322044    67App    4.322064
      68App    4.360358    88Ap     4.430318    69App    4.430321
      70App    4.443627    71App    4.521802    89Ap     4.521804
      72App    4.585461    90Ap     4.585472    91Ap     4.616953
      92Ap     4.715298    93Ap     4.774972    73App    4.774980
      74App    4.834657    94Ap     4.964713    75App    5.005458
      95Ap     5.005471    96Ap     5.232604    76App    5.247063
      97Ap     5.247063    98Ap     5.359062    77App    5.359075
      78App    5.475600

    Final Occupation by Irrep:
             Ap   App
    DOCC [    10,    6 ]
    SOCC [     1,    0 ]

  @DF-UKS Final Energy:  -157.81306433448088

   => Energetics <=

    Nuclear Repulsion Energy =            125.2112473412298925
    One-Electron Energy =                -458.3879361711310594
    Two-Electron Energy =                 195.6669063582776573
    DFT Exchange-Correlation Energy =     -20.3032818628573324
    Empirical Dispersion Energy =           0.0000000000000000
    VV10 Nonlocal Energy =                  0.0000000000000000
    Total Energy =                       -157.8130643344808846

  UHF NO Occupations:
  HONO-2 :    9 Ap 1.9996041
  HONO-1 :   10 Ap 1.9989749
  HONO-0 :   11 Ap 1.0000000
  LUNO+0 :   12 Ap 0.0010251
  LUNO+1 :   13 Ap 0.0003959
  LUNO+2 :    7App 0.0001998
  LUNO+3 :   14 Ap 0.0001998

Computation Completed

Properties will be evaluated at   0.000000,   0.000000,   0.000000 [a0]

Properties computed using the SCF density matrix

  Nuclear Dipole Moment: [e a0]
     X:     0.8255      Y:    -0.0000      Z:     0.0000

  Electronic Dipole Moment: [e a0]
     X:    -0.7460      Y:     0.0000      Z:     0.0000

  Dipole Moment: [e a0]
     X:     0.0795      Y:     0.0000      Z:     0.0000     Total:     0.0795

  Dipole Moment: [D]
     X:     0.2022      Y:     0.0000      Z:     0.0000     Total:     0.2022

*** tstop() called on n073 at Fri Nov  5 11:42:44 2021
Module time:
	user time   =     569.22 seconds =       9.49 minutes
	system time =      12.83 seconds =       0.21 minutes
	total time  =        147 seconds =       2.45 minutes
Total time:
	user time   =     569.22 seconds =       9.49 minutes
	system time =      12.83 seconds =       0.21 minutes
	total time  =        147 seconds =       2.45 minutes
Grab this energy -157.81306433448088
    Psi4 stopped on: Friday, 05 November 2021 11:42AM
    Psi4 wall time for execution: 0:02:26.39

*** Psi4 exiting successfully. Buy a developer a beer!
