                               Psi4 1.4a2.dev629

  ==> Input File <==

--------------------------------------------------------------------------
import os
memory 14 GB

molecule {
 C   -0.3233407878   -0.0002581638    0.0000012689
 C    0.0601150921   -1.4016891705   -2.4259153149
 C    0.0630711116    2.8017506750   -0.0015994582
 C    0.0601142451   -1.3989163626    2.4275174173
 H    2.0870387681   -1.6437335804   -2.8476446540
 H   -0.7650047604   -0.3879813471   -4.0255942306
 H   -0.7653281226   -3.2919688802   -2.3490427750
 H    2.0865967967    3.2881064630    0.0006184653
 H   -0.7660944345    3.6801720440    1.6765925141
 H   -0.7664828957    3.6802998626   -1.6759871924
 H    2.0870368455   -1.6448099102    2.8470215425
 H   -0.7649303423   -3.2924266026    2.3486254455
 H   -0.7653993926   -0.3885693410    4.0254069713
units bohr
0 2
}

basis {

assign 6-31g_2dfp_

[ 6-31g_2dfp_ ]

spherical

!----------------------------------------------------------------------
! Basis Set Exchange
! Version v0.8.13
! https://www.basissetexchange.org
!----------------------------------------------------------------------
!   Basis set: 6-31G(2df,p)
! Description: 6-31G(2df,p)
!        Role: orbital
!     Version: 0  (Data from the original Basis Set Exchange)
!----------------------------------------------------------------------

****
H     0
S    3   1.00
     18.7311370              0.03349460
      2.8253937              0.23472695
      0.6401217              0.81375733
S    1   1.00
      0.1612778              1.00000000
P    1   1.00
      1.5000000              1.0000000
P    1   1.00
      0.3750000              1.0000000
****
B     0
S    6   1.00
   2068.8823000              0.0018663
    310.6495700              0.0142515
     70.6830330              0.0695516
     19.8610800              0.2325729
      6.2993048              0.4670787
      2.1270270              0.3634314
SP   3   1.00
      4.7279710             -0.1303938              0.0745976
      1.1903377             -0.1307889              0.3078467
      0.3594117              1.1309444              0.7434568
SP   1   1.00
      0.1267512              1.0000000              1.0000000
D    1   1.00
      0.8020000              1.0000000
D    1   1.00
      0.2005000              1.0000000
F    1   1.00
      0.5000000              1.0000000
****
C     0
S    6   1.00
   3047.5249000              0.0018347
    457.3695100              0.0140373
    103.9486900              0.0688426
     29.2101550              0.2321844
      9.2866630              0.4679413
      3.1639270              0.3623120
SP   3   1.00
      7.8682724             -0.1193324              0.0689991
      1.8812885             -0.1608542              0.3164240
      0.5442493              1.1434564              0.7443083
SP   1   1.00
      0.1687144              1.0000000              1.0000000
D    1   1.00
      1.2520000              1.0000000
D    1   1.00
      0.3130000              1.0000000
F    1   1.00
      0.8000000              1.0000000
****
N     0
S    6   1.00
   4173.5110000              0.0018348
    627.4579000              0.0139950
    142.9021000              0.0685870
     40.2343300              0.2322410
     12.8202100              0.4690700
      4.3904370              0.3604550
SP   3   1.00
     11.6263580             -0.1149610              0.0675800
      2.7162800             -0.1691180              0.3239070
      0.7722180              1.1458520              0.7408950
SP   1   1.00
      0.2120313              1.0000000              1.0000000
D    1   1.00
      1.8260000              1.0000000
D    1   1.00
      0.4565000              1.0000000
F    1   1.00
      1.0000000              1.0000000
****
O     0
S    6   1.00
   5484.6717000              0.0018311
    825.2349500              0.0139501
    188.0469600              0.0684451
     52.9645000              0.2327143
     16.8975700              0.4701930
      5.7996353              0.3585209
SP   3   1.00
     15.5396160             -0.1107775              0.0708743
      3.5999336             -0.1480263              0.3397528
      1.0137618              1.1307670              0.7271586
SP   1   1.00
      0.2700058              1.0000000              1.0000000
D    1   1.00
      2.5840000              1.0000000
D    1   1.00
      0.6460000              1.0000000
F    1   1.00
      1.4000000              1.0000000
****
F     0
S    6   1.00
   7001.7130900              0.0018196169
   1051.3660900              0.0139160796
    239.2856900              0.0684053245
     67.3974453              0.233185760
     21.5199573              0.471267439
      7.40310130             0.356618546
SP   3   1.00
     20.8479528             -0.108506975            0.0716287243
      4.80830834            -0.146451658            0.3459121030
      1.34406986             1.128688580            0.7224699570
SP   1   1.00
      0.358151393            1.0000000              1.0000000
D    1   1.00
      3.5000000              1.0000000
D    1   1.00
      0.8750000              1.0000000
F    1   1.00
      1.8500000              1.0000000
****
Al     0
S    6   1.00
  13983.1000000              0.00194267
   2098.7500000              0.0148599
    477.7050000              0.0728494
    134.3600000              0.2468300
     42.8709000              0.4872580
     14.5189000              0.3234960
SP   6   1.00
    239.6680000             -0.00292619             0.00460285
     57.4419000             -0.0374080              0.0331990
     18.2859000             -0.1144870              0.1362820
      6.5991400              0.1156350              0.3304760
      2.4904900              0.6125950              0.4491460
      0.9445400              0.3937990              0.2657040
SP   3   1.00
      1.2779000             -0.2276060             -0.0175130
      0.3975900              0.00144583             0.2445330
      0.1600950              1.0927900              0.8049340
SP   1   1.00
      0.0556577              1.0000000              1.0000000
D    1   1.00
      0.6500000              1.0000000
D    1   1.00
      0.1625000              1.0000000
F    1   1.00
      0.2500000              1.0000000
****
Si     0
S    6   1.00
  16115.9000000              0.00195948
   2425.5800000              0.01492880
    553.8670000              0.07284780
    156.3400000              0.24613000
     50.0683000              0.48591400
     17.0178000              0.32500200
SP   6   1.00
    292.7180000             -0.00278094             0.00443826
     69.8731000             -0.03571460             0.03266790
     22.3363000             -0.11498500             0.13472100
      8.1503900              0.09356340             0.32867800
      3.1345800              0.60301700             0.44964000
      1.2254300              0.41895900             0.26137200
SP   3   1.00
      1.7273800             -0.24463000            -0.01779510
      0.5729220              0.00431572             0.25353900
      0.2221920              1.09818000             0.80066900
SP   1   1.00
      0.0778369              1.00000000             1.00000000
D    1   1.00
      0.9000000              1.0000000
D    1   1.00
      0.2250000              1.0000000
F    1   1.00
      0.3200000              1.0000000
****
P     0
S    6   1.00
  19413.3000000              0.0018516
   2909.4200000              0.0142062
    661.3640000              0.0699995
    185.7590000              0.2400790
     59.1943000              0.4847620
     20.0310000              0.3352000
SP   6   1.00
    339.4780000             -0.00278217             0.00456462
     81.0101000             -0.0360499              0.03369360
     25.8780000             -0.1166310              0.13975500
      9.4522100              0.0968328              0.33936200
      3.6656600              0.6144180              0.45092100
      1.4674600              0.4037980              0.23858600
SP   3   1.00
      2.1562300             -0.2529230             -0.01776530
      0.7489970              0.0328517              0.27405800
      0.2831450              1.0812500              0.78542100
SP   1   1.00
      0.0998317              1.0000000              1.00000000
D    1   1.00
      1.1000000              1.0000000
D    1   1.00
      0.2750000              1.0000000
F    1   1.00
      0.4500000              1.0000000
****
S     0
S    6   1.00
  21917.1000000              0.0018690
   3301.4900000              0.0142300
    754.1460000              0.0696960
    212.7110000              0.2384870
     67.9896000              0.4833070
     23.0515000              0.3380740
SP   6   1.00
    423.7350000             -0.0023767              0.0040610
    100.7100000             -0.0316930              0.0306810
     32.1599000             -0.1133170              0.1304520
     11.8079000              0.0560900              0.3272050
      4.6311000              0.5922550              0.4528510
      1.8702500              0.4550060              0.2560420
SP   3   1.00
      2.6158400             -0.2503740             -0.0145110
      0.9221670              0.0669570              0.3102630
      0.3412870              1.0545100              0.7544830
SP   1   1.00
      0.1171670              1.0000000              1.0000000
D    1   1.00
      1.3000000              1.0000000
D    1   1.00
      0.3250000              1.0000000
F    1   1.00
      0.5500000              1.0000000
****
Cl     0
S    6   1.00
  25180.1000000              0.0018330
   3780.3500000              0.0140340
    860.4740000              0.0690970
    242.1450000              0.2374520
     77.3349000              0.4830340
     26.2470000              0.3398560
SP   6   1.00
    491.7650000             -0.0022974              0.0039894
    116.9840000             -0.0307140              0.0303180
     37.4153000             -0.1125280              0.1298800
     13.7834000              0.0450160              0.3279510
      5.4521500              0.5893530              0.4535270
      2.2258800              0.4652060              0.2521540
SP   3   1.00
      3.1864900             -0.2518300             -0.0142990
      1.1442700              0.0615890              0.3235720
      0.4203770              1.0601800              0.7435070
SP   1   1.00
      0.1426570              1.0000000              1.0000000
D    1   1.00
      1.5000000              1.0000000
D    1   1.00
      0.3750000              1.0000000
F    1   1.00
      0.7000000              1.0000000
****
}

set {
reference uhf
freeze_core true
e_convergence 10
d_convergence 10
dft_spherical_points 1202
dft_radial_points 99
}

e = energy('b3lyp')

print_out('Grab this energy {0}'.format(e))
--------------------------------------------------------------------------

    Molecular point group: c1

    Geometry (in Bohr), charge = 0, multiplicity = 2:

       Center              X                  Y                   Z               Mass
    ------------   -----------------  -----------------  -----------------  -----------------
         C           -0.323340719585    -0.000428572805     0.000000515212    12.000000000000
         C            0.060115160315    -1.401859579505    -2.425916068588    12.000000000000
         C            0.063071179815     2.801580265995    -0.001600211888    12.000000000000
         C            0.060114313315    -1.399086771605     2.427516663612    12.000000000000
         H            2.087038836315    -1.643903989405    -2.847645407688     1.007825032230
         H           -0.765004692185    -0.388151756105    -4.025594984288     1.007825032230
         H           -0.765328054385    -3.292139289205    -2.349043528688     1.007825032230
         H            2.086596864915     3.287936053995     0.000617711612     1.007825032230
         H           -0.766094366285     3.680001634995     1.676591760412     1.007825032230
         H           -0.766482827485     3.680129453595    -1.675987946088     1.007825032230
         H            2.087036913715    -1.644980319205     2.847020788812     1.007825032230
         H           -0.764930274085    -3.292597011605     2.348624691812     1.007825032230
         H           -0.765399324385    -0.388739750005     4.025406217612     1.007825032230

  Charge       = 0
  Multiplicity = 2
  Basis Set: ANONYMOUS83CBC10C
    Blend: 6-31G_2DFP_
  Basis Set: (ANONYMOUS83CBC10C AUX)
    Blend: DEF2-UNIVERSAL-JKFIT

    Orbital Energies [Eh]
    ---------------------

    Alpha Occupied:

       1A    -10.180342     2A    -10.167046     3A    -10.167027
       4A    -10.166972     5A     -0.797766     6A     -0.686219
       7A     -0.686154     8A     -0.530776     9A     -0.441126
      10A     -0.434770    11A     -0.434571    12A     -0.382750
      13A     -0.382448    14A     -0.363611    15A     -0.338082
      16A     -0.337914    17A     -0.168961

    Alpha Virtual:

      18A      0.076072    19A      0.134123    20A      0.134188
      21A      0.142566    22A      0.142690    23A      0.154879
      24A      0.178665    25A      0.178893    26A      0.203545
      27A      0.214804    28A      0.275931    29A      0.276039
      30A      0.399066    31A      0.399389    32A      0.403347
      33A      0.424049    34A      0.424145    35A      0.456592
      36A      0.495361    37A      0.495419    38A      0.512153
      39A      0.513986    40A      0.578736    41A      0.578900
      42A      0.591513    43A      0.591752    44A      0.602572
      45A      0.624750    46A      0.631787    47A      0.636138
      48A      0.636355    49A      0.663242    50A      0.663583
      51A      0.683704    52A      0.684003    53A      0.734994
      54A      0.825395    55A      0.825419    56A      0.853916
      57A      0.915003    58A      0.915050    59A      0.944125
      60A      0.944615    61A      0.961206    62A      0.961377
      63A      1.003453    64A      1.128011    65A      1.128207
      66A      1.142217    67A      1.163181    68A      1.163358
      69A      1.223321    70A      1.274351    71A      1.274627
      72A      1.279356    73A      1.324099    74A      1.324611
      75A      1.355976    76A      1.365757    77A      1.366361
      78A      1.392461    79A      1.403940    80A      1.404174
      81A      1.416806    82A      1.417408    83A      1.427905
      84A      1.491454    85A      1.499127    86A      1.542780
      87A      1.542867    88A      1.574298    89A      1.574610
      90A      1.669826    91A      1.739021    92A      1.739815
      93A      1.768332    94A      1.831197    95A      1.831588
      96A      1.971731    97A      2.018261    98A      2.018431
      99A      2.019703   100A      2.052266   101A      2.053011
     102A      2.738445   103A      2.738525   104A      2.790918
     105A      2.811434   106A      2.889675   107A      2.890228
     108A      2.894941   109A      2.929462   110A      2.929536
     111A      2.958998   112A      2.964279   113A      2.964474
     114A      3.034009   115A      3.071172   116A      3.071390
     117A      3.084354   118A      3.168668   119A      3.168900
     120A      3.180586   121A      3.285279   122A      3.285348
     123A      3.327012   124A      3.327315   125A      3.375619
     126A      3.489864   127A      3.490463   128A      3.513987
     129A      3.525351   130A      3.568268   131A      3.568507
     132A      3.575148   133A      3.666091   134A      3.666677
     135A      3.679652   136A      3.694122   137A      3.694134
     138A      3.776779   139A      3.776841   140A      3.789117
     141A      3.912137   142A      3.912305   143A      4.034456
     144A      4.111283   145A      4.111466   146A      4.148070
     147A      4.148188   148A      4.173241   149A      4.202516
     150A      4.202885   151A      4.203378   152A      4.210850
     153A      4.315516   154A      4.316382   155A      4.358983
     156A      4.424327   157A      4.424576   158A      4.443412
     159A      4.515799   160A      4.517897   161A      4.578074
     162A      4.578482   163A      4.617532   164A      4.709450
     165A      4.774080   166A      4.775105   167A      4.836915
     168A      4.962863   169A      5.002483   170A      5.003395
     171A      5.228050   172A      5.246793   173A      5.246838
     174A      5.355235   175A      5.355778   176A      5.479352

    Beta Occupied:

       1A    -10.167800     2A    -10.167786     3A    -10.167738
       4A    -10.166519     5A     -0.781091     6A     -0.684022
       7A     -0.683957     8A     -0.511747     9A     -0.431149
      10A     -0.430937    11A     -0.421822    12A     -0.376843
      13A     -0.376524    14A     -0.362595    15A     -0.333207
      16A     -0.333035

    Beta Virtual:

      17A     -0.025742    18A      0.077081    19A      0.135020
      20A      0.135069    21A      0.144441    22A      0.144556
      23A      0.163338    24A      0.182335    25A      0.182566
      26A      0.215027    27A      0.218935    28A      0.282282
      29A      0.282384    30A      0.400237    31A      0.400559
      32A      0.419791    33A      0.426858    34A      0.426958
      35A      0.468500    36A      0.497625    37A      0.497675
      38A      0.513895    39A      0.556325    40A      0.584290
      41A      0.584445    42A      0.597688    43A      0.597936
      44A      0.609996    45A      0.628119    46A      0.631950
      47A      0.639423    48A      0.639642    49A      0.666822
      50A      0.667131    51A      0.686337    52A      0.686641
      53A      0.757518    54A      0.830565    55A      0.830585
      56A      0.855270    57A      0.922975    58A      0.923021
      59A      0.945963    60A      0.953543    61A      0.966505
      62A      0.966689    63A      1.008693    64A      1.132000
      65A      1.132273    66A      1.155597    67A      1.168301
      68A      1.168384    69A      1.232294    70A      1.279943
      71A      1.280229    72A      1.285108    73A      1.329078
      74A      1.329610    75A      1.365389    76A      1.370999
      77A      1.371604    78A      1.393522    79A      1.407392
      80A      1.407653    81A      1.421872    82A      1.422443
      83A      1.428174    84A      1.492521    85A      1.509550
      86A      1.547204    87A      1.547259    88A      1.582224
      89A      1.582427    90A      1.674672    91A      1.744789
      92A      1.745571    93A      1.779112    94A      1.835053
      95A      1.835443    96A      1.972591    97A      2.024814
      98A      2.026080    99A      2.039682   100A      2.059006
     101A      2.059698   102A      2.746785   103A      2.746856
     104A      2.811804   105A      2.816095   106A      2.902372
     107A      2.902907   108A      2.924651   109A      2.931944
     110A      2.932014   111A      2.960060   112A      2.968828
     113A      2.969014   114A      3.041944   115A      3.081088
     116A      3.081285   117A      3.086181   118A      3.184442
     119A      3.184624   120A      3.188270   121A      3.290086
     122A      3.290137   123A      3.330803   124A      3.331133
     125A      3.383437   126A      3.492595   127A      3.493192
     128A      3.512358   129A      3.528388   130A      3.575006
     131A      3.581673   132A      3.581784   133A      3.670898
     134A      3.671363   135A      3.692947   136A      3.725606
     137A      3.725916   138A      3.781315   139A      3.781355
     140A      3.817663   141A      3.921937   142A      3.922138
     143A      4.045343   144A      4.118152   145A      4.118228
     146A      4.155232   147A      4.155441   148A      4.187304
     149A      4.208823   150A      4.209134   151A      4.210664
     152A      4.215324   153A      4.322932   154A      4.323845
     155A      4.362348   156A      4.432555   157A      4.432780
     158A      4.446294   159A      4.523593   160A      4.525683
     161A      4.588691   162A      4.589069   163A      4.624724
     164A      4.719795   165A      4.781051   166A      4.782040
     167A      4.839832   168A      4.967658   169A      5.006540
     170A      5.007417   171A      5.233766   172A      5.248576
     173A      5.248623   174A      5.361717   175A      5.362257
     176A      5.481674

    Final Occupation by Irrep:
              A
    DOCC [    16 ]
    SOCC [     1 ]

  @DF-UKS Final Energy:  -157.81306943406153

   => Energetics <=

    Nuclear Repulsion Energy =            125.3946060309947796
    One-Electron Energy =                -458.7488770897336963
    Two-Electron Energy =                 195.8483440915489950
    DFT Exchange-Correlation Energy =     -20.3071424668716247
    Empirical Dispersion Energy =           0.0000000000000000
    VV10 Nonlocal Energy =                  0.0000000000000000
    Total Energy =                       -157.8130694340615321

  UHF NO Occupations:
  HONO-2 :   15  A 1.9996009
  HONO-1 :   16  A 1.9989805
  HONO-0 :   17  A 1.0000000
  LUNO+0 :   18  A 0.0010195
  LUNO+1 :   19  A 0.0003991
  LUNO+2 :   20  A 0.0001977
  LUNO+3 :   21  A 0.0001974

Computation Completed

Properties will be evaluated at   0.000000,   0.000000,   0.000000 [a0]

Properties computed using the SCF density matrix

  Nuclear Dipole Moment: [e a0]
     X:     0.8272      Y:    -0.0012      Z:    -0.0000

  Electronic Dipole Moment: [e a0]
     X:    -0.7493      Y:     0.0011      Z:     0.0000

  Dipole Moment: [e a0]
     X:     0.0779      Y:    -0.0001      Z:    -0.0000     Total:     0.0779

  Dipole Moment: [D]
     X:     0.1980      Y:    -0.0003      Z:    -0.0000     Total:     0.1980

*** tstop() called on n040 at Fri Nov  5 12:28:15 2021
Module time:
	user time   =     632.97 seconds =      10.55 minutes
	system time =      12.26 seconds =       0.20 minutes
	total time  =        162 seconds =       2.70 minutes
Total time:
	user time   =     632.97 seconds =      10.55 minutes
	system time =      12.26 seconds =       0.20 minutes
	total time  =        162 seconds =       2.70 minutes
Grab this energy -157.81306943406153
    Psi4 stopped on: Friday, 05 November 2021 12:28PM
    Psi4 wall time for execution: 0:02:42.21

*** Psi4 exiting successfully. Buy a developer a beer!
