                               Psi4 1.4a2.dev629

  ==> Input File <==

--------------------------------------------------------------------------
import os
memory 14 GB

molecule {
 C   -0.3247808332   -0.0000020123    0.0000000000
 C    0.0621798466   -1.4016496318   -2.4277183734
 C    0.0620598831    2.8033025495    0.0000000000
 C    0.0621798466   -1.4016496318    2.4277183734
 H    2.0869395112   -1.6438710005   -2.8470480529
 H   -0.7656863604   -0.3879380059   -4.0250839177
 H   -0.7658495374   -3.2917969805   -2.3485435082
 H    2.0868005610    3.2876497802   -0.0000000000
 H   -0.7659272039    3.6797683033    1.6765466336
 H   -0.7659272039    3.6797683033   -1.6765466336
 H    2.0869395112   -1.6438710005    2.8470480529
 H   -0.7658495374   -3.2917969805    2.3485435082
 H   -0.7656863604   -0.3879380059    4.0250839177
units bohr
0 2
}

basis {

assign 6-31g_2dfp_

[ 6-31g_2dfp_ ]

spherical

!----------------------------------------------------------------------
! Basis Set Exchange
! Version v0.8.13
! https://www.basissetexchange.org
!----------------------------------------------------------------------
!   Basis set: 6-31G(2df,p)
! Description: 6-31G(2df,p)
!        Role: orbital
!     Version: 0  (Data from the original Basis Set Exchange)
!----------------------------------------------------------------------

****
H     0
S    3   1.00
     18.7311370              0.03349460
      2.8253937              0.23472695
      0.6401217              0.81375733
S    1   1.00
      0.1612778              1.00000000
P    1   1.00
      1.5000000              1.0000000
P    1   1.00
      0.3750000              1.0000000
****
B     0
S    6   1.00
   2068.8823000              0.0018663
    310.6495700              0.0142515
     70.6830330              0.0695516
     19.8610800              0.2325729
      6.2993048              0.4670787
      2.1270270              0.3634314
SP   3   1.00
      4.7279710             -0.1303938              0.0745976
      1.1903377             -0.1307889              0.3078467
      0.3594117              1.1309444              0.7434568
SP   1   1.00
      0.1267512              1.0000000              1.0000000
D    1   1.00
      0.8020000              1.0000000
D    1   1.00
      0.2005000              1.0000000
F    1   1.00
      0.5000000              1.0000000
****
C     0
S    6   1.00
   3047.5249000              0.0018347
    457.3695100              0.0140373
    103.9486900              0.0688426
     29.2101550              0.2321844
      9.2866630              0.4679413
      3.1639270              0.3623120
SP   3   1.00
      7.8682724             -0.1193324              0.0689991
      1.8812885             -0.1608542              0.3164240
      0.5442493              1.1434564              0.7443083
SP   1   1.00
      0.1687144              1.0000000              1.0000000
D    1   1.00
      1.2520000              1.0000000
D    1   1.00
      0.3130000              1.0000000
F    1   1.00
      0.8000000              1.0000000
****
N     0
S    6   1.00
   4173.5110000              0.0018348
    627.4579000              0.0139950
    142.9021000              0.0685870
     40.2343300              0.2322410
     12.8202100              0.4690700
      4.3904370              0.3604550
SP   3   1.00
     11.6263580             -0.1149610              0.0675800
      2.7162800             -0.1691180              0.3239070
      0.7722180              1.1458520              0.7408950
SP   1   1.00
      0.2120313              1.0000000              1.0000000
D    1   1.00
      1.8260000              1.0000000
D    1   1.00
      0.4565000              1.0000000
F    1   1.00
      1.0000000              1.0000000
****
O     0
S    6   1.00
   5484.6717000              0.0018311
    825.2349500              0.0139501
    188.0469600              0.0684451
     52.9645000              0.2327143
     16.8975700              0.4701930
      5.7996353              0.3585209
SP   3   1.00
     15.5396160             -0.1107775              0.0708743
      3.5999336             -0.1480263              0.3397528
      1.0137618              1.1307670              0.7271586
SP   1   1.00
      0.2700058              1.0000000              1.0000000
D    1   1.00
      2.5840000              1.0000000
D    1   1.00
      0.6460000              1.0000000
F    1   1.00
      1.4000000              1.0000000
****
F     0
S    6   1.00
   7001.7130900              0.0018196169
   1051.3660900              0.0139160796
    239.2856900              0.0684053245
     67.3974453              0.233185760
     21.5199573              0.471267439
      7.40310130             0.356618546
SP   3   1.00
     20.8479528             -0.108506975            0.0716287243
      4.80830834            -0.146451658            0.3459121030
      1.34406986             1.128688580            0.7224699570
SP   1   1.00
      0.358151393            1.0000000              1.0000000
D    1   1.00
      3.5000000              1.0000000
D    1   1.00
      0.8750000              1.0000000
F    1   1.00
      1.8500000              1.0000000
****
Al     0
S    6   1.00
  13983.1000000              0.00194267
   2098.7500000              0.0148599
    477.7050000              0.0728494
    134.3600000              0.2468300
     42.8709000              0.4872580
     14.5189000              0.3234960
SP   6   1.00
    239.6680000             -0.00292619             0.00460285
     57.4419000             -0.0374080              0.0331990
     18.2859000             -0.1144870              0.1362820
      6.5991400              0.1156350              0.3304760
      2.4904900              0.6125950              0.4491460
      0.9445400              0.3937990              0.2657040
SP   3   1.00
      1.2779000             -0.2276060             -0.0175130
      0.3975900              0.00144583             0.2445330
      0.1600950              1.0927900              0.8049340
SP   1   1.00
      0.0556577              1.0000000              1.0000000
D    1   1.00
      0.6500000              1.0000000
D    1   1.00
      0.1625000              1.0000000
F    1   1.00
      0.2500000              1.0000000
****
Si     0
S    6   1.00
  16115.9000000              0.00195948
   2425.5800000              0.01492880
    553.8670000              0.07284780
    156.3400000              0.24613000
     50.0683000              0.48591400
     17.0178000              0.32500200
SP   6   1.00
    292.7180000             -0.00278094             0.00443826
     69.8731000             -0.03571460             0.03266790
     22.3363000             -0.11498500             0.13472100
      8.1503900              0.09356340             0.32867800
      3.1345800              0.60301700             0.44964000
      1.2254300              0.41895900             0.26137200
SP   3   1.00
      1.7273800             -0.24463000            -0.01779510
      0.5729220              0.00431572             0.25353900
      0.2221920              1.09818000             0.80066900
SP   1   1.00
      0.0778369              1.00000000             1.00000000
D    1   1.00
      0.9000000              1.0000000
D    1   1.00
      0.2250000              1.0000000
F    1   1.00
      0.3200000              1.0000000
****
P     0
S    6   1.00
  19413.3000000              0.0018516
   2909.4200000              0.0142062
    661.3640000              0.0699995
    185.7590000              0.2400790
     59.1943000              0.4847620
     20.0310000              0.3352000
SP   6   1.00
    339.4780000             -0.00278217             0.00456462
     81.0101000             -0.0360499              0.03369360
     25.8780000             -0.1166310              0.13975500
      9.4522100              0.0968328              0.33936200
      3.6656600              0.6144180              0.45092100
      1.4674600              0.4037980              0.23858600
SP   3   1.00
      2.1562300             -0.2529230             -0.01776530
      0.7489970              0.0328517              0.27405800
      0.2831450              1.0812500              0.78542100
SP   1   1.00
      0.0998317              1.0000000              1.00000000
D    1   1.00
      1.1000000              1.0000000
D    1   1.00
      0.2750000              1.0000000
F    1   1.00
      0.4500000              1.0000000
****
S     0
S    6   1.00
  21917.1000000              0.0018690
   3301.4900000              0.0142300
    754.1460000              0.0696960
    212.7110000              0.2384870
     67.9896000              0.4833070
     23.0515000              0.3380740
SP   6   1.00
    423.7350000             -0.0023767              0.0040610
    100.7100000             -0.0316930              0.0306810
     32.1599000             -0.1133170              0.1304520
     11.8079000              0.0560900              0.3272050
      4.6311000              0.5922550              0.4528510
      1.8702500              0.4550060              0.2560420
SP   3   1.00
      2.6158400             -0.2503740             -0.0145110
      0.9221670              0.0669570              0.3102630
      0.3412870              1.0545100              0.7544830
SP   1   1.00
      0.1171670              1.0000000              1.0000000
D    1   1.00
      1.3000000              1.0000000
D    1   1.00
      0.3250000              1.0000000
F    1   1.00
      0.5500000              1.0000000
****
Cl     0
S    6   1.00
  25180.1000000              0.0018330
   3780.3500000              0.0140340
    860.4740000              0.0690970
    242.1450000              0.2374520
     77.3349000              0.4830340
     26.2470000              0.3398560
SP   6   1.00
    491.7650000             -0.0022974              0.0039894
    116.9840000             -0.0307140              0.0303180
     37.4153000             -0.1125280              0.1298800
     13.7834000              0.0450160              0.3279510
      5.4521500              0.5893530              0.4535270
      2.2258800              0.4652060              0.2521540
SP   3   1.00
      3.1864900             -0.2518300             -0.0142990
      1.1442700              0.0615890              0.3235720
      0.4203770              1.0601800              0.7435070
SP   1   1.00
      0.1426570              1.0000000              1.0000000
D    1   1.00
      1.5000000              1.0000000
D    1   1.00
      0.3750000              1.0000000
F    1   1.00
      0.7000000              1.0000000
****
}

set {
reference uhf
freeze_core true
e_convergence 10
d_convergence 10
dft_spherical_points 1202
dft_radial_points 99
}

e = energy('b3lyp')

print_out('Grab this energy {0}'.format(e))
--------------------------------------------------------------------------

    Molecular point group: cs

    Geometry (in Bohr), charge = 0, multiplicity = 2:

       Center              X                  Y                   Z               Mass
    ------------   -----------------  -----------------  -----------------  -----------------
         C           -0.325104168290    -0.000001828246     0.000000000000    12.000000000000
         C            0.061856511510    -1.401649447746    -2.427718373400    12.000000000000
         C            0.061736548010     2.803302733554     0.000000000000    12.000000000000
         C            0.061856511510    -1.401649447746     2.427718373400    12.000000000000
         H            2.086616176110    -1.643870816446    -2.847048052900     1.007825032230
         H           -0.766009695490    -0.387937821846    -4.025083917700     1.007825032230
         H           -0.766172872490    -3.291796796446    -2.348543508200     1.007825032230
         H            2.086477225910     3.287649964254     0.000000000000     1.007825032230
         H           -0.766250538990     3.679768487354     1.676546633600     1.007825032230
         H           -0.766250538990     3.679768487354    -1.676546633600     1.007825032230
         H            2.086616176110    -1.643870816446     2.847048052900     1.007825032230
         H           -0.766172872490    -3.291796796446     2.348543508200     1.007825032230
         H           -0.766009695490    -0.387937821846     4.025083917700     1.007825032230

  Charge       = 0
  Multiplicity = 2
  Basis Set: ANONYMOUS6DD2A408
    Blend: 6-31G_2DFP_
  Basis Set: (ANONYMOUS6DD2A408 AUX)
    Blend: DEF2-UNIVERSAL-JKFIT

    Orbital Energies [Eh]
    ---------------------

    Alpha Occupied:

       1Ap   -10.180459     2Ap   -10.166969     1App  -10.166969
       3Ap   -10.166924     4Ap    -0.797493     5Ap    -0.686160
       2App   -0.686160     6Ap    -0.530615     7Ap    -0.441170
       3App   -0.434541     8Ap    -0.434540     9Ap    -0.382844
       4App   -0.382843     5App   -0.363686    10Ap    -0.337747
       6App   -0.337747    11Ap    -0.169124

    Alpha Virtual:

      12Ap     0.076084    13Ap     0.134210     7App    0.134211
      14Ap     0.142739     8App    0.142739    15Ap     0.154853
      16Ap     0.179012     9App    0.179012    17Ap     0.203282
      10App    0.214879    11App    0.275570    18Ap     0.275572
      19Ap     0.399213    12App    0.399218    20Ap     0.403355
      13App    0.424123    21Ap     0.424123    22Ap     0.456506
      23Ap     0.495373    14App    0.495374    15App    0.512261
      24Ap     0.513937    25Ap     0.578982    16App    0.578990
      17App    0.591761    26Ap     0.591763    27Ap     0.602832
      28Ap     0.624802    18App    0.631947    19App    0.636030
      29Ap     0.636034    30Ap     0.663456    20App    0.663456
      31Ap     0.683756    21App    0.683757    32Ap     0.734929
      22App    0.825331    33Ap     0.825334    23App    0.853781
      24App    0.915001    34Ap     0.915006    25App    0.944129
      35Ap     0.944350    26App    0.961366    36Ap     0.961382
      37Ap     1.003624    38Ap     1.128126    27App    1.128138
      39Ap     1.141817    40Ap     1.164304    28App    1.164316
      41Ap     1.222742    42Ap     1.274297    29App    1.274300
      43Ap     1.279432    30App    1.323907    44Ap     1.323909
      45Ap     1.355894    31App    1.365537    46Ap     1.365542
      32App    1.392948    47Ap     1.404820    33App    1.404822
      34App    1.417354    48Ap     1.417361    35App    1.428218
      36App    1.490788    49Ap     1.500054    37App    1.542713
      50Ap     1.542715    51Ap     1.574059    38App    1.574061
      52Ap     1.670342    53Ap     1.738658    39App    1.738670
      54Ap     1.768397    40App    1.831451    55Ap     1.831451
      41App    1.970871    56Ap     2.017512    57Ap     2.018590
      42App    2.018593    58Ap     2.052608    43App    2.052609
      44App    2.738115    59Ap     2.738116    60Ap     2.790893
      45App    2.811311    61Ap     2.889601    46App    2.889607
      62Ap     2.894852    63Ap     2.929664    47App    2.929672
      48App    2.958977    64Ap     2.964286    49App    2.964300
      65Ap     3.034186    50App    3.070486    66Ap     3.070500
      51App    3.083875    67Ap     3.168797    52App    3.168804
      68Ap     3.179958    53App    3.286439    69Ap     3.286439
      70Ap     3.327271    54App    3.327276    71Ap     3.375871
      55App    3.489833    72Ap     3.489853    56App    3.513683
      73Ap     3.525434    57App    3.567849    74Ap     3.567870
      58App    3.575896    75Ap     3.666583    59App    3.666591
      76Ap     3.680012    60App    3.694289    77Ap     3.694304
      78Ap     3.776464    61App    3.776489    79Ap     3.788141
      80Ap     3.911098    62App    3.911104    81Ap     4.033593
      82Ap     4.111408    63App    4.111412    83Ap     4.148103
      64App    4.148111    84Ap     4.172521    85Ap     4.201415
      65App    4.202676    86Ap     4.202680    66App    4.210544
      87Ap     4.316254    67App    4.316274    68App    4.360090
      88Ap     4.425491    69App    4.425493    70App    4.445133
      71App    4.516799    89Ap     4.516801    72App    4.577665
      90Ap     4.577677    91Ap     4.616643    92Ap     4.708494
      93Ap     4.773627    73App    4.773635    74App    4.834368
      94Ap     4.964279    75App    5.003974    95Ap     5.003985
      96Ap     5.228463    76App    5.246984    97Ap     5.246984
      98Ap     5.355061    77App    5.355074    78App    5.477768

    Beta Occupied:

       1Ap   -10.167718     1App  -10.167718     2Ap   -10.167695
       3Ap   -10.166621     4Ap    -0.780838     5Ap    -0.683966
       2App   -0.683966     6Ap    -0.511532     3App   -0.430920
       7Ap    -0.430920     8Ap    -0.421942     9Ap    -0.376956
       4App   -0.376954     5App   -0.362673     6App   -0.332859
      10Ap    -0.332859

    Beta Virtual:

      11Ap    -0.025674    12Ap     0.077085    13Ap     0.135082
       7App    0.135082    14Ap     0.144609     8App    0.144610
      15Ap     0.163260    16Ap     0.182669     9App    0.182670
      10App    0.215106    17Ap     0.218691    11App    0.281949
      18Ap     0.281952    19Ap     0.400375    12App    0.400379
      20Ap     0.419768    13App    0.426934    21Ap     0.426935
      22Ap     0.468352    23Ap     0.497631    14App    0.497632
      15App    0.513982    24Ap     0.556314    25Ap     0.584520
      16App    0.584528    17App    0.597956    26Ap     0.597957
      27Ap     0.610237    28Ap     0.628162    18App    0.632098
      19App    0.639305    29Ap     0.639309    30Ap     0.667021
      20App    0.667021    31Ap     0.686374    21App    0.686375
      32Ap     0.757550    22App    0.830488    33Ap     0.830490
      23App    0.855118    24App    0.922985    34Ap     0.922992
      25App    0.945954    35Ap     0.953260    26App    0.966630
      36Ap     0.966646    37Ap     1.008892    38Ap     1.132168
      27App    1.132179    39Ap     1.155129    40Ap     1.169384
      28App    1.169396    41Ap     1.231770    42Ap     1.279877
      29App    1.279881    43Ap     1.285217    30App    1.328882
      44Ap     1.328884    45Ap     1.365276    31App    1.370836
      46Ap     1.370841    32App    1.393988    47Ap     1.408256
      33App    1.408259    34App    1.422380    48Ap     1.422387
      35App    1.428504    36App    1.491821    49Ap     1.510483
      50Ap     1.547097    37App    1.547098    38App    1.581951
      51Ap     1.581952    52Ap     1.675211    53Ap     1.744420
      39App    1.744431    54Ap     1.779117    40App    1.835273
      55Ap     1.835273    41App    1.971722    56Ap     2.024929
      42App    2.024931    57Ap     2.038887    58Ap     2.059381
      43App    2.059381    44App    2.746482    59Ap     2.746483
      45App    2.811732    60Ap     2.816043    61Ap     2.902372
      46App    2.902378    62Ap     2.924510    63Ap     2.932102
      47App    2.932111    48App    2.960040    64Ap     2.968810
      49App    2.968824    65Ap     3.042037    50App    3.080393
      66Ap     3.080404    51App    3.085679    67Ap     3.184547
      52App    3.184550    68Ap     3.187709    69Ap     3.291148
      53App    3.291149    70Ap     3.331089    54App    3.331094
      71Ap     3.383667    55App    3.492573    72Ap     3.492593
      56App    3.512053    73Ap     3.528526    57App    3.575755
      58App    3.581300    74Ap     3.581322    75Ap     3.671495
      59App    3.671507    76Ap     3.693306    60App    3.725811
      77Ap     3.725827    78Ap     3.780968    61App    3.780994
      79Ap     3.816733    80Ap     3.920915    62App    3.920921
      81Ap     4.044588    82Ap     4.118115    63App    4.118117
      83Ap     4.155374    64App    4.155383    84Ap     4.186489
      65App    4.208618    85Ap     4.208622    86Ap     4.209355
      66App    4.214976    87Ap     4.323808    67App    4.323828
      68App    4.363430    88Ap     4.433600    69App    4.433602
      70App    4.448014    71App    4.524509    89Ap     4.524511
      72App    4.588282    90Ap     4.588294    91Ap     4.623806
      92Ap     4.718863    93Ap     4.780597    73App    4.780605
      74App    4.837298    94Ap     4.969049    75App    5.007976
      95Ap     5.007988    96Ap     5.234163    76App    5.248758
      97Ap     5.248758    98Ap     5.361522    77App    5.361535
      78App    5.480088

    Final Occupation by Irrep:
             Ap   App
    DOCC [    10,    6 ]
    SOCC [     1,    0 ]

  @DF-UKS Final Energy:  -157.81304034470867

   => Energetics <=

    Nuclear Repulsion Energy =            125.3642362533186514
    One-Electron Energy =                -458.6892090957312575
    Two-Electron Energy =                 195.8191221559634698
    DFT Exchange-Correlation Energy =     -20.3071896582595350
    Empirical Dispersion Energy =           0.0000000000000000
    VV10 Nonlocal Energy =                  0.0000000000000000
    Total Energy =                       -157.8130403447086678

  UHF NO Occupations:
  HONO-2 :    9 Ap 1.9996040
  HONO-1 :   10 Ap 1.9989797
  HONO-0 :   11 Ap 1.0000000
  LUNO+0 :   12 Ap 0.0010203
  LUNO+1 :   13 Ap 0.0003960
  LUNO+2 :    7App 0.0001984
  LUNO+3 :   14 Ap 0.0001984

Computation Completed

Properties will be evaluated at   0.000000,   0.000000,   0.000000 [a0]

Properties computed using the SCF density matrix

  Nuclear Dipole Moment: [e a0]
     X:     0.8249      Y:    -0.0000      Z:     0.0000

  Electronic Dipole Moment: [e a0]
     X:    -0.7461      Y:     0.0000      Z:     0.0000

  Dipole Moment: [e a0]
     X:     0.0788      Y:    -0.0000      Z:     0.0000     Total:     0.0788

  Dipole Moment: [D]
     X:     0.2003      Y:    -0.0000      Z:     0.0000     Total:     0.2003

*** tstop() called on n070 at Fri Nov  5 11:32:03 2021
Module time:
	user time   =     571.22 seconds =       9.52 minutes
	system time =      13.08 seconds =       0.22 minutes
	total time  =        147 seconds =       2.45 minutes
Total time:
	user time   =     571.22 seconds =       9.52 minutes
	system time =      13.08 seconds =       0.22 minutes
	total time  =        147 seconds =       2.45 minutes
Grab this energy -157.81304034470867
    Psi4 stopped on: Friday, 05 November 2021 11:32AM
    Psi4 wall time for execution: 0:02:27.10

*** Psi4 exiting successfully. Buy a developer a beer!
