                               Psi4 1.4a2.dev629

  ==> Input File <==

--------------------------------------------------------------------------
import os
memory 14 GB

molecule {
 C   -0.3233331482    0.0049901620    0.0000017389
 C    0.0614407792   -1.4028794863   -2.4206431159
 C    0.0604184592    2.8096670242    0.0008005497
 C    0.0614413146   -1.4042581533    2.4198441702
 H    2.0873230112   -1.6487885326   -2.8394302674
 H   -0.7618192118   -0.3980688915   -4.0279145163
 H   -0.7680991860   -3.2906045615   -2.3324875118
 H    2.0860206358    3.2972601076    0.0015845996
 H   -0.7660303978    3.6926073063    1.6777028975
 H   -0.7673725056    3.6837371713   -1.6756804122
 H    2.0873221984   -1.6515226100    2.8378410509
 H   -0.7667533750   -3.2968147070    2.3391381656
 H   -0.7631664508   -0.3953491429    4.0192426514
units bohr
0 2
}

basis {

assign 6-31g_2dfp_

[ 6-31g_2dfp_ ]

spherical

!----------------------------------------------------------------------
! Basis Set Exchange
! Version v0.8.13
! https://www.basissetexchange.org
!----------------------------------------------------------------------
!   Basis set: 6-31G(2df,p)
! Description: 6-31G(2df,p)
!        Role: orbital
!     Version: 0  (Data from the original Basis Set Exchange)
!----------------------------------------------------------------------

****
H     0
S    3   1.00
     18.7311370              0.03349460
      2.8253937              0.23472695
      0.6401217              0.81375733
S    1   1.00
      0.1612778              1.00000000
P    1   1.00
      1.5000000              1.0000000
P    1   1.00
      0.3750000              1.0000000
****
B     0
S    6   1.00
   2068.8823000              0.0018663
    310.6495700              0.0142515
     70.6830330              0.0695516
     19.8610800              0.2325729
      6.2993048              0.4670787
      2.1270270              0.3634314
SP   3   1.00
      4.7279710             -0.1303938              0.0745976
      1.1903377             -0.1307889              0.3078467
      0.3594117              1.1309444              0.7434568
SP   1   1.00
      0.1267512              1.0000000              1.0000000
D    1   1.00
      0.8020000              1.0000000
D    1   1.00
      0.2005000              1.0000000
F    1   1.00
      0.5000000              1.0000000
****
C     0
S    6   1.00
   3047.5249000              0.0018347
    457.3695100              0.0140373
    103.9486900              0.0688426
     29.2101550              0.2321844
      9.2866630              0.4679413
      3.1639270              0.3623120
SP   3   1.00
      7.8682724             -0.1193324              0.0689991
      1.8812885             -0.1608542              0.3164240
      0.5442493              1.1434564              0.7443083
SP   1   1.00
      0.1687144              1.0000000              1.0000000
D    1   1.00
      1.2520000              1.0000000
D    1   1.00
      0.3130000              1.0000000
F    1   1.00
      0.8000000              1.0000000
****
N     0
S    6   1.00
   4173.5110000              0.0018348
    627.4579000              0.0139950
    142.9021000              0.0685870
     40.2343300              0.2322410
     12.8202100              0.4690700
      4.3904370              0.3604550
SP   3   1.00
     11.6263580             -0.1149610              0.0675800
      2.7162800             -0.1691180              0.3239070
      0.7722180              1.1458520              0.7408950
SP   1   1.00
      0.2120313              1.0000000              1.0000000
D    1   1.00
      1.8260000              1.0000000
D    1   1.00
      0.4565000              1.0000000
F    1   1.00
      1.0000000              1.0000000
****
O     0
S    6   1.00
   5484.6717000              0.0018311
    825.2349500              0.0139501
    188.0469600              0.0684451
     52.9645000              0.2327143
     16.8975700              0.4701930
      5.7996353              0.3585209
SP   3   1.00
     15.5396160             -0.1107775              0.0708743
      3.5999336             -0.1480263              0.3397528
      1.0137618              1.1307670              0.7271586
SP   1   1.00
      0.2700058              1.0000000              1.0000000
D    1   1.00
      2.5840000              1.0000000
D    1   1.00
      0.6460000              1.0000000
F    1   1.00
      1.4000000              1.0000000
****
F     0
S    6   1.00
   7001.7130900              0.0018196169
   1051.3660900              0.0139160796
    239.2856900              0.0684053245
     67.3974453              0.233185760
     21.5199573              0.471267439
      7.40310130             0.356618546
SP   3   1.00
     20.8479528             -0.108506975            0.0716287243
      4.80830834            -0.146451658            0.3459121030
      1.34406986             1.128688580            0.7224699570
SP   1   1.00
      0.358151393            1.0000000              1.0000000
D    1   1.00
      3.5000000              1.0000000
D    1   1.00
      0.8750000              1.0000000
F    1   1.00
      1.8500000              1.0000000
****
Al     0
S    6   1.00
  13983.1000000              0.00194267
   2098.7500000              0.0148599
    477.7050000              0.0728494
    134.3600000              0.2468300
     42.8709000              0.4872580
     14.5189000              0.3234960
SP   6   1.00
    239.6680000             -0.00292619             0.00460285
     57.4419000             -0.0374080              0.0331990
     18.2859000             -0.1144870              0.1362820
      6.5991400              0.1156350              0.3304760
      2.4904900              0.6125950              0.4491460
      0.9445400              0.3937990              0.2657040
SP   3   1.00
      1.2779000             -0.2276060             -0.0175130
      0.3975900              0.00144583             0.2445330
      0.1600950              1.0927900              0.8049340
SP   1   1.00
      0.0556577              1.0000000              1.0000000
D    1   1.00
      0.6500000              1.0000000
D    1   1.00
      0.1625000              1.0000000
F    1   1.00
      0.2500000              1.0000000
****
Si     0
S    6   1.00
  16115.9000000              0.00195948
   2425.5800000              0.01492880
    553.8670000              0.07284780
    156.3400000              0.24613000
     50.0683000              0.48591400
     17.0178000              0.32500200
SP   6   1.00
    292.7180000             -0.00278094             0.00443826
     69.8731000             -0.03571460             0.03266790
     22.3363000             -0.11498500             0.13472100
      8.1503900              0.09356340             0.32867800
      3.1345800              0.60301700             0.44964000
      1.2254300              0.41895900             0.26137200
SP   3   1.00
      1.7273800             -0.24463000            -0.01779510
      0.5729220              0.00431572             0.25353900
      0.2221920              1.09818000             0.80066900
SP   1   1.00
      0.0778369              1.00000000             1.00000000
D    1   1.00
      0.9000000              1.0000000
D    1   1.00
      0.2250000              1.0000000
F    1   1.00
      0.3200000              1.0000000
****
P     0
S    6   1.00
  19413.3000000              0.0018516
   2909.4200000              0.0142062
    661.3640000              0.0699995
    185.7590000              0.2400790
     59.1943000              0.4847620
     20.0310000              0.3352000
SP   6   1.00
    339.4780000             -0.00278217             0.00456462
     81.0101000             -0.0360499              0.03369360
     25.8780000             -0.1166310              0.13975500
      9.4522100              0.0968328              0.33936200
      3.6656600              0.6144180              0.45092100
      1.4674600              0.4037980              0.23858600
SP   3   1.00
      2.1562300             -0.2529230             -0.01776530
      0.7489970              0.0328517              0.27405800
      0.2831450              1.0812500              0.78542100
SP   1   1.00
      0.0998317              1.0000000              1.00000000
D    1   1.00
      1.1000000              1.0000000
D    1   1.00
      0.2750000              1.0000000
F    1   1.00
      0.4500000              1.0000000
****
S     0
S    6   1.00
  21917.1000000              0.0018690
   3301.4900000              0.0142300
    754.1460000              0.0696960
    212.7110000              0.2384870
     67.9896000              0.4833070
     23.0515000              0.3380740
SP   6   1.00
    423.7350000             -0.0023767              0.0040610
    100.7100000             -0.0316930              0.0306810
     32.1599000             -0.1133170              0.1304520
     11.8079000              0.0560900              0.3272050
      4.6311000              0.5922550              0.4528510
      1.8702500              0.4550060              0.2560420
SP   3   1.00
      2.6158400             -0.2503740             -0.0145110
      0.9221670              0.0669570              0.3102630
      0.3412870              1.0545100              0.7544830
SP   1   1.00
      0.1171670              1.0000000              1.0000000
D    1   1.00
      1.3000000              1.0000000
D    1   1.00
      0.3250000              1.0000000
F    1   1.00
      0.5500000              1.0000000
****
Cl     0
S    6   1.00
  25180.1000000              0.0018330
   3780.3500000              0.0140340
    860.4740000              0.0690970
    242.1450000              0.2374520
     77.3349000              0.4830340
     26.2470000              0.3398560
SP   6   1.00
    491.7650000             -0.0022974              0.0039894
    116.9840000             -0.0307140              0.0303180
     37.4153000             -0.1125280              0.1298800
     13.7834000              0.0450160              0.3279510
      5.4521500              0.5893530              0.4535270
      2.2258800              0.4652060              0.2521540
SP   3   1.00
      3.1864900             -0.2518300             -0.0142990
      1.1442700              0.0615890              0.3235720
      0.4203770              1.0601800              0.7435070
SP   1   1.00
      0.1426570              1.0000000              1.0000000
D    1   1.00
      1.5000000              1.0000000
D    1   1.00
      0.3750000              1.0000000
F    1   1.00
      0.7000000              1.0000000
****
}

set {
reference uhf
freeze_core true
e_convergence 10
d_convergence 10
dft_spherical_points 1202
dft_radial_points 99
}

e = energy('b3lyp')

print_out('Grab this energy {0}'.format(e))
--------------------------------------------------------------------------

    Molecular point group: c1

    Geometry (in Bohr), charge = 0, multiplicity = 2:

       Center              X                  Y                   Z               Mass
    ------------   -----------------  -----------------  -----------------  -----------------
         C           -0.323334571497     0.003542272528     0.000001095030    12.000000000000
         C            0.061439355903    -1.404327375772    -2.420643759770    12.000000000000
         C            0.060417035903     2.808219134728     0.000799905830    12.000000000000
         C            0.061439891303    -1.405706042772     2.419843526330    12.000000000000
         H            2.087321587903    -1.650236422072    -2.839430911270     1.007825032230
         H           -0.761820635097    -0.399516780972    -4.027915160170     1.007825032230
         H           -0.768100609297    -3.292052450972    -2.332488155670     1.007825032230
         H            2.086019212503     3.295812218128     0.001583955730     1.007825032230
         H           -0.766031821097     3.691159416828     1.677702253630     1.007825032230
         H           -0.767373928897     3.682289281828    -1.675681056070     1.007825032230
         H            2.087320775103    -1.652970499472     2.837840407030     1.007825032230
         H           -0.766754798297    -3.298262596472     2.339137521730     1.007825032230
         H           -0.763167874097    -0.396797032372     4.019242007530     1.007825032230

  Charge       = 0
  Multiplicity = 2
  Basis Set: ANONYMOUS20ED6129
    Blend: 6-31G_2DFP_
  Basis Set: (ANONYMOUS20ED6129 AUX)
    Blend: DEF2-UNIVERSAL-JKFIT

    Orbital Energies [Eh]
    ---------------------

    Alpha Occupied:

       1A    -10.180342     2A    -10.167329     3A    -10.166874
       4A    -10.166842     5A     -0.797770     6A     -0.686407
       7A     -0.685965     8A     -0.530776     9A     -0.441127
      10A     -0.434938    11A     -0.434408    12A     -0.382744
      13A     -0.382451    14A     -0.363610    15A     -0.338274
      16A     -0.337720    17A     -0.168962

    Alpha Virtual:

      18A      0.076072    19A      0.133913    20A      0.134394
      21A      0.142489    22A      0.142767    23A      0.154880
      24A      0.178555    25A      0.179004    26A      0.203526
      27A      0.214824    28A      0.275817    29A      0.276154
      30A      0.399024    31A      0.399372    32A      0.403410
      33A      0.423968    34A      0.424238    35A      0.456595
      36A      0.494984    37A      0.495787    38A      0.512172
      39A      0.513987    40A      0.578545    41A      0.579063
      42A      0.591613    43A      0.591664    44A      0.602573
      45A      0.624693    46A      0.631845    47A      0.636029
      48A      0.636471    49A      0.663195    50A      0.663631
      51A      0.683610    52A      0.684101    53A      0.734992
      54A      0.824580    55A      0.826221    56A      0.853914
      57A      0.914778    58A      0.915276    59A      0.943941
      60A      0.944610    61A      0.961130    62A      0.961664
      63A      1.003485    64A      1.126940    65A      1.129293
      66A      1.142208    67A      1.162773    68A      1.163761
      69A      1.223333    70A      1.273983    71A      1.275025
      72A      1.279347    73A      1.324261    74A      1.324444
      75A      1.355976    76A      1.365333    77A      1.366706
      78A      1.392451    79A      1.403240    80A      1.404881
      81A      1.416657    82A      1.417624    83A      1.427934
      84A      1.491437    85A      1.499068    86A      1.542458
      87A      1.543212    88A      1.572595    89A      1.576408
      90A      1.669828    91A      1.738330    92A      1.740481
      93A      1.768348    94A      1.830891    95A      1.831913
      96A      1.971725    97A      2.017582    98A      2.018297
      99A      2.020489   100A      2.050130   101A      2.055248
     102A      2.738219   103A      2.738751   104A      2.790918
     105A      2.811442   106A      2.889859   107A      2.890042
     108A      2.894942   109A      2.929313   110A      2.929675
     111A      2.958992   112A      2.963472   113A      2.965311
     114A      3.034016   115A      3.070299   116A      3.072242
     117A      3.084378   118A      3.168004   119A      3.169605
     120A      3.180559   121A      3.284588   122A      3.286001
     123A      3.326227   124A      3.328139   125A      3.375661
     126A      3.489658   127A      3.490573   128A      3.513949
     129A      3.525390   130A      3.567310   131A      3.569299
     132A      3.575402   133A      3.666264   134A      3.666519
     135A      3.679654   136A      3.693647   137A      3.694530
     138A      3.776030   139A      3.777514   140A      3.789295
     141A      3.910820   142A      3.913670   143A      4.034480
     144A      4.110014   145A      4.112748   146A      4.146448
     147A      4.149762   148A      4.173217   149A      4.201386
     150A      4.202689   151A      4.204637   152A      4.210996
     153A      4.315932   154A      4.315961   155A      4.358983
     156A      4.424308   157A      4.424482   158A      4.443551
     159A      4.515988   160A      4.517726   161A      4.577194
     162A      4.579338   163A      4.617548   164A      4.709417
     165A      4.773319   166A      4.775878   167A      4.836956
     168A      4.962886   169A      5.001989   170A      5.003936
     171A      5.228025   172A      5.246664   173A      5.246993
     174A      5.354799   175A      5.356205   176A      5.479331

    Beta Occupied:

       1A    -10.168085     2A    -10.167628     3A    -10.167612
       4A    -10.166519     5A     -0.781095     6A     -0.684214
       7A     -0.683763     8A     -0.511747     9A     -0.431318
      10A     -0.430770    11A     -0.421824    12A     -0.376839
      13A     -0.376526    14A     -0.362593    15A     -0.333401
      16A     -0.332840

    Beta Virtual:

      17A     -0.025743    18A      0.077081    19A      0.134792
      20A      0.135294    21A      0.144366    22A      0.144632
      23A      0.163340    24A      0.182216    25A      0.182685
      26A      0.214988    27A      0.218974    28A      0.282153
      29A      0.282514    30A      0.400271    31A      0.400518
      32A      0.419798    33A      0.426765    34A      0.427064
      35A      0.468505    36A      0.497245    37A      0.498051
      38A      0.513909    39A      0.556329    40A      0.584125
      41A      0.584584    42A      0.597777    43A      0.597856
      44A      0.609992    45A      0.628019    46A      0.632060
      47A      0.639296    48A      0.639774    49A      0.666731
      50A      0.667220    51A      0.686193    52A      0.686789
      53A      0.757514    54A      0.829739    55A      0.831398
      56A      0.855268    57A      0.922734    58A      0.923261
      59A      0.945884    60A      0.953444    61A      0.966362
      62A      0.967039    63A      1.008721    64A      1.130977
      65A      1.133312    66A      1.155581    67A      1.167821
      68A      1.168869    69A      1.232302    70A      1.279577
      71A      1.280624    72A      1.285100    73A      1.329236
      74A      1.329449    75A      1.365390    76A      1.370472
      77A      1.372044    78A      1.393515    79A      1.406745
      80A      1.408325    81A      1.421700    82A      1.422665
      83A      1.428207    84A      1.492489    85A      1.509510
      86A      1.546756    87A      1.547725    88A      1.580621
      89A      1.584127    90A      1.674674    91A      1.744097
      92A      1.746238    93A      1.779127    94A      1.834730
      95A      1.835787    96A      1.972589    97A      2.023940
      98A      2.026953    99A      2.039640   100A      2.056945
     101A      2.061870   102A      2.746510   103A      2.747131
     104A      2.811844   105A      2.816062   106A      2.902580
     107A      2.902697   108A      2.924644   109A      2.931888
     110A      2.932065   111A      2.960063   112A      2.968049
     113A      2.969820   114A      3.041951   115A      3.080100
     116A      3.082100   117A      3.086365   118A      3.183864
     119A      3.185232   120A      3.188240   121A      3.289452
     122A      3.290737   123A      3.330026   124A      3.331954
     125A      3.383477   126A      3.492397   127A      3.493287
     128A      3.512348   129A      3.528421   130A      3.574811
     131A      3.580640   132A      3.583086   133A      3.670987
     134A      3.671285   135A      3.692949   136A      3.725331
     137A      3.726111   138A      3.780536   139A      3.782147
     140A      3.817757   141A      3.920636   142A      3.923487
     143A      4.045367   144A      4.116836   145A      4.119555
     146A      4.153713   147A      4.156915   148A      4.187276
     149A      4.207319   150A      4.210532   151A      4.210658
     152A      4.215517   153A      4.323354   154A      4.323420
     155A      4.362347   156A      4.432550   157A      4.432626
     158A      4.446483   159A      4.523876   160A      4.525410
     161A      4.587716   162A      4.590020   163A      4.624739
     164A      4.719760   165A      4.780237   166A      4.782866
     167A      4.839879   168A      4.967678   169A      5.006030
     170A      5.007974   171A      5.233738   172A      5.248443
     173A      5.248786   174A      5.361261   175A      5.362704
     176A      5.481652

    Final Occupation by Irrep:
              A
    DOCC [    16 ]
    SOCC [     1 ]

  @DF-UKS Final Energy:  -157.81305913127352

   => Energetics <=

    Nuclear Repulsion Energy =            125.3948594854444423
    One-Electron Energy =                -458.7493570161282719
    Two-Electron Energy =                 195.8485842792495930
    DFT Exchange-Correlation Energy =     -20.3071458798392754
    Empirical Dispersion Energy =           0.0000000000000000
    VV10 Nonlocal Energy =                  0.0000000000000000
    Total Energy =                       -157.8130591312735191

  UHF NO Occupations:
  HONO-2 :   15  A 1.9996009
  HONO-1 :   16  A 1.9989804
  HONO-0 :   17  A 1.0000000
  LUNO+0 :   18  A 0.0010196
  LUNO+1 :   19  A 0.0003991
  LUNO+2 :   20  A 0.0001979
  LUNO+3 :   21  A 0.0001972

Computation Completed

Properties will be evaluated at   0.000000,   0.000000,   0.000000 [a0]

Properties computed using the SCF density matrix

  Nuclear Dipole Moment: [e a0]
     X:     0.8272      Y:    -0.0102      Z:    -0.0000

  Electronic Dipole Moment: [e a0]
     X:    -0.7493      Y:     0.0110      Z:     0.0000

  Dipole Moment: [e a0]
     X:     0.0779      Y:     0.0008      Z:     0.0000     Total:     0.0779

  Dipole Moment: [D]
     X:     0.1980      Y:     0.0019      Z:     0.0000     Total:     0.1981

*** tstop() called on n089 at Fri Nov  5 15:30:40 2021
Module time:
	user time   =     504.88 seconds =       8.41 minutes
	system time =       4.66 seconds =       0.08 minutes
	total time  =        128 seconds =       2.13 minutes
Total time:
	user time   =     504.88 seconds =       8.41 minutes
	system time =       4.66 seconds =       0.08 minutes
	total time  =        128 seconds =       2.13 minutes
Grab this energy -157.81305913127352
    Psi4 stopped on: Friday, 05 November 2021 03:30PM
    Psi4 wall time for execution: 0:02:08.12

*** Psi4 exiting successfully. Buy a developer a beer!
