                               Psi4 1.4a2.dev629

  ==> Input File <==

--------------------------------------------------------------------------
import os
memory 14 GB

molecule {
 C   -0.3223163842   -0.0002580077   -0.0000000000
 C    0.0611740820   -1.4002261034   -2.4265835071
 C    0.0641318757    2.8015972671    0.0000000000
 C    0.0611740820   -1.4002261034    2.4265835071
 H    2.0837265246   -1.6440609926   -2.8469716072
 H   -0.7642471436   -0.3863673600   -4.0268954716
 H   -0.7641739850   -3.2943602216   -2.3478776369
 H    2.0832870427    3.2876847638   -0.0000000000
 H   -0.7653346834    3.6804905093    1.6786405108
 H   -0.7653346834    3.6804905093   -1.6786405108
 H    2.0837265246   -1.6440609926    2.8469716072
 H   -0.7641739850   -3.2943602216    2.3478776369
 H   -0.7642471436   -0.3863673600    4.0268954716
units bohr
0 2
}

basis {

assign 6-31g_2dfp_

[ 6-31g_2dfp_ ]

spherical

!----------------------------------------------------------------------
! Basis Set Exchange
! Version v0.8.13
! https://www.basissetexchange.org
!----------------------------------------------------------------------
!   Basis set: 6-31G(2df,p)
! Description: 6-31G(2df,p)
!        Role: orbital
!     Version: 0  (Data from the original Basis Set Exchange)
!----------------------------------------------------------------------

****
H     0
S    3   1.00
     18.7311370              0.03349460
      2.8253937              0.23472695
      0.6401217              0.81375733
S    1   1.00
      0.1612778              1.00000000
P    1   1.00
      1.5000000              1.0000000
P    1   1.00
      0.3750000              1.0000000
****
B     0
S    6   1.00
   2068.8823000              0.0018663
    310.6495700              0.0142515
     70.6830330              0.0695516
     19.8610800              0.2325729
      6.2993048              0.4670787
      2.1270270              0.3634314
SP   3   1.00
      4.7279710             -0.1303938              0.0745976
      1.1903377             -0.1307889              0.3078467
      0.3594117              1.1309444              0.7434568
SP   1   1.00
      0.1267512              1.0000000              1.0000000
D    1   1.00
      0.8020000              1.0000000
D    1   1.00
      0.2005000              1.0000000
F    1   1.00
      0.5000000              1.0000000
****
C     0
S    6   1.00
   3047.5249000              0.0018347
    457.3695100              0.0140373
    103.9486900              0.0688426
     29.2101550              0.2321844
      9.2866630              0.4679413
      3.1639270              0.3623120
SP   3   1.00
      7.8682724             -0.1193324              0.0689991
      1.8812885             -0.1608542              0.3164240
      0.5442493              1.1434564              0.7443083
SP   1   1.00
      0.1687144              1.0000000              1.0000000
D    1   1.00
      1.2520000              1.0000000
D    1   1.00
      0.3130000              1.0000000
F    1   1.00
      0.8000000              1.0000000
****
N     0
S    6   1.00
   4173.5110000              0.0018348
    627.4579000              0.0139950
    142.9021000              0.0685870
     40.2343300              0.2322410
     12.8202100              0.4690700
      4.3904370              0.3604550
SP   3   1.00
     11.6263580             -0.1149610              0.0675800
      2.7162800             -0.1691180              0.3239070
      0.7722180              1.1458520              0.7408950
SP   1   1.00
      0.2120313              1.0000000              1.0000000
D    1   1.00
      1.8260000              1.0000000
D    1   1.00
      0.4565000              1.0000000
F    1   1.00
      1.0000000              1.0000000
****
O     0
S    6   1.00
   5484.6717000              0.0018311
    825.2349500              0.0139501
    188.0469600              0.0684451
     52.9645000              0.2327143
     16.8975700              0.4701930
      5.7996353              0.3585209
SP   3   1.00
     15.5396160             -0.1107775              0.0708743
      3.5999336             -0.1480263              0.3397528
      1.0137618              1.1307670              0.7271586
SP   1   1.00
      0.2700058              1.0000000              1.0000000
D    1   1.00
      2.5840000              1.0000000
D    1   1.00
      0.6460000              1.0000000
F    1   1.00
      1.4000000              1.0000000
****
F     0
S    6   1.00
   7001.7130900              0.0018196169
   1051.3660900              0.0139160796
    239.2856900              0.0684053245
     67.3974453              0.233185760
     21.5199573              0.471267439
      7.40310130             0.356618546
SP   3   1.00
     20.8479528             -0.108506975            0.0716287243
      4.80830834            -0.146451658            0.3459121030
      1.34406986             1.128688580            0.7224699570
SP   1   1.00
      0.358151393            1.0000000              1.0000000
D    1   1.00
      3.5000000              1.0000000
D    1   1.00
      0.8750000              1.0000000
F    1   1.00
      1.8500000              1.0000000
****
Al     0
S    6   1.00
  13983.1000000              0.00194267
   2098.7500000              0.0148599
    477.7050000              0.0728494
    134.3600000              0.2468300
     42.8709000              0.4872580
     14.5189000              0.3234960
SP   6   1.00
    239.6680000             -0.00292619             0.00460285
     57.4419000             -0.0374080              0.0331990
     18.2859000             -0.1144870              0.1362820
      6.5991400              0.1156350              0.3304760
      2.4904900              0.6125950              0.4491460
      0.9445400              0.3937990              0.2657040
SP   3   1.00
      1.2779000             -0.2276060             -0.0175130
      0.3975900              0.00144583             0.2445330
      0.1600950              1.0927900              0.8049340
SP   1   1.00
      0.0556577              1.0000000              1.0000000
D    1   1.00
      0.6500000              1.0000000
D    1   1.00
      0.1625000              1.0000000
F    1   1.00
      0.2500000              1.0000000
****
Si     0
S    6   1.00
  16115.9000000              0.00195948
   2425.5800000              0.01492880
    553.8670000              0.07284780
    156.3400000              0.24613000
     50.0683000              0.48591400
     17.0178000              0.32500200
SP   6   1.00
    292.7180000             -0.00278094             0.00443826
     69.8731000             -0.03571460             0.03266790
     22.3363000             -0.11498500             0.13472100
      8.1503900              0.09356340             0.32867800
      3.1345800              0.60301700             0.44964000
      1.2254300              0.41895900             0.26137200
SP   3   1.00
      1.7273800             -0.24463000            -0.01779510
      0.5729220              0.00431572             0.25353900
      0.2221920              1.09818000             0.80066900
SP   1   1.00
      0.0778369              1.00000000             1.00000000
D    1   1.00
      0.9000000              1.0000000
D    1   1.00
      0.2250000              1.0000000
F    1   1.00
      0.3200000              1.0000000
****
P     0
S    6   1.00
  19413.3000000              0.0018516
   2909.4200000              0.0142062
    661.3640000              0.0699995
    185.7590000              0.2400790
     59.1943000              0.4847620
     20.0310000              0.3352000
SP   6   1.00
    339.4780000             -0.00278217             0.00456462
     81.0101000             -0.0360499              0.03369360
     25.8780000             -0.1166310              0.13975500
      9.4522100              0.0968328              0.33936200
      3.6656600              0.6144180              0.45092100
      1.4674600              0.4037980              0.23858600
SP   3   1.00
      2.1562300             -0.2529230             -0.01776530
      0.7489970              0.0328517              0.27405800
      0.2831450              1.0812500              0.78542100
SP   1   1.00
      0.0998317              1.0000000              1.00000000
D    1   1.00
      1.1000000              1.0000000
D    1   1.00
      0.2750000              1.0000000
F    1   1.00
      0.4500000              1.0000000
****
S     0
S    6   1.00
  21917.1000000              0.0018690
   3301.4900000              0.0142300
    754.1460000              0.0696960
    212.7110000              0.2384870
     67.9896000              0.4833070
     23.0515000              0.3380740
SP   6   1.00
    423.7350000             -0.0023767              0.0040610
    100.7100000             -0.0316930              0.0306810
     32.1599000             -0.1133170              0.1304520
     11.8079000              0.0560900              0.3272050
      4.6311000              0.5922550              0.4528510
      1.8702500              0.4550060              0.2560420
SP   3   1.00
      2.6158400             -0.2503740             -0.0145110
      0.9221670              0.0669570              0.3102630
      0.3412870              1.0545100              0.7544830
SP   1   1.00
      0.1171670              1.0000000              1.0000000
D    1   1.00
      1.3000000              1.0000000
D    1   1.00
      0.3250000              1.0000000
F    1   1.00
      0.5500000              1.0000000
****
Cl     0
S    6   1.00
  25180.1000000              0.0018330
   3780.3500000              0.0140340
    860.4740000              0.0690970
    242.1450000              0.2374520
     77.3349000              0.4830340
     26.2470000              0.3398560
SP   6   1.00
    491.7650000             -0.0022974              0.0039894
    116.9840000             -0.0307140              0.0303180
     37.4153000             -0.1125280              0.1298800
     13.7834000              0.0450160              0.3279510
      5.4521500              0.5893530              0.4535270
      2.2258800              0.4652060              0.2521540
SP   3   1.00
      3.1864900             -0.2518300             -0.0142990
      1.1442700              0.0615890              0.3235720
      0.4203770              1.0601800              0.7435070
SP   1   1.00
      0.1426570              1.0000000              1.0000000
D    1   1.00
      1.5000000              1.0000000
D    1   1.00
      0.3750000              1.0000000
F    1   1.00
      0.7000000              1.0000000
****
}

set {
reference uhf
freeze_core true
e_convergence 10
d_convergence 10
dft_spherical_points 1202
dft_radial_points 99
}

e = energy('b3lyp')

print_out('Grab this energy {0}'.format(e))
--------------------------------------------------------------------------

    Molecular point group: cs

    Geometry (in Bohr), charge = 0, multiplicity = 2:

       Center              X                  Y                   Z               Mass
    ------------   -----------------  -----------------  -----------------  -----------------
         C           -0.323126035609    -0.000428431062     0.000000000000    12.000000000000
         C            0.060364430591    -1.400396526762    -2.426583507100    12.000000000000
         C            0.063322224291     2.801426843738     0.000000000000    12.000000000000
         C            0.060364430591    -1.400396526762     2.426583507100    12.000000000000
         H            2.082916873191    -1.644231415962    -2.846971607200     1.007825032230
         H           -0.765056795009    -0.386537783362    -4.026895471600     1.007825032230
         H           -0.764983636409    -3.294530644962    -2.347877636900     1.007825032230
         H            2.082477391291     3.287514340438     0.000000000000     1.007825032230
         H           -0.766144334809     3.680320085938     1.678640510800     1.007825032230
         H           -0.766144334809     3.680320085938    -1.678640510800     1.007825032230
         H            2.082916873191    -1.644231415962     2.846971607200     1.007825032230
         H           -0.764983636409    -3.294530644962     2.347877636900     1.007825032230
         H           -0.765056795009    -0.386537783362     4.026895471600     1.007825032230

  Charge       = 0
  Multiplicity = 2
  Basis Set: ANONYMOUS352D0CE5
    Blend: 6-31G_2DFP_
  Basis Set: (ANONYMOUS352D0CE5 AUX)
    Blend: DEF2-UNIVERSAL-JKFIT

    Orbital Energies [Eh]
    ---------------------

    Alpha Occupied:

       1Ap   -10.180284     1App  -10.167043     2Ap   -10.167023
       3Ap   -10.166968     4Ap    -0.797804     2App   -0.686226
       5Ap    -0.686162     6Ap    -0.530787     7Ap    -0.441222
       8Ap    -0.434727     3App   -0.434528     9Ap    -0.382886
       4App   -0.382583     5App   -0.363434     6App   -0.338029
      10Ap    -0.337860    11Ap    -0.168924

    Alpha Virtual:

      12Ap     0.075986     7App    0.134116    13Ap     0.134179
       8App    0.142501    14Ap     0.142624    15Ap     0.155045
       9App    0.178842    16Ap     0.179072    17Ap     0.203589
      10App    0.214529    18Ap     0.275957    11App    0.276064
      19Ap     0.399185    12App    0.399508    20Ap     0.403431
      21Ap     0.423860    13App    0.423956    22Ap     0.456670
      23Ap     0.495182    14App    0.495240    15App    0.512279
      24Ap     0.514133    16App    0.578901    25Ap     0.579061
      17App    0.591782    26Ap     0.592024    27Ap     0.603324
      28Ap     0.624260    18App    0.631388    19App    0.635768
      29Ap     0.635983    20App    0.663736    30Ap     0.664082
      31Ap     0.683454    21App    0.683753    32Ap     0.734933
      33Ap     0.825426    22App    0.825451    23App    0.854195
      24App    0.915225    34Ap     0.915272    25App    0.943840
      35Ap     0.944470    26App    0.961307    36Ap     0.961478
      37Ap     1.003639    27App    1.127761    38Ap     1.127961
      39Ap     1.142940    28App    1.162914    40Ap     1.163090
      41Ap     1.222910    29App    1.274594    42Ap     1.274870
      43Ap     1.279519    30App    1.324310    44Ap     1.324820
      45Ap     1.355446    46Ap     1.365816    31App    1.366420
      32App    1.392500    33App    1.404948    47Ap     1.405197
      34App    1.415857    48Ap     1.416435    35App    1.428124
      36App    1.491513    49Ap     1.500033    37App    1.543158
      50Ap     1.543243    51Ap     1.573921    38App    1.574230
      52Ap     1.668562    39App    1.739870    53Ap     1.740665
      54Ap     1.770177    55Ap     1.829801    40App    1.830193
      41App    1.970711    42App    2.018343    56Ap     2.018349
      57Ap     2.019583    43App    2.053618    58Ap     2.054407
      44App    2.738127    59Ap     2.738206    60Ap     2.791319
      45App    2.810970    61Ap     2.890055    46App    2.890608
      62Ap     2.895275    63Ap     2.929253    47App    2.929328
      48App    2.959134    49App    2.964702    64Ap     2.964901
      65Ap     3.034710    66Ap     3.071205    50App    3.071421
      51App    3.082962    52App    3.168789    67Ap     3.169026
      68Ap     3.180641    53App    3.285383    69Ap     3.285443
      54App    3.326376    70Ap     3.326690    71Ap     3.375439
      72Ap     3.490094    55App    3.490702    56App    3.515231
      73Ap     3.524140    57App    3.568671    74Ap     3.568908
      58App    3.575975    59App    3.666466    75Ap     3.667072
      76Ap     3.679039    77Ap     3.693935    60App    3.693944
      61App    3.776359    78Ap     3.776415    79Ap     3.789904
      80Ap     3.911582    62App    3.911753    81Ap     4.033985
      82Ap     4.111317    63App    4.111494    83Ap     4.148640
      64App    4.148752    84Ap     4.174915    65App    4.202062
      85Ap     4.202238    86Ap     4.202967    66App    4.211981
      87Ap     4.315995    67App    4.316856    68App    4.357775
      88Ap     4.425055    69App    4.425315    70App    4.443190
      71App    4.516451    89Ap     4.518559    90Ap     4.577391
      72App    4.577798    91Ap     4.617628    92Ap     4.710002
      73App    4.773970    93Ap     4.774995    74App    4.835544
      94Ap     4.962559    75App    5.003801    95Ap     5.004695
      96Ap     5.230803    76App    5.243791    97Ap     5.243831
      98Ap     5.357242    77App    5.357757    78App    5.477402

    Beta Occupied:

       1App  -10.167795     1Ap   -10.167781     2Ap   -10.167732
       3Ap   -10.166455     4Ap    -0.781122     2App   -0.684017
       5Ap    -0.683952     6Ap    -0.511709     7Ap    -0.431081
       3App   -0.430869     8Ap    -0.421976     9Ap    -0.377005
       4App   -0.376685     5App   -0.362408     6App   -0.333158
      10Ap    -0.332985

    Beta Virtual:

      11Ap    -0.025615    12Ap     0.076980     7App    0.134946
      13Ap     0.134995     8App    0.144398    14Ap     0.144512
      15Ap     0.163484     9App    0.182540    16Ap     0.182772
      10App    0.214765    17Ap     0.218973    18Ap     0.282303
      11App    0.282405    19Ap     0.400354    12App    0.400676
      20Ap     0.419779    21Ap     0.426670    13App    0.426770
      22Ap     0.468677    23Ap     0.497437    14App    0.497487
      15App    0.514006    24Ap     0.556517    16App    0.584427
      25Ap     0.584578    17App    0.597966    26Ap     0.598218
      27Ap     0.610609    28Ap     0.627776    18App    0.631545
      19App    0.639091    29Ap     0.639308    20App    0.667285
      30Ap     0.667600    31Ap     0.686100    21App    0.686403
      32Ap     0.757460    33Ap     0.830576    22App    0.830596
      23App    0.855540    24App    0.923178    34Ap     0.923224
      25App    0.945685    35Ap     0.953349    26App    0.966641
      36Ap     0.966825    37Ap     1.008919    27App    1.131714
      38Ap     1.131991    39Ap     1.156240    28App    1.168059
      40Ap     1.168139    41Ap     1.231899    29App    1.280209
      42Ap     1.280495    43Ap     1.285328    30App    1.329241
      44Ap     1.329773    45Ap     1.364881    46Ap     1.370992
      31App    1.371594    32App    1.393541    33App    1.408450
      47Ap     1.408725    34App    1.420962    48Ap     1.421510
      35App    1.428385    36App    1.492587    49Ap     1.510468
      50Ap     1.547547    37App    1.547606    51Ap     1.581867
      38App    1.582064    52Ap     1.673358    39App    1.745643
      53Ap     1.746426    54Ap     1.780968    55Ap     1.833656
      40App    1.834046    41App    1.971584    42App    2.024866
      56Ap     2.026091    57Ap     2.039786    43App    2.060237
      58Ap     2.060973    44App    2.746459    59Ap     2.746529
      45App    2.811379    60Ap     2.816492    61Ap     2.902779
      46App    2.903313    62Ap     2.925183    63Ap     2.931732
      47App    2.931803    48App    2.960199    49App    2.969286
      64Ap     2.969476    65Ap     3.042433    66Ap     3.081133
      50App    3.081321    51App    3.084796    52App    3.184547
      67Ap     3.184734    68Ap     3.188341    53App    3.290161
      69Ap     3.290200    54App    3.330202    70Ap     3.330546
      71Ap     3.383283    72Ap     3.492865    55App    3.493471
      56App    3.513595    73Ap     3.527200    57App    3.575838
      58App    3.581902    74Ap     3.582011    59App    3.671375
      75Ap     3.671852    76Ap     3.692360    60App    3.725409
      77Ap     3.725728    61App    3.780965    78Ap     3.780994
      79Ap     3.818424    80Ap     3.921326    62App    3.921528
      81Ap     4.044810    82Ap     4.118182    63App    4.118253
      83Ap     4.155810    64App    4.156013    84Ap     4.188949
      65App    4.207887    85Ap     4.208202    86Ap     4.210864
      66App    4.216331    87Ap     4.323470    67App    4.324379
      68App    4.361184    88Ap     4.433284    69App    4.433517
      70App    4.446121    71App    4.524212    89Ap     4.526308
      90Ap     4.588050    72App    4.588427    91Ap     4.624914
      92Ap     4.720229    73App    4.780991    93Ap     4.781980
      74App    4.838473    94Ap     4.967343    75App    5.007832
      95Ap     5.008691    96Ap     5.236553    76App    5.245589
      97Ap     5.245630    98Ap     5.363750    77App    5.364263
      78App    5.479735

    Final Occupation by Irrep:
             Ap   App
    DOCC [    10,    6 ]
    SOCC [     1,    0 ]

  @DF-UKS Final Energy:  -157.81305796191833

   => Energetics <=

    Nuclear Repulsion Energy =            125.4000085346740008
    One-Electron Energy =                -458.7596691875342003
    Two-Electron Energy =                 195.8538597598227113
    DFT Exchange-Correlation Energy =     -20.3072570688808298
    Empirical Dispersion Energy =           0.0000000000000000
    VV10 Nonlocal Energy =                  0.0000000000000000
    Total Energy =                       -157.8130579619183322

  UHF NO Occupations:
  HONO-2 :    9 Ap 1.9996032
  HONO-1 :   10 Ap 1.9989813
  HONO-0 :   11 Ap 1.0000000
  LUNO+0 :   12 Ap 0.0010187
  LUNO+1 :   13 Ap 0.0003968
  LUNO+2 :   14 Ap 0.0001977
  LUNO+3 :    7App 0.0001974

Computation Completed

Properties will be evaluated at   0.000000,   0.000000,   0.000000 [a0]

Properties computed using the SCF density matrix

  Nuclear Dipole Moment: [e a0]
     X:     0.8215      Y:    -0.0012      Z:     0.0000

  Electronic Dipole Moment: [e a0]
     X:    -0.7404      Y:     0.0011      Z:     0.0000

  Dipole Moment: [e a0]
     X:     0.0811      Y:    -0.0001      Z:     0.0000     Total:     0.0811

  Dipole Moment: [D]
     X:     0.2061      Y:    -0.0003      Z:     0.0000     Total:     0.2061

*** tstop() called on n036 at Fri Nov  5 12:33:45 2021
Module time:
	user time   =     634.61 seconds =      10.58 minutes
	system time =      12.11 seconds =       0.20 minutes
	total time  =        163 seconds =       2.72 minutes
Total time:
	user time   =     634.61 seconds =      10.58 minutes
	system time =      12.11 seconds =       0.20 minutes
	total time  =        163 seconds =       2.72 minutes
Grab this energy -157.81305796191833
    Psi4 stopped on: Friday, 05 November 2021 12:33PM
    Psi4 wall time for execution: 0:02:42.60

*** Psi4 exiting successfully. Buy a developer a beer!
