                               Psi4 1.4a2.dev629

  ==> Input File <==

--------------------------------------------------------------------------
import os
memory 14 GB

molecule {
 C   -0.3201734347   -0.0000030954    0.0024281608
 C    0.0631537036   -1.4018725517   -2.4268525116
 C    0.0623455510    2.8015777338    0.0012510031
 C    0.0617776328   -1.3997030381    2.4255969872
 H    2.0888290621   -1.6421626486   -2.8474308548
 H   -0.7673778222   -0.3908437279   -4.0254601070
 H   -0.7631934386   -3.2950078526   -2.3520895546
 H    2.0864617859    3.2878349581   -0.0033496664
 H   -0.7623133497    3.6833929602    1.6794324407
 H   -0.7710235774    3.6775979999   -1.6727465813
 H    2.0843790212   -1.6457640574    2.8469897700
 H   -0.7699909748   -3.2885298789    2.3467118034
 H   -0.7654820357   -0.3865411151    4.0255191103
units bohr
0 2
}

basis {

assign 6-31g_2dfp_

[ 6-31g_2dfp_ ]

spherical

!----------------------------------------------------------------------
! Basis Set Exchange
! Version v0.8.13
! https://www.basissetexchange.org
!----------------------------------------------------------------------
!   Basis set: 6-31G(2df,p)
! Description: 6-31G(2df,p)
!        Role: orbital
!     Version: 0  (Data from the original Basis Set Exchange)
!----------------------------------------------------------------------

****
H     0
S    3   1.00
     18.7311370              0.03349460
      2.8253937              0.23472695
      0.6401217              0.81375733
S    1   1.00
      0.1612778              1.00000000
P    1   1.00
      1.5000000              1.0000000
P    1   1.00
      0.3750000              1.0000000
****
B     0
S    6   1.00
   2068.8823000              0.0018663
    310.6495700              0.0142515
     70.6830330              0.0695516
     19.8610800              0.2325729
      6.2993048              0.4670787
      2.1270270              0.3634314
SP   3   1.00
      4.7279710             -0.1303938              0.0745976
      1.1903377             -0.1307889              0.3078467
      0.3594117              1.1309444              0.7434568
SP   1   1.00
      0.1267512              1.0000000              1.0000000
D    1   1.00
      0.8020000              1.0000000
D    1   1.00
      0.2005000              1.0000000
F    1   1.00
      0.5000000              1.0000000
****
C     0
S    6   1.00
   3047.5249000              0.0018347
    457.3695100              0.0140373
    103.9486900              0.0688426
     29.2101550              0.2321844
      9.2866630              0.4679413
      3.1639270              0.3623120
SP   3   1.00
      7.8682724             -0.1193324              0.0689991
      1.8812885             -0.1608542              0.3164240
      0.5442493              1.1434564              0.7443083
SP   1   1.00
      0.1687144              1.0000000              1.0000000
D    1   1.00
      1.2520000              1.0000000
D    1   1.00
      0.3130000              1.0000000
F    1   1.00
      0.8000000              1.0000000
****
N     0
S    6   1.00
   4173.5110000              0.0018348
    627.4579000              0.0139950
    142.9021000              0.0685870
     40.2343300              0.2322410
     12.8202100              0.4690700
      4.3904370              0.3604550
SP   3   1.00
     11.6263580             -0.1149610              0.0675800
      2.7162800             -0.1691180              0.3239070
      0.7722180              1.1458520              0.7408950
SP   1   1.00
      0.2120313              1.0000000              1.0000000
D    1   1.00
      1.8260000              1.0000000
D    1   1.00
      0.4565000              1.0000000
F    1   1.00
      1.0000000              1.0000000
****
O     0
S    6   1.00
   5484.6717000              0.0018311
    825.2349500              0.0139501
    188.0469600              0.0684451
     52.9645000              0.2327143
     16.8975700              0.4701930
      5.7996353              0.3585209
SP   3   1.00
     15.5396160             -0.1107775              0.0708743
      3.5999336             -0.1480263              0.3397528
      1.0137618              1.1307670              0.7271586
SP   1   1.00
      0.2700058              1.0000000              1.0000000
D    1   1.00
      2.5840000              1.0000000
D    1   1.00
      0.6460000              1.0000000
F    1   1.00
      1.4000000              1.0000000
****
F     0
S    6   1.00
   7001.7130900              0.0018196169
   1051.3660900              0.0139160796
    239.2856900              0.0684053245
     67.3974453              0.233185760
     21.5199573              0.471267439
      7.40310130             0.356618546
SP   3   1.00
     20.8479528             -0.108506975            0.0716287243
      4.80830834            -0.146451658            0.3459121030
      1.34406986             1.128688580            0.7224699570
SP   1   1.00
      0.358151393            1.0000000              1.0000000
D    1   1.00
      3.5000000              1.0000000
D    1   1.00
      0.8750000              1.0000000
F    1   1.00
      1.8500000              1.0000000
****
Al     0
S    6   1.00
  13983.1000000              0.00194267
   2098.7500000              0.0148599
    477.7050000              0.0728494
    134.3600000              0.2468300
     42.8709000              0.4872580
     14.5189000              0.3234960
SP   6   1.00
    239.6680000             -0.00292619             0.00460285
     57.4419000             -0.0374080              0.0331990
     18.2859000             -0.1144870              0.1362820
      6.5991400              0.1156350              0.3304760
      2.4904900              0.6125950              0.4491460
      0.9445400              0.3937990              0.2657040
SP   3   1.00
      1.2779000             -0.2276060             -0.0175130
      0.3975900              0.00144583             0.2445330
      0.1600950              1.0927900              0.8049340
SP   1   1.00
      0.0556577              1.0000000              1.0000000
D    1   1.00
      0.6500000              1.0000000
D    1   1.00
      0.1625000              1.0000000
F    1   1.00
      0.2500000              1.0000000
****
Si     0
S    6   1.00
  16115.9000000              0.00195948
   2425.5800000              0.01492880
    553.8670000              0.07284780
    156.3400000              0.24613000
     50.0683000              0.48591400
     17.0178000              0.32500200
SP   6   1.00
    292.7180000             -0.00278094             0.00443826
     69.8731000             -0.03571460             0.03266790
     22.3363000             -0.11498500             0.13472100
      8.1503900              0.09356340             0.32867800
      3.1345800              0.60301700             0.44964000
      1.2254300              0.41895900             0.26137200
SP   3   1.00
      1.7273800             -0.24463000            -0.01779510
      0.5729220              0.00431572             0.25353900
      0.2221920              1.09818000             0.80066900
SP   1   1.00
      0.0778369              1.00000000             1.00000000
D    1   1.00
      0.9000000              1.0000000
D    1   1.00
      0.2250000              1.0000000
F    1   1.00
      0.3200000              1.0000000
****
P     0
S    6   1.00
  19413.3000000              0.0018516
   2909.4200000              0.0142062
    661.3640000              0.0699995
    185.7590000              0.2400790
     59.1943000              0.4847620
     20.0310000              0.3352000
SP   6   1.00
    339.4780000             -0.00278217             0.00456462
     81.0101000             -0.0360499              0.03369360
     25.8780000             -0.1166310              0.13975500
      9.4522100              0.0968328              0.33936200
      3.6656600              0.6144180              0.45092100
      1.4674600              0.4037980              0.23858600
SP   3   1.00
      2.1562300             -0.2529230             -0.01776530
      0.7489970              0.0328517              0.27405800
      0.2831450              1.0812500              0.78542100
SP   1   1.00
      0.0998317              1.0000000              1.00000000
D    1   1.00
      1.1000000              1.0000000
D    1   1.00
      0.2750000              1.0000000
F    1   1.00
      0.4500000              1.0000000
****
S     0
S    6   1.00
  21917.1000000              0.0018690
   3301.4900000              0.0142300
    754.1460000              0.0696960
    212.7110000              0.2384870
     67.9896000              0.4833070
     23.0515000              0.3380740
SP   6   1.00
    423.7350000             -0.0023767              0.0040610
    100.7100000             -0.0316930              0.0306810
     32.1599000             -0.1133170              0.1304520
     11.8079000              0.0560900              0.3272050
      4.6311000              0.5922550              0.4528510
      1.8702500              0.4550060              0.2560420
SP   3   1.00
      2.6158400             -0.2503740             -0.0145110
      0.9221670              0.0669570              0.3102630
      0.3412870              1.0545100              0.7544830
SP   1   1.00
      0.1171670              1.0000000              1.0000000
D    1   1.00
      1.3000000              1.0000000
D    1   1.00
      0.3250000              1.0000000
F    1   1.00
      0.5500000              1.0000000
****
Cl     0
S    6   1.00
  25180.1000000              0.0018330
   3780.3500000              0.0140340
    860.4740000              0.0690970
    242.1450000              0.2374520
     77.3349000              0.4830340
     26.2470000              0.3398560
SP   6   1.00
    491.7650000             -0.0022974              0.0039894
    116.9840000             -0.0307140              0.0303180
     37.4153000             -0.1125280              0.1298800
     13.7834000              0.0450160              0.3279510
      5.4521500              0.5893530              0.4535270
      2.2258800              0.4652060              0.2521540
SP   3   1.00
      3.1864900             -0.2518300             -0.0142990
      1.1442700              0.0615890              0.3235720
      0.4203770              1.0601800              0.7435070
SP   1   1.00
      0.1426570              1.0000000              1.0000000
D    1   1.00
      1.5000000              1.0000000
D    1   1.00
      0.3750000              1.0000000
F    1   1.00
      0.7000000              1.0000000
****
}

set {
reference uhf
freeze_core true
e_convergence 10
d_convergence 10
dft_spherical_points 1202
dft_radial_points 99
}

e = energy('b3lyp')

print_out('Grab this energy {0}'.format(e))
--------------------------------------------------------------------------

    Molecular point group: c1

    Geometry (in Bohr), charge = 0, multiplicity = 2:

       Center              X                  Y                   Z               Mass
    ------------   -----------------  -----------------  -----------------  -----------------
         C           -0.321549312226    -0.000002482790     0.001961350379    12.000000000000
         C            0.061777826074    -1.401871939090    -2.427319322021    12.000000000000
         C            0.060969673474     2.801578346410     0.000784192679    12.000000000000
         C            0.060401755274    -1.399702425490     2.425130176779    12.000000000000
         H            2.087453184574    -1.642162035990    -2.847897665221     1.007825032230
         H           -0.768753699726    -0.390843115290    -4.025926917421     1.007825032230
         H           -0.764569316126    -3.295007239990    -2.352556365021     1.007825032230
         H            2.085085908374     3.287835570710    -0.003816476821     1.007825032230
         H           -0.763689227226     3.683393572810     1.678965630279     1.007825032230
         H           -0.772399454926     3.677598612510    -1.673213391721     1.007825032230
         H            2.083003143674    -1.645763444790     2.846522959579     1.007825032230
         H           -0.771366852326    -3.288529266290     2.346244992979     1.007825032230
         H           -0.766857913226    -0.386540502490     4.025052299879     1.007825032230

  Charge       = 0
  Multiplicity = 2
  Basis Set: ANONYMOUS192CD3DD
    Blend: 6-31G_2DFP_
  Basis Set: (ANONYMOUS192CD3DD AUX)
    Blend: DEF2-UNIVERSAL-JKFIT

    Orbital Energies [Eh]
    ---------------------

    Alpha Occupied:

       1A    -10.180229     2A    -10.167180     3A    -10.166992
       4A    -10.166801     5A     -0.797821     6A     -0.686342
       7A     -0.686056     8A     -0.530754     9A     -0.441360
      10A     -0.434598    11A     -0.434455    12A     -0.382892
      13A     -0.382802    14A     -0.363329    15A     -0.338098
      16A     -0.337800    17A     -0.168845

    Alpha Virtual:

      18A      0.076056    19A      0.134084    20A      0.134211
      21A      0.142533    22A      0.142559    23A      0.154943
      24A      0.178880    25A      0.178885    26A      0.203593
      27A      0.214670    28A      0.275788    29A      0.276460
      30A      0.399234    31A      0.399248    32A      0.403395
      33A      0.424069    34A      0.424139    35A      0.456598
      36A      0.495288    37A      0.495389    38A      0.512265
      39A      0.513975    40A      0.578533    41A      0.578915
      42A      0.591716    43A      0.592165    44A      0.602884
      45A      0.624620    46A      0.631631    47A      0.636029
      48A      0.636211    49A      0.663381    50A      0.663788
      51A      0.683808    52A      0.683848    53A      0.735123
      54A      0.825551    55A      0.825610    56A      0.853869
      57A      0.915059    58A      0.915327    59A      0.944227
      60A      0.944630    61A      0.961159    62A      0.961243
      63A      1.002574    64A      1.127836    65A      1.127885
      66A      1.142580    67A      1.163303    68A      1.163578
      69A      1.223744    70A      1.274592    71A      1.274956
      72A      1.279509    73A      1.324120    74A      1.324363
      75A      1.357030    76A      1.365407    77A      1.365998
      78A      1.392367    79A      1.404356    80A      1.404991
      81A      1.417450    82A      1.417990    83A      1.428101
      84A      1.491029    85A      1.499586    86A      1.542296
      87A      1.542556    88A      1.574156    89A      1.574590
      90A      1.669297    91A      1.739362    92A      1.739898
      93A      1.768523    94A      1.830658    95A      1.831481
      96A      1.971170    97A      2.018466    98A      2.019331
      99A      2.019452   100A      2.052046   101A      2.054004
     102A      2.738760   103A      2.738867   104A      2.791150
     105A      2.811145   106A      2.889684   107A      2.890518
     108A      2.894964   109A      2.929174   110A      2.929525
     111A      2.958830   112A      2.964143   113A      2.964671
     114A      3.034050   115A      3.071612   116A      3.072198
     117A      3.084287   118A      3.168737   119A      3.168839
     120A      3.180416   121A      3.284914   122A      3.285013
     123A      3.325785   124A      3.326678   125A      3.375915
     126A      3.490115   127A      3.490585   128A      3.514461
     129A      3.525157   130A      3.567988   131A      3.569648
     132A      3.575602   133A      3.666171   134A      3.666581
     135A      3.678649   136A      3.694065   137A      3.694758
     138A      3.776339   139A      3.778991   140A      3.790485
     141A      3.911638   142A      3.912613   143A      4.035624
     144A      4.109974   145A      4.112020   146A      4.147341
     147A      4.148449   148A      4.173377   149A      4.202694
     150A      4.203187   151A      4.203924   152A      4.210970
     153A      4.315655   154A      4.316678   155A      4.358862
     156A      4.424553   157A      4.425567   158A      4.442569
     159A      4.515952   160A      4.517469   161A      4.577505
     162A      4.578832   163A      4.618357   164A      4.709897
     165A      4.774256   166A      4.775471   167A      4.837146
     168A      4.962781   169A      5.003038   170A      5.004288
     171A      5.228112   172A      5.246673   173A      5.246918
     174A      5.354114   175A      5.356021   176A      5.479862

    Beta Occupied:

       1A    -10.167937     2A    -10.167751     3A    -10.167565
       4A    -10.166403     5A     -0.781130     6A     -0.684129
       7A     -0.683866     8A     -0.511720     9A     -0.430964
      10A     -0.430807    11A     -0.422064    12A     -0.376977
      13A     -0.376911    14A     -0.362311    15A     -0.333224
      16A     -0.332925

    Beta Virtual:

      17A     -0.025594    18A      0.077063    19A      0.134939
      20A      0.135073    21A      0.144403    22A      0.144449
      23A      0.163371    24A      0.182559    25A      0.182570
      26A      0.214903    27A      0.218997    28A      0.282135
      29A      0.282785    30A      0.400409    31A      0.400412
      32A      0.419773    33A      0.426871    34A      0.426966
      35A      0.468571    36A      0.497555    37A      0.497642
      38A      0.513995    39A      0.556367    40A      0.584082
      41A      0.584486    42A      0.597899    43A      0.598307
      44A      0.610281    45A      0.628029    46A      0.631789
      47A      0.639310    48A      0.639535    49A      0.666928
      50A      0.667313    51A      0.686458    52A      0.686473
      53A      0.757639    54A      0.830727    55A      0.830731
      56A      0.855220    57A      0.923023    58A      0.923297
      59A      0.946064    60A      0.953594    61A      0.966454
      62A      0.966598    63A      1.007765    64A      1.131917
      65A      1.132073    66A      1.155943    67A      1.168378
      68A      1.168527    69A      1.232724    70A      1.280165
      71A      1.280540    72A      1.285274    73A      1.329064
      74A      1.329283    75A      1.366464    76A      1.370683
      77A      1.371199    78A      1.393413    79A      1.407813
      80A      1.408502    81A      1.422522    82A      1.423045
      83A      1.428391    84A      1.492073    85A      1.510050
      86A      1.546630    87A      1.546830    88A      1.582169
      89A      1.582519    90A      1.674159    91A      1.745101
      92A      1.745665    93A      1.779298    94A      1.834513
      95A      1.835350    96A      1.972031    97A      2.025707
      98A      2.025842    99A      2.039927   100A      2.058773
     101A      2.060665   102A      2.747067   103A      2.747227
     104A      2.811558   105A      2.816336   106A      2.902439
     107A      2.903160   108A      2.924687   109A      2.931693
     110A      2.932039   111A      2.959892   112A      2.968688
     113A      2.969185   114A      3.041945   115A      3.081539
     116A      3.082041   117A      3.086098   118A      3.184455
     119A      3.184713   120A      3.188097   121A      3.289754
     122A      3.289859   123A      3.329579   124A      3.330459
     125A      3.383772   126A      3.492815   127A      3.493329
     128A      3.512828   129A      3.528242   130A      3.575456
     131A      3.581295   132A      3.582885   133A      3.671135
     134A      3.671276   135A      3.691942   136A      3.725828
     137A      3.726203   138A      3.780881   139A      3.783446
     140A      3.818980   141A      3.921497   142A      3.922385
     143A      4.046500   144A      4.116815   145A      4.118855
     146A      4.154599   147A      4.155575   148A      4.187407
     149A      4.208812   150A      4.209742   151A      4.211112
     152A      4.215412   153A      4.323075   154A      4.324163
     155A      4.362210   156A      4.432728   157A      4.433699
     158A      4.445488   159A      4.523753   160A      4.525245
     161A      4.588124   162A      4.589459   163A      4.625628
     164A      4.720150   165A      4.781273   166A      4.782408
     167A      4.840065   168A      4.967559   169A      5.007047
     170A      5.008333   171A      5.233858   172A      5.248454
     173A      5.248724   174A      5.360590   175A      5.362541
     176A      5.482184

    Final Occupation by Irrep:
              A
    DOCC [    16 ]
    SOCC [     1 ]

  @DF-UKS Final Energy:  -157.81307085948228

   => Energetics <=

    Nuclear Repulsion Energy =            125.4033793637494938
    One-Electron Energy =                -458.7665195561395990
    Two-Electron Energy =                 195.8574687122567752
    DFT Exchange-Correlation Energy =     -20.3073993793489365
    Empirical Dispersion Energy =           0.0000000000000000
    VV10 Nonlocal Energy =                  0.0000000000000000
    Total Energy =                       -157.8130708594822806

  UHF NO Occupations:
  HONO-2 :   15  A 1.9996019
  HONO-1 :   16  A 1.9989796
  HONO-0 :   17  A 1.0000000
  LUNO+0 :   18  A 0.0010204
  LUNO+1 :   19  A 0.0003981
  LUNO+2 :   20  A 0.0001980
  LUNO+3 :   21  A 0.0001969

Computation Completed

Properties will be evaluated at   0.000000,   0.000000,   0.000000 [a0]

Properties computed using the SCF density matrix

  Nuclear Dipole Moment: [e a0]
     X:     0.8175      Y:    -0.0000      Z:    -0.0033

  Electronic Dipole Moment: [e a0]
     X:    -0.7395      Y:     0.0000      Z:     0.0033

  Dipole Moment: [e a0]
     X:     0.0780      Y:     0.0000      Z:    -0.0000     Total:     0.0780

  Dipole Moment: [D]
     X:     0.1983      Y:     0.0000      Z:    -0.0001     Total:     0.1983

*** tstop() called on n041 at Fri Nov  5 13:40:02 2021
Module time:
	user time   =     698.05 seconds =      11.63 minutes
	system time =      13.37 seconds =       0.22 minutes
	total time  =        179 seconds =       2.98 minutes
Total time:
	user time   =     698.05 seconds =      11.63 minutes
	system time =      13.37 seconds =       0.22 minutes
	total time  =        179 seconds =       2.98 minutes
Grab this energy -157.81307085948228
    Psi4 stopped on: Friday, 05 November 2021 01:40PM
    Psi4 wall time for execution: 0:02:58.76

*** Psi4 exiting successfully. Buy a developer a beer!
