                               Psi4 1.4a2.dev629

  ==> Input File <==

--------------------------------------------------------------------------
import os
memory 14 GB

molecule {
 C   -0.3201735021   -0.0000024172    0.0004979591
 C    0.0636577581   -1.4009120668   -2.4260555166
 C    0.0623462961    2.8015785460    0.0003838175
 C    0.0612726450   -1.4006636483    2.4263928892
 H    2.0830352099   -1.6442541770   -2.8475271335
 H   -0.7653766047   -0.3863091040   -4.0270830140
 H   -0.7643418975   -3.2938504071   -2.3478817037
 H    2.0864677336    3.2878358367    0.0001828073
 H   -0.7654731418    3.6800316661    1.6757955178
 H   -0.7678704602    3.6809587811   -1.6763983319
 H    2.0901767544   -1.6436735119    2.8468856468
 H   -0.7688450780   -3.2896922476    2.3509132939
 H   -0.7674835894   -0.3910715635    4.0238937680
units bohr
0 2
}

basis {

assign 6-31g_2dfp_

[ 6-31g_2dfp_ ]

spherical

!----------------------------------------------------------------------
! Basis Set Exchange
! Version v0.8.13
! https://www.basissetexchange.org
!----------------------------------------------------------------------
!   Basis set: 6-31G(2df,p)
! Description: 6-31G(2df,p)
!        Role: orbital
!     Version: 0  (Data from the original Basis Set Exchange)
!----------------------------------------------------------------------

****
H     0
S    3   1.00
     18.7311370              0.03349460
      2.8253937              0.23472695
      0.6401217              0.81375733
S    1   1.00
      0.1612778              1.00000000
P    1   1.00
      1.5000000              1.0000000
P    1   1.00
      0.3750000              1.0000000
****
B     0
S    6   1.00
   2068.8823000              0.0018663
    310.6495700              0.0142515
     70.6830330              0.0695516
     19.8610800              0.2325729
      6.2993048              0.4670787
      2.1270270              0.3634314
SP   3   1.00
      4.7279710             -0.1303938              0.0745976
      1.1903377             -0.1307889              0.3078467
      0.3594117              1.1309444              0.7434568
SP   1   1.00
      0.1267512              1.0000000              1.0000000
D    1   1.00
      0.8020000              1.0000000
D    1   1.00
      0.2005000              1.0000000
F    1   1.00
      0.5000000              1.0000000
****
C     0
S    6   1.00
   3047.5249000              0.0018347
    457.3695100              0.0140373
    103.9486900              0.0688426
     29.2101550              0.2321844
      9.2866630              0.4679413
      3.1639270              0.3623120
SP   3   1.00
      7.8682724             -0.1193324              0.0689991
      1.8812885             -0.1608542              0.3164240
      0.5442493              1.1434564              0.7443083
SP   1   1.00
      0.1687144              1.0000000              1.0000000
D    1   1.00
      1.2520000              1.0000000
D    1   1.00
      0.3130000              1.0000000
F    1   1.00
      0.8000000              1.0000000
****
N     0
S    6   1.00
   4173.5110000              0.0018348
    627.4579000              0.0139950
    142.9021000              0.0685870
     40.2343300              0.2322410
     12.8202100              0.4690700
      4.3904370              0.3604550
SP   3   1.00
     11.6263580             -0.1149610              0.0675800
      2.7162800             -0.1691180              0.3239070
      0.7722180              1.1458520              0.7408950
SP   1   1.00
      0.2120313              1.0000000              1.0000000
D    1   1.00
      1.8260000              1.0000000
D    1   1.00
      0.4565000              1.0000000
F    1   1.00
      1.0000000              1.0000000
****
O     0
S    6   1.00
   5484.6717000              0.0018311
    825.2349500              0.0139501
    188.0469600              0.0684451
     52.9645000              0.2327143
     16.8975700              0.4701930
      5.7996353              0.3585209
SP   3   1.00
     15.5396160             -0.1107775              0.0708743
      3.5999336             -0.1480263              0.3397528
      1.0137618              1.1307670              0.7271586
SP   1   1.00
      0.2700058              1.0000000              1.0000000
D    1   1.00
      2.5840000              1.0000000
D    1   1.00
      0.6460000              1.0000000
F    1   1.00
      1.4000000              1.0000000
****
F     0
S    6   1.00
   7001.7130900              0.0018196169
   1051.3660900              0.0139160796
    239.2856900              0.0684053245
     67.3974453              0.233185760
     21.5199573              0.471267439
      7.40310130             0.356618546
SP   3   1.00
     20.8479528             -0.108506975            0.0716287243
      4.80830834            -0.146451658            0.3459121030
      1.34406986             1.128688580            0.7224699570
SP   1   1.00
      0.358151393            1.0000000              1.0000000
D    1   1.00
      3.5000000              1.0000000
D    1   1.00
      0.8750000              1.0000000
F    1   1.00
      1.8500000              1.0000000
****
Al     0
S    6   1.00
  13983.1000000              0.00194267
   2098.7500000              0.0148599
    477.7050000              0.0728494
    134.3600000              0.2468300
     42.8709000              0.4872580
     14.5189000              0.3234960
SP   6   1.00
    239.6680000             -0.00292619             0.00460285
     57.4419000             -0.0374080              0.0331990
     18.2859000             -0.1144870              0.1362820
      6.5991400              0.1156350              0.3304760
      2.4904900              0.6125950              0.4491460
      0.9445400              0.3937990              0.2657040
SP   3   1.00
      1.2779000             -0.2276060             -0.0175130
      0.3975900              0.00144583             0.2445330
      0.1600950              1.0927900              0.8049340
SP   1   1.00
      0.0556577              1.0000000              1.0000000
D    1   1.00
      0.6500000              1.0000000
D    1   1.00
      0.1625000              1.0000000
F    1   1.00
      0.2500000              1.0000000
****
Si     0
S    6   1.00
  16115.9000000              0.00195948
   2425.5800000              0.01492880
    553.8670000              0.07284780
    156.3400000              0.24613000
     50.0683000              0.48591400
     17.0178000              0.32500200
SP   6   1.00
    292.7180000             -0.00278094             0.00443826
     69.8731000             -0.03571460             0.03266790
     22.3363000             -0.11498500             0.13472100
      8.1503900              0.09356340             0.32867800
      3.1345800              0.60301700             0.44964000
      1.2254300              0.41895900             0.26137200
SP   3   1.00
      1.7273800             -0.24463000            -0.01779510
      0.5729220              0.00431572             0.25353900
      0.2221920              1.09818000             0.80066900
SP   1   1.00
      0.0778369              1.00000000             1.00000000
D    1   1.00
      0.9000000              1.0000000
D    1   1.00
      0.2250000              1.0000000
F    1   1.00
      0.3200000              1.0000000
****
P     0
S    6   1.00
  19413.3000000              0.0018516
   2909.4200000              0.0142062
    661.3640000              0.0699995
    185.7590000              0.2400790
     59.1943000              0.4847620
     20.0310000              0.3352000
SP   6   1.00
    339.4780000             -0.00278217             0.00456462
     81.0101000             -0.0360499              0.03369360
     25.8780000             -0.1166310              0.13975500
      9.4522100              0.0968328              0.33936200
      3.6656600              0.6144180              0.45092100
      1.4674600              0.4037980              0.23858600
SP   3   1.00
      2.1562300             -0.2529230             -0.01776530
      0.7489970              0.0328517              0.27405800
      0.2831450              1.0812500              0.78542100
SP   1   1.00
      0.0998317              1.0000000              1.00000000
D    1   1.00
      1.1000000              1.0000000
D    1   1.00
      0.2750000              1.0000000
F    1   1.00
      0.4500000              1.0000000
****
S     0
S    6   1.00
  21917.1000000              0.0018690
   3301.4900000              0.0142300
    754.1460000              0.0696960
    212.7110000              0.2384870
     67.9896000              0.4833070
     23.0515000              0.3380740
SP   6   1.00
    423.7350000             -0.0023767              0.0040610
    100.7100000             -0.0316930              0.0306810
     32.1599000             -0.1133170              0.1304520
     11.8079000              0.0560900              0.3272050
      4.6311000              0.5922550              0.4528510
      1.8702500              0.4550060              0.2560420
SP   3   1.00
      2.6158400             -0.2503740             -0.0145110
      0.9221670              0.0669570              0.3102630
      0.3412870              1.0545100              0.7544830
SP   1   1.00
      0.1171670              1.0000000              1.0000000
D    1   1.00
      1.3000000              1.0000000
D    1   1.00
      0.3250000              1.0000000
F    1   1.00
      0.5500000              1.0000000
****
Cl     0
S    6   1.00
  25180.1000000              0.0018330
   3780.3500000              0.0140340
    860.4740000              0.0690970
    242.1450000              0.2374520
     77.3349000              0.4830340
     26.2470000              0.3398560
SP   6   1.00
    491.7650000             -0.0022974              0.0039894
    116.9840000             -0.0307140              0.0303180
     37.4153000             -0.1125280              0.1298800
     13.7834000              0.0450160              0.3279510
      5.4521500              0.5893530              0.4535270
      2.2258800              0.4652060              0.2521540
SP   3   1.00
      3.1864900             -0.2518300             -0.0142990
      1.1442700              0.0615890              0.3235720
      0.4203770              1.0601800              0.7435070
SP   1   1.00
      0.1426570              1.0000000              1.0000000
D    1   1.00
      1.5000000              1.0000000
D    1   1.00
      0.3750000              1.0000000
F    1   1.00
      0.7000000              1.0000000
****
}

set {
reference uhf
freeze_core true
e_convergence 10
d_convergence 10
dft_spherical_points 1202
dft_radial_points 99
}

e = energy('b3lyp')

print_out('Grab this energy {0}'.format(e))
--------------------------------------------------------------------------

    Molecular point group: c1

    Geometry (in Bohr), charge = 0, multiplicity = 2:

       Center              X                  Y                   Z               Mass
    ------------   -----------------  -----------------  -----------------  -----------------
         C           -0.321549330394    -0.000002067522     0.000263142185    12.000000000000
         C            0.062281929806    -1.400911717122    -2.426290333515    12.000000000000
         C            0.060970467806     2.801578895678     0.000149000585    12.000000000000
         C            0.059896816706    -1.400663298622     2.426158072285    12.000000000000
         H            2.081659381606    -1.644253827322    -2.847761950415     1.007825032230
         H           -0.766752432994    -0.386308754322    -4.027317830915     1.007825032230
         H           -0.765717725794    -3.293850057422    -2.348116520615     1.007825032230
         H            2.085091905306     3.287836186378    -0.000052009615     1.007825032230
         H           -0.766848970094     3.680032015778     1.675560700885     1.007825032230
         H           -0.769246288494     3.680959130778    -1.676633148815     1.007825032230
         H            2.088800926106    -1.643673162222     2.846650829885     1.007825032230
         H           -0.770220906294    -3.289691897922     2.350678476985     1.007825032230
         H           -0.768859417694    -0.391071213822     4.023658951085     1.007825032230

  Charge       = 0
  Multiplicity = 2
  Basis Set: ANONYMOUS58DAE71C
    Blend: 6-31G_2DFP_
  Basis Set: (ANONYMOUS58DAE71C AUX)
    Blend: DEF2-UNIVERSAL-JKFIT

    Orbital Energies [Eh]
    ---------------------

    Alpha Occupied:

       1A    -10.180229     2A    -10.167022     3A    -10.166997
       4A    -10.166954     5A     -0.797820     6A     -0.686201
       7A     -0.686199     8A     -0.530756     9A     -0.441361
      10A     -0.434547    11A     -0.434503    12A     -0.382869
      13A     -0.382824    14A     -0.363329    15A     -0.337981
      16A     -0.337918    17A     -0.168846

    Alpha Virtual:

      18A      0.076054    19A      0.133979    20A      0.134313
      21A      0.142486    22A      0.142604    23A      0.154945
      24A      0.178797    25A      0.178972    26A      0.203594
      27A      0.214671    28A      0.276048    29A      0.276200
      30A      0.399213    31A      0.399279    32A      0.403383
      33A      0.424019    34A      0.424188    35A      0.456596
      36A      0.495193    37A      0.495482    38A      0.512265
      39A      0.513978    40A      0.578554    41A      0.578897
      42A      0.591784    43A      0.592085    44A      0.602892
      45A      0.624620    46A      0.631616    47A      0.636021
      48A      0.636229    49A      0.663216    50A      0.663965
      51A      0.683656    52A      0.684004    53A      0.735124
      54A      0.825556    55A      0.825596    56A      0.853874
      57A      0.914976    58A      0.915406    59A      0.944229
      60A      0.944628    61A      0.961074    62A      0.961333
      63A      1.002572    64A      1.127811    65A      1.127929
      66A      1.142585    67A      1.163315    68A      1.163545
      69A      1.223744    70A      1.274620    71A      1.274915
      72A      1.279519    73A      1.324193    74A      1.324290
      75A      1.356993    76A      1.365680    77A      1.365725
      78A      1.392374    79A      1.404212    80A      1.405148
      81A      1.417183    82A      1.418265    83A      1.428095
      84A      1.491025    85A      1.499581    86A      1.541973
      87A      1.542897    88A      1.574215    89A      1.574531
      90A      1.669286    91A      1.739458    92A      1.739761
      93A      1.768563    94A      1.830269    95A      1.831877
      96A      1.971155    97A      2.018371    98A      2.019046
      99A      2.019850   100A      2.052079   101A      2.053982
     102A      2.738408   103A      2.739225   104A      2.791146
     105A      2.811148   106A      2.890099   107A      2.890132
     108A      2.894933   109A      2.929337   110A      2.929359
     111A      2.958835   112A      2.964078   113A      2.964734
     114A      3.034059   115A      3.071877   116A      3.071921
     117A      3.084305   118A      3.168579   119A      3.169020
     120A      3.180403   121A      3.284638   122A      3.285290
     123A      3.326028   124A      3.326434   125A      3.375923
     126A      3.490184   127A      3.490510   128A      3.514473
     129A      3.525167   130A      3.568694   131A      3.568930
     132A      3.575610   133A      3.665685   134A      3.667108
     135A      3.678619   136A      3.694278   137A      3.694557
     138A      3.777665   139A      3.777702   140A      3.790445
     141A      3.912022   142A      3.912226   143A      4.035611
     144A      4.110541   145A      4.111432   146A      4.147299
     147A      4.148440   148A      4.173360   149A      4.202240
     150A      4.203176   151A      4.204363   152A      4.211014
     153A      4.315366   154A      4.317028   155A      4.358863
     156A      4.424737   157A      4.425413   158A      4.442555
     159A      4.516016   160A      4.517428   161A      4.578045
     162A      4.578300   163A      4.618386   164A      4.709899
     165A      4.774385   166A      4.775302   167A      4.837130
     168A      4.962800   169A      5.002911   170A      5.004391
     171A      5.228091   172A      5.244722   173A      5.248850
     174A      5.353865   175A      5.356324   176A      5.479888

    Beta Occupied:

       1A    -10.167779     2A    -10.167753     3A    -10.167721
       4A    -10.166404     5A     -0.781129     6A     -0.684003
       7A     -0.683995     8A     -0.511723     9A     -0.430902
      10A     -0.430871    11A     -0.422061    12A     -0.376987
      13A     -0.376899    14A     -0.362312    15A     -0.333100
      16A     -0.333051

    Beta Virtual:

      17A     -0.025595    18A      0.077062    19A      0.134848
      20A      0.135161    21A      0.144392    22A      0.144459
      23A      0.163371    24A      0.182460    25A      0.182672
      26A      0.214904    27A      0.218998    28A      0.282382
      29A      0.282539    30A      0.400380    31A      0.400443
      32A      0.419770    33A      0.426834    34A      0.427002
      35A      0.468568    36A      0.497446    37A      0.497750
      38A      0.513996    39A      0.556369    40A      0.584128
      41A      0.584441    42A      0.597925    43A      0.598273
      44A      0.610286    45A      0.628029    46A      0.631780
      47A      0.639320    48A      0.639527    49A      0.666784
      50A      0.667470    51A      0.686312    52A      0.686623
      53A      0.757640    54A      0.830702    55A      0.830746
      56A      0.855226    57A      0.922957    58A      0.923359
      59A      0.946067    60A      0.953592    61A      0.966369
      62A      0.966686    63A      1.007764    64A      1.131998
      65A      1.132008    66A      1.155950    67A      1.168292
      68A      1.168595    69A      1.232723    70A      1.280187
      71A      1.280506    72A      1.285283    73A      1.329127
      74A      1.329219    75A      1.366421    76A      1.370920
      77A      1.370966    78A      1.393421    79A      1.407658
      80A      1.408674    81A      1.422231    82A      1.423346
      83A      1.428382    84A      1.492070    85A      1.510044
      86A      1.546293    87A      1.547184    88A      1.582202
      89A      1.582486    90A      1.674147    91A      1.745215
      92A      1.745517    93A      1.779329    94A      1.834124
      95A      1.835747    96A      1.972018    97A      2.025313
      98A      2.026252    99A      2.039923   100A      2.058817
     101A      2.060633   102A      2.746750   103A      2.747549
     104A      2.811560   105A      2.816334   106A      2.902740
     107A      2.902863   108A      2.924700   109A      2.931812
     110A      2.931896   111A      2.959896   112A      2.968596
     113A      2.969279   114A      3.041952   115A      3.081656
     116A      3.081888   117A      3.086142   118A      3.184292
     119A      3.184949   120A      3.188033   121A      3.289471
     122A      3.290143   123A      3.329793   124A      3.330246
     125A      3.383778   126A      3.492946   127A      3.493194
     128A      3.512836   129A      3.528250   130A      3.575458
     131A      3.581927   132A      3.582254   133A      3.670450
     134A      3.671984   135A      3.691932   136A      3.725867
     137A      3.726171   138A      3.782127   139A      3.782221
     140A      3.818960   141A      3.921815   142A      3.922062
     143A      4.046486   144A      4.117398   145A      4.118249
     146A      4.154547   147A      4.155584   148A      4.187383
     149A      4.208411   150A      4.209891   151A      4.211351
     152A      4.215453   153A      4.322815   154A      4.324480
     155A      4.362211   156A      4.432893   157A      4.433570
     158A      4.445465   159A      4.523804   160A      4.525218
     161A      4.588658   162A      4.588935   163A      4.625655
     164A      4.720152   165A      4.781361   166A      4.782280
     167A      4.840049   168A      4.967579   169A      5.006957
     170A      5.008399   171A      5.233836   172A      5.246528
     173A      5.250633   174A      5.360352   175A      5.362831
     176A      5.482210

    Final Occupation by Irrep:
              A
    DOCC [    16 ]
    SOCC [     1 ]

  @DF-UKS Final Energy:  -157.81306496670234

   => Energetics <=

    Nuclear Repulsion Energy =            125.4033799387894703
    One-Electron Energy =                -458.7665000104917681
    Two-Electron Energy =                 195.8574560118809416
    DFT Exchange-Correlation Energy =     -20.3074009068810177
    Empirical Dispersion Energy =           0.0000000000000000
    VV10 Nonlocal Energy =                  0.0000000000000000
    Total Energy =                       -157.8130649667023420

  UHF NO Occupations:
  HONO-2 :   15  A 1.9996018
  HONO-1 :   16  A 1.9989796
  HONO-0 :   17  A 1.0000000
  LUNO+0 :   18  A 0.0010204
  LUNO+1 :   19  A 0.0003982
  LUNO+2 :   20  A 0.0001975
  LUNO+3 :   21  A 0.0001975

Computation Completed

Properties will be evaluated at   0.000000,   0.000000,   0.000000 [a0]

Properties computed using the SCF density matrix

  Nuclear Dipole Moment: [e a0]
     X:     0.8175      Y:    -0.0000      Z:    -0.0017

  Electronic Dipole Moment: [e a0]
     X:    -0.7395      Y:     0.0000      Z:     0.0023

  Dipole Moment: [e a0]
     X:     0.0780      Y:     0.0000      Z:     0.0007     Total:     0.0780

  Dipole Moment: [D]
     X:     0.1983      Y:     0.0000      Z:     0.0017     Total:     0.1983

*** tstop() called on n032 at Fri Nov  5 13:31:51 2021
Module time:
	user time   =     596.02 seconds =       9.93 minutes
	system time =      11.49 seconds =       0.19 minutes
	total time  =        153 seconds =       2.55 minutes
Total time:
	user time   =     596.02 seconds =       9.93 minutes
	system time =      11.49 seconds =       0.19 minutes
	total time  =        153 seconds =       2.55 minutes
Grab this energy -157.81306496670234
    Psi4 stopped on: Friday, 05 November 2021 01:31PM
    Psi4 wall time for execution: 0:02:32.79

*** Psi4 exiting successfully. Buy a developer a beer!
