                               Psi4 1.4a2.dev629

  ==> Input File <==

--------------------------------------------------------------------------
import os
memory 14 GB

molecule {
 C   -0.3201708858   -0.0000032011   -0.0053445380
 C    0.0623399740   -1.4003305660   -2.4265453763
 C    0.0623457410    2.8015749918   -0.0011064236
 C    0.0625919855   -1.4012392928    2.4259064760
 H    2.0868134760   -1.6441344032   -2.8465137204
 H   -0.7667997916   -0.3881403744   -4.0244824870
 H   -0.7661260560   -3.2922355965   -2.3487952967
 H    2.0864657371    3.2878337838    0.0009947539
 H   -0.7658333187    3.6813470409    1.6768341452
 H   -0.7675097480    3.6796328381   -1.6753611903
 H    2.0863983380   -1.6437922168    2.8479105253
 H   -0.7670630051   -3.2913012970    2.3500043125
 H   -0.7660603231   -0.3892360205    4.0264988194
units bohr
0 2
}

basis {

assign 6-31g_2dfp_

[ 6-31g_2dfp_ ]

spherical

!----------------------------------------------------------------------
! Basis Set Exchange
! Version v0.8.13
! https://www.basissetexchange.org
!----------------------------------------------------------------------
!   Basis set: 6-31G(2df,p)
! Description: 6-31G(2df,p)
!        Role: orbital
!     Version: 0  (Data from the original Basis Set Exchange)
!----------------------------------------------------------------------

****
H     0
S    3   1.00
     18.7311370              0.03349460
      2.8253937              0.23472695
      0.6401217              0.81375733
S    1   1.00
      0.1612778              1.00000000
P    1   1.00
      1.5000000              1.0000000
P    1   1.00
      0.3750000              1.0000000
****
B     0
S    6   1.00
   2068.8823000              0.0018663
    310.6495700              0.0142515
     70.6830330              0.0695516
     19.8610800              0.2325729
      6.2993048              0.4670787
      2.1270270              0.3634314
SP   3   1.00
      4.7279710             -0.1303938              0.0745976
      1.1903377             -0.1307889              0.3078467
      0.3594117              1.1309444              0.7434568
SP   1   1.00
      0.1267512              1.0000000              1.0000000
D    1   1.00
      0.8020000              1.0000000
D    1   1.00
      0.2005000              1.0000000
F    1   1.00
      0.5000000              1.0000000
****
C     0
S    6   1.00
   3047.5249000              0.0018347
    457.3695100              0.0140373
    103.9486900              0.0688426
     29.2101550              0.2321844
      9.2866630              0.4679413
      3.1639270              0.3623120
SP   3   1.00
      7.8682724             -0.1193324              0.0689991
      1.8812885             -0.1608542              0.3164240
      0.5442493              1.1434564              0.7443083
SP   1   1.00
      0.1687144              1.0000000              1.0000000
D    1   1.00
      1.2520000              1.0000000
D    1   1.00
      0.3130000              1.0000000
F    1   1.00
      0.8000000              1.0000000
****
N     0
S    6   1.00
   4173.5110000              0.0018348
    627.4579000              0.0139950
    142.9021000              0.0685870
     40.2343300              0.2322410
     12.8202100              0.4690700
      4.3904370              0.3604550
SP   3   1.00
     11.6263580             -0.1149610              0.0675800
      2.7162800             -0.1691180              0.3239070
      0.7722180              1.1458520              0.7408950
SP   1   1.00
      0.2120313              1.0000000              1.0000000
D    1   1.00
      1.8260000              1.0000000
D    1   1.00
      0.4565000              1.0000000
F    1   1.00
      1.0000000              1.0000000
****
O     0
S    6   1.00
   5484.6717000              0.0018311
    825.2349500              0.0139501
    188.0469600              0.0684451
     52.9645000              0.2327143
     16.8975700              0.4701930
      5.7996353              0.3585209
SP   3   1.00
     15.5396160             -0.1107775              0.0708743
      3.5999336             -0.1480263              0.3397528
      1.0137618              1.1307670              0.7271586
SP   1   1.00
      0.2700058              1.0000000              1.0000000
D    1   1.00
      2.5840000              1.0000000
D    1   1.00
      0.6460000              1.0000000
F    1   1.00
      1.4000000              1.0000000
****
F     0
S    6   1.00
   7001.7130900              0.0018196169
   1051.3660900              0.0139160796
    239.2856900              0.0684053245
     67.3974453              0.233185760
     21.5199573              0.471267439
      7.40310130             0.356618546
SP   3   1.00
     20.8479528             -0.108506975            0.0716287243
      4.80830834            -0.146451658            0.3459121030
      1.34406986             1.128688580            0.7224699570
SP   1   1.00
      0.358151393            1.0000000              1.0000000
D    1   1.00
      3.5000000              1.0000000
D    1   1.00
      0.8750000              1.0000000
F    1   1.00
      1.8500000              1.0000000
****
Al     0
S    6   1.00
  13983.1000000              0.00194267
   2098.7500000              0.0148599
    477.7050000              0.0728494
    134.3600000              0.2468300
     42.8709000              0.4872580
     14.5189000              0.3234960
SP   6   1.00
    239.6680000             -0.00292619             0.00460285
     57.4419000             -0.0374080              0.0331990
     18.2859000             -0.1144870              0.1362820
      6.5991400              0.1156350              0.3304760
      2.4904900              0.6125950              0.4491460
      0.9445400              0.3937990              0.2657040
SP   3   1.00
      1.2779000             -0.2276060             -0.0175130
      0.3975900              0.00144583             0.2445330
      0.1600950              1.0927900              0.8049340
SP   1   1.00
      0.0556577              1.0000000              1.0000000
D    1   1.00
      0.6500000              1.0000000
D    1   1.00
      0.1625000              1.0000000
F    1   1.00
      0.2500000              1.0000000
****
Si     0
S    6   1.00
  16115.9000000              0.00195948
   2425.5800000              0.01492880
    553.8670000              0.07284780
    156.3400000              0.24613000
     50.0683000              0.48591400
     17.0178000              0.32500200
SP   6   1.00
    292.7180000             -0.00278094             0.00443826
     69.8731000             -0.03571460             0.03266790
     22.3363000             -0.11498500             0.13472100
      8.1503900              0.09356340             0.32867800
      3.1345800              0.60301700             0.44964000
      1.2254300              0.41895900             0.26137200
SP   3   1.00
      1.7273800             -0.24463000            -0.01779510
      0.5729220              0.00431572             0.25353900
      0.2221920              1.09818000             0.80066900
SP   1   1.00
      0.0778369              1.00000000             1.00000000
D    1   1.00
      0.9000000              1.0000000
D    1   1.00
      0.2250000              1.0000000
F    1   1.00
      0.3200000              1.0000000
****
P     0
S    6   1.00
  19413.3000000              0.0018516
   2909.4200000              0.0142062
    661.3640000              0.0699995
    185.7590000              0.2400790
     59.1943000              0.4847620
     20.0310000              0.3352000
SP   6   1.00
    339.4780000             -0.00278217             0.00456462
     81.0101000             -0.0360499              0.03369360
     25.8780000             -0.1166310              0.13975500
      9.4522100              0.0968328              0.33936200
      3.6656600              0.6144180              0.45092100
      1.4674600              0.4037980              0.23858600
SP   3   1.00
      2.1562300             -0.2529230             -0.01776530
      0.7489970              0.0328517              0.27405800
      0.2831450              1.0812500              0.78542100
SP   1   1.00
      0.0998317              1.0000000              1.00000000
D    1   1.00
      1.1000000              1.0000000
D    1   1.00
      0.2750000              1.0000000
F    1   1.00
      0.4500000              1.0000000
****
S     0
S    6   1.00
  21917.1000000              0.0018690
   3301.4900000              0.0142300
    754.1460000              0.0696960
    212.7110000              0.2384870
     67.9896000              0.4833070
     23.0515000              0.3380740
SP   6   1.00
    423.7350000             -0.0023767              0.0040610
    100.7100000             -0.0316930              0.0306810
     32.1599000             -0.1133170              0.1304520
     11.8079000              0.0560900              0.3272050
      4.6311000              0.5922550              0.4528510
      1.8702500              0.4550060              0.2560420
SP   3   1.00
      2.6158400             -0.2503740             -0.0145110
      0.9221670              0.0669570              0.3102630
      0.3412870              1.0545100              0.7544830
SP   1   1.00
      0.1171670              1.0000000              1.0000000
D    1   1.00
      1.3000000              1.0000000
D    1   1.00
      0.3250000              1.0000000
F    1   1.00
      0.5500000              1.0000000
****
Cl     0
S    6   1.00
  25180.1000000              0.0018330
   3780.3500000              0.0140340
    860.4740000              0.0690970
    242.1450000              0.2374520
     77.3349000              0.4830340
     26.2470000              0.3398560
SP   6   1.00
    491.7650000             -0.0022974              0.0039894
    116.9840000             -0.0307140              0.0303180
     37.4153000             -0.1125280              0.1298800
     13.7834000              0.0450160              0.3279510
      5.4521500              0.5893530              0.4535270
      2.2258800              0.4652060              0.2521540
SP   3   1.00
      3.1864900             -0.2518300             -0.0142990
      1.1442700              0.0615890              0.3235720
      0.4203770              1.0601800              0.7435070
SP   1   1.00
      0.1426570              1.0000000              1.0000000
D    1   1.00
      1.5000000              1.0000000
D    1   1.00
      0.3750000              1.0000000
F    1   1.00
      0.7000000              1.0000000
****
}

set {
reference uhf
freeze_core true
e_convergence 10
d_convergence 10
dft_spherical_points 1202
dft_radial_points 99
}

e = energy('b3lyp')

print_out('Grab this energy {0}'.format(e))
--------------------------------------------------------------------------

    Molecular point group: c1

    Geometry (in Bohr), charge = 0, multiplicity = 2:

       Center              X                  Y                   Z               Mass
    ------------   -----------------  -----------------  -----------------  -----------------
         C           -0.321547410868    -0.000003143834    -0.003978979532    12.000000000000
         C            0.060963448932    -1.400330508734    -2.425179817832    12.000000000000
         C            0.060969215932     2.801575049066     0.000259134868    12.000000000000
         C            0.061215460432    -1.401239235534     2.427272034468    12.000000000000
         H            2.085436950932    -1.644134345934    -2.845148161932     1.007825032230
         H           -0.768176316668    -0.388140317134    -4.023116928532     1.007825032230
         H           -0.767502581068    -3.292235539234    -2.347429738232     1.007825032230
         H            2.085089212032     3.287833841066     0.002360312368     1.007825032230
         H           -0.767209843768     3.681347098166     1.678199703668     1.007825032230
         H           -0.768886273068     3.679632895366    -1.673995631832     1.007825032230
         H            2.085021812932    -1.643792159534     2.849276083768     1.007825032230
         H           -0.768439530168    -3.291301239734     2.351369870968     1.007825032230
         H           -0.767436848168    -0.389235963234     4.027864377868     1.007825032230

  Charge       = 0
  Multiplicity = 2
  Basis Set: ANONYMOUS40126461
    Blend: 6-31G_2DFP_
  Basis Set: (ANONYMOUS40126461 AUX)
    Blend: DEF2-UNIVERSAL-JKFIT

    Orbital Energies [Eh]
    ---------------------

    Alpha Occupied:

       1A    -10.180229     2A    -10.167027     3A    -10.166996
       4A    -10.166949     5A     -0.797823     6A     -0.686388
       7A     -0.686010     8A     -0.530754     9A     -0.441365
      10A     -0.434737    11A     -0.434310    12A     -0.382964
      13A     -0.382733    14A     -0.363327    15A     -0.338469
      16A     -0.337428    17A     -0.168845

    Alpha Virtual:

      18A      0.076055    19A      0.134135    20A      0.134160
      21A      0.142371    22A      0.142721    23A      0.154944
      24A      0.178878    25A      0.178889    26A      0.203589
      27A      0.214670    28A      0.275835    29A      0.276411
      30A      0.399123    31A      0.399370    32A      0.403384
      33A      0.424103    34A      0.424104    35A      0.456597
      36A      0.495289    37A      0.495387    38A      0.512265
      39A      0.513974    40A      0.578526    41A      0.578922
      42A      0.591941    43A      0.591953    44A      0.602884
      45A      0.624609    46A      0.631634    47A      0.635971
      48A      0.636276    49A      0.663518    50A      0.663651
      51A      0.683778    52A      0.683877    53A      0.735122
      54A      0.825472    55A      0.825689    56A      0.853869
      57A      0.915074    58A      0.915302    59A      0.944230
      60A      0.944636    61A      0.961025    62A      0.961375
      63A      1.002573    64A      1.127603    65A      1.128100
      66A      1.142633    67A      1.163037    68A      1.163813
      69A      1.223746    70A      1.274311    71A      1.275243
      72A      1.279498    73A      1.324149    74A      1.324333
      75A      1.357028    76A      1.365443    77A      1.365974
      78A      1.392363    79A      1.404617    80A      1.404718
      81A      1.417410    82A      1.418033    83A      1.428109
      84A      1.491026    85A      1.499583    86A      1.542425
      87A      1.542433    88A      1.574354    89A      1.574394
      90A      1.669289    91A      1.739433    92A      1.739835
      93A      1.768522    94A      1.830811    95A      1.831326
      96A      1.971172    97A      2.018550    98A      2.018788
      99A      2.019931   100A      2.052485   101A      2.053562
     102A      2.738578   103A      2.739056   104A      2.791147
     105A      2.811147   106A      2.889569   107A      2.890685
     108A      2.894901   109A      2.928956   110A      2.929740
     111A      2.958828   112A      2.964257   113A      2.964562
     114A      3.034043   115A      3.071405   116A      3.072417
     117A      3.084288   118A      3.168702   119A      3.168845
     120A      3.180459   121A      3.284658   122A      3.285264
     123A      3.325845   124A      3.326611   125A      3.375902
     126A      3.489814   127A      3.490859   128A      3.514483
     129A      3.525178   130A      3.568574   131A      3.569046
     132A      3.575603   133A      3.666083   134A      3.666704
     135A      3.678629   136A      3.694372   137A      3.694434
     138A      3.776932   139A      3.778411   140A      3.790488
     141A      3.911660   142A      3.912585   143A      4.035608
     144A      4.110673   145A      4.111316   146A      4.146919
     147A      4.148865   148A      4.173391   149A      4.202509
     150A      4.203272   151A      4.204026   152A      4.210973
     153A      4.315613   154A      4.316736   155A      4.358864
     156A      4.425012   157A      4.425097   158A      4.442572
     159A      4.516563   160A      4.516868   161A      4.577821
     162A      4.578248   163A      4.618658   164A      4.709909
     165A      4.774298   166A      4.775414   167A      4.837123
     168A      4.962757   169A      5.003424   170A      5.003941
     171A      5.228126   172A      5.246771   173A      5.246829
     174A      5.354506   175A      5.355618   176A      5.479859

    Beta Occupied:

       1A    -10.167780     2A    -10.167753     3A    -10.167720
       4A    -10.166404     5A     -0.781132     6A     -0.684175
       7A     -0.683821     8A     -0.511720     9A     -0.431098
      10A     -0.430677    11A     -0.422060    12A     -0.377021
      13A     -0.376871    14A     -0.362309    15A     -0.333604
      16A     -0.332544

    Beta Virtual:

      17A     -0.025594    18A      0.077063    19A      0.135001
      20A      0.135009    21A      0.144262    22A      0.144590
      23A      0.163372    24A      0.182548    25A      0.182583
      26A      0.214904    27A      0.218994    28A      0.282206
      29A      0.282712    30A      0.400292    31A      0.400532
      32A      0.419771    33A      0.426906    34A      0.426929
      35A      0.468568    36A      0.497547    37A      0.497650
      38A      0.513995    39A      0.556364    40A      0.584064
      41A      0.584506    42A      0.598105    43A      0.598112
      44A      0.610282    45A      0.628016    46A      0.631790
      47A      0.639261    48A      0.639595    49A      0.667060
      50A      0.667182    51A      0.686414    52A      0.686517
      53A      0.757639    54A      0.830624    55A      0.830833
      56A      0.855220    57A      0.923014    58A      0.923296
      59A      0.946067    60A      0.953600    61A      0.966342
      62A      0.966707    63A      1.007765    64A      1.131771
      65A      1.132216    66A      1.155985    67A      1.168053
      68A      1.168819    69A      1.232725    70A      1.279945
      71A      1.280772    72A      1.285259    73A      1.329092
      74A      1.329253    75A      1.366460    76A      1.370731
      77A      1.371168    78A      1.393410    79A      1.408046
      80A      1.408255    81A      1.422479    82A      1.423089
      83A      1.428400    84A      1.492070    85A      1.510047
      86A      1.546724    87A      1.546743    88A      1.582337
      89A      1.582352    90A      1.674151    91A      1.745182
      92A      1.745592    93A      1.779296    94A      1.834658
      95A      1.835202    96A      1.972033    97A      2.025212
      98A      2.026355    99A      2.039927   100A      2.059190
     101A      2.060244   102A      2.746880   103A      2.747420
     104A      2.811559   105A      2.816334   106A      2.902330
     107A      2.903269   108A      2.924695   109A      2.931409
     110A      2.932303   111A      2.959891   112A      2.968787
     113A      2.969089   114A      3.041938   115A      3.081368
     116A      3.082224   117A      3.086098   118A      3.184435
     119A      3.184638   120A      3.188207   121A      3.289542
     122A      3.290065   123A      3.329631   124A      3.330401
     125A      3.383759   126A      3.492525   127A      3.493587
     128A      3.512850   129A      3.528261   130A      3.575463
     131A      3.581894   132A      3.582277   133A      3.670977
     134A      3.671439   135A      3.691943   136A      3.725857
     137A      3.726161   138A      3.781438   139A      3.782904
     140A      3.818976   141A      3.921479   142A      3.922402
     143A      4.046484   144A      4.117558   145A      4.118110
     146A      4.154135   147A      4.156032   148A      4.187422
     149A      4.208808   150A      4.209618   151A      4.211238
     152A      4.215417   153A      4.323001   154A      4.324252
     155A      4.362213   156A      4.433169   157A      4.433245
     158A      4.445492   159A      4.524306   160A      4.524704
     161A      4.588429   162A      4.588867   163A      4.625947
     164A      4.720165   165A      4.781238   166A      4.782427
     167A      4.840043   168A      4.967532   169A      5.007467
     170A      5.007954   171A      5.233873   172A      5.248570
     173A      5.248617   174A      5.360977   175A      5.362141
     176A      5.482182

    Final Occupation by Irrep:
              A
    DOCC [    16 ]
    SOCC [     1 ]

  @DF-UKS Final Energy:  -157.81306707129247

   => Energetics <=

    Nuclear Repulsion Energy =            125.4034331104759303
    One-Electron Energy =                -458.7666137572562661
    Two-Electron Energy =                 195.8575146459974974
    DFT Exchange-Correlation Energy =     -20.3074010705096377
    Empirical Dispersion Energy =           0.0000000000000000
    VV10 Nonlocal Energy =                  0.0000000000000000
    Total Energy =                       -157.8130670712924655

  UHF NO Occupations:
  HONO-2 :   15  A 1.9996018
  HONO-1 :   16  A 1.9989796
  HONO-0 :   17  A 1.0000000
  LUNO+0 :   18  A 0.0010204
  LUNO+1 :   19  A 0.0003982
  LUNO+2 :   20  A 0.0001985
  LUNO+3 :   21  A 0.0001964

Computation Completed

Properties will be evaluated at   0.000000,   0.000000,   0.000000 [a0]

Properties computed using the SCF density matrix

  Nuclear Dipole Moment: [e a0]
     X:     0.8175      Y:    -0.0000      Z:     0.0096

  Electronic Dipole Moment: [e a0]
     X:    -0.7395      Y:     0.0000      Z:    -0.0108

  Dipole Moment: [e a0]
     X:     0.0780      Y:     0.0000      Z:    -0.0012     Total:     0.0780

  Dipole Moment: [D]
     X:     0.1983      Y:     0.0000      Z:    -0.0031     Total:     0.1984

*** tstop() called on n089 at Fri Nov  5 13:30:41 2021
Module time:
	user time   =     506.17 seconds =       8.44 minutes
	system time =       4.63 seconds =       0.08 minutes
	total time  =        129 seconds =       2.15 minutes
Total time:
	user time   =     506.17 seconds =       8.44 minutes
	system time =       4.63 seconds =       0.08 minutes
	total time  =        129 seconds =       2.15 minutes
Grab this energy -157.81306707129247
    Psi4 stopped on: Friday, 05 November 2021 01:30PM
    Psi4 wall time for execution: 0:02:08.43

*** Psi4 exiting successfully. Buy a developer a beer!
