                               Psi4 1.4a2.dev629

  ==> Input File <==

--------------------------------------------------------------------------
import os
memory 14 GB

molecule {
 C   -0.3233394417   -0.0004957134    0.0000005448
 C    0.0611892704   -1.4019588914   -2.4262509005
 C    0.0609243622    2.8009022831   -0.0009656208
 C    0.0611895690   -1.4002850976    2.4272180297
 H    2.0848469273   -1.6464522544   -2.8463679175
 H   -0.7666019803   -0.3885374121   -4.0260794411
 H   -0.7621992310   -3.2878783130   -2.3499808886
 H    2.0909814418    3.2876051072   -0.0026048781
 H   -0.7701875648    3.6812764735    1.6823051812
 H   -0.7654574611    3.6802656873   -1.6787805353
 H    2.0848477516   -1.6419491327    2.8489686677
 H   -0.7669219898   -3.2914383342    2.3491034347
 H   -0.7618795303   -0.3910787159    4.0234343239
units bohr
0 2
}

basis {

assign 6-31g_2dfp_

[ 6-31g_2dfp_ ]

spherical

!----------------------------------------------------------------------
! Basis Set Exchange
! Version v0.8.13
! https://www.basissetexchange.org
!----------------------------------------------------------------------
!   Basis set: 6-31G(2df,p)
! Description: 6-31G(2df,p)
!        Role: orbital
!     Version: 0  (Data from the original Basis Set Exchange)
!----------------------------------------------------------------------

****
H     0
S    3   1.00
     18.7311370              0.03349460
      2.8253937              0.23472695
      0.6401217              0.81375733
S    1   1.00
      0.1612778              1.00000000
P    1   1.00
      1.5000000              1.0000000
P    1   1.00
      0.3750000              1.0000000
****
B     0
S    6   1.00
   2068.8823000              0.0018663
    310.6495700              0.0142515
     70.6830330              0.0695516
     19.8610800              0.2325729
      6.2993048              0.4670787
      2.1270270              0.3634314
SP   3   1.00
      4.7279710             -0.1303938              0.0745976
      1.1903377             -0.1307889              0.3078467
      0.3594117              1.1309444              0.7434568
SP   1   1.00
      0.1267512              1.0000000              1.0000000
D    1   1.00
      0.8020000              1.0000000
D    1   1.00
      0.2005000              1.0000000
F    1   1.00
      0.5000000              1.0000000
****
C     0
S    6   1.00
   3047.5249000              0.0018347
    457.3695100              0.0140373
    103.9486900              0.0688426
     29.2101550              0.2321844
      9.2866630              0.4679413
      3.1639270              0.3623120
SP   3   1.00
      7.8682724             -0.1193324              0.0689991
      1.8812885             -0.1608542              0.3164240
      0.5442493              1.1434564              0.7443083
SP   1   1.00
      0.1687144              1.0000000              1.0000000
D    1   1.00
      1.2520000              1.0000000
D    1   1.00
      0.3130000              1.0000000
F    1   1.00
      0.8000000              1.0000000
****
N     0
S    6   1.00
   4173.5110000              0.0018348
    627.4579000              0.0139950
    142.9021000              0.0685870
     40.2343300              0.2322410
     12.8202100              0.4690700
      4.3904370              0.3604550
SP   3   1.00
     11.6263580             -0.1149610              0.0675800
      2.7162800             -0.1691180              0.3239070
      0.7722180              1.1458520              0.7408950
SP   1   1.00
      0.2120313              1.0000000              1.0000000
D    1   1.00
      1.8260000              1.0000000
D    1   1.00
      0.4565000              1.0000000
F    1   1.00
      1.0000000              1.0000000
****
O     0
S    6   1.00
   5484.6717000              0.0018311
    825.2349500              0.0139501
    188.0469600              0.0684451
     52.9645000              0.2327143
     16.8975700              0.4701930
      5.7996353              0.3585209
SP   3   1.00
     15.5396160             -0.1107775              0.0708743
      3.5999336             -0.1480263              0.3397528
      1.0137618              1.1307670              0.7271586
SP   1   1.00
      0.2700058              1.0000000              1.0000000
D    1   1.00
      2.5840000              1.0000000
D    1   1.00
      0.6460000              1.0000000
F    1   1.00
      1.4000000              1.0000000
****
F     0
S    6   1.00
   7001.7130900              0.0018196169
   1051.3660900              0.0139160796
    239.2856900              0.0684053245
     67.3974453              0.233185760
     21.5199573              0.471267439
      7.40310130             0.356618546
SP   3   1.00
     20.8479528             -0.108506975            0.0716287243
      4.80830834            -0.146451658            0.3459121030
      1.34406986             1.128688580            0.7224699570
SP   1   1.00
      0.358151393            1.0000000              1.0000000
D    1   1.00
      3.5000000              1.0000000
D    1   1.00
      0.8750000              1.0000000
F    1   1.00
      1.8500000              1.0000000
****
Al     0
S    6   1.00
  13983.1000000              0.00194267
   2098.7500000              0.0148599
    477.7050000              0.0728494
    134.3600000              0.2468300
     42.8709000              0.4872580
     14.5189000              0.3234960
SP   6   1.00
    239.6680000             -0.00292619             0.00460285
     57.4419000             -0.0374080              0.0331990
     18.2859000             -0.1144870              0.1362820
      6.5991400              0.1156350              0.3304760
      2.4904900              0.6125950              0.4491460
      0.9445400              0.3937990              0.2657040
SP   3   1.00
      1.2779000             -0.2276060             -0.0175130
      0.3975900              0.00144583             0.2445330
      0.1600950              1.0927900              0.8049340
SP   1   1.00
      0.0556577              1.0000000              1.0000000
D    1   1.00
      0.6500000              1.0000000
D    1   1.00
      0.1625000              1.0000000
F    1   1.00
      0.2500000              1.0000000
****
Si     0
S    6   1.00
  16115.9000000              0.00195948
   2425.5800000              0.01492880
    553.8670000              0.07284780
    156.3400000              0.24613000
     50.0683000              0.48591400
     17.0178000              0.32500200
SP   6   1.00
    292.7180000             -0.00278094             0.00443826
     69.8731000             -0.03571460             0.03266790
     22.3363000             -0.11498500             0.13472100
      8.1503900              0.09356340             0.32867800
      3.1345800              0.60301700             0.44964000
      1.2254300              0.41895900             0.26137200
SP   3   1.00
      1.7273800             -0.24463000            -0.01779510
      0.5729220              0.00431572             0.25353900
      0.2221920              1.09818000             0.80066900
SP   1   1.00
      0.0778369              1.00000000             1.00000000
D    1   1.00
      0.9000000              1.0000000
D    1   1.00
      0.2250000              1.0000000
F    1   1.00
      0.3200000              1.0000000
****
P     0
S    6   1.00
  19413.3000000              0.0018516
   2909.4200000              0.0142062
    661.3640000              0.0699995
    185.7590000              0.2400790
     59.1943000              0.4847620
     20.0310000              0.3352000
SP   6   1.00
    339.4780000             -0.00278217             0.00456462
     81.0101000             -0.0360499              0.03369360
     25.8780000             -0.1166310              0.13975500
      9.4522100              0.0968328              0.33936200
      3.6656600              0.6144180              0.45092100
      1.4674600              0.4037980              0.23858600
SP   3   1.00
      2.1562300             -0.2529230             -0.01776530
      0.7489970              0.0328517              0.27405800
      0.2831450              1.0812500              0.78542100
SP   1   1.00
      0.0998317              1.0000000              1.00000000
D    1   1.00
      1.1000000              1.0000000
D    1   1.00
      0.2750000              1.0000000
F    1   1.00
      0.4500000              1.0000000
****
S     0
S    6   1.00
  21917.1000000              0.0018690
   3301.4900000              0.0142300
    754.1460000              0.0696960
    212.7110000              0.2384870
     67.9896000              0.4833070
     23.0515000              0.3380740
SP   6   1.00
    423.7350000             -0.0023767              0.0040610
    100.7100000             -0.0316930              0.0306810
     32.1599000             -0.1133170              0.1304520
     11.8079000              0.0560900              0.3272050
      4.6311000              0.5922550              0.4528510
      1.8702500              0.4550060              0.2560420
SP   3   1.00
      2.6158400             -0.2503740             -0.0145110
      0.9221670              0.0669570              0.3102630
      0.3412870              1.0545100              0.7544830
SP   1   1.00
      0.1171670              1.0000000              1.0000000
D    1   1.00
      1.3000000              1.0000000
D    1   1.00
      0.3250000              1.0000000
F    1   1.00
      0.5500000              1.0000000
****
Cl     0
S    6   1.00
  25180.1000000              0.0018330
   3780.3500000              0.0140340
    860.4740000              0.0690970
    242.1450000              0.2374520
     77.3349000              0.4830340
     26.2470000              0.3398560
SP   6   1.00
    491.7650000             -0.0022974              0.0039894
    116.9840000             -0.0307140              0.0303180
     37.4153000             -0.1125280              0.1298800
     13.7834000              0.0450160              0.3279510
      5.4521500              0.5893530              0.4535270
      2.2258800              0.4652060              0.2521540
SP   3   1.00
      3.1864900             -0.2518300             -0.0142990
      1.1442700              0.0615890              0.3235720
      0.4203770              1.0601800              0.7435070
SP   1   1.00
      0.1426570              1.0000000              1.0000000
D    1   1.00
      1.5000000              1.0000000
D    1   1.00
      0.3750000              1.0000000
F    1   1.00
      0.7000000              1.0000000
****
}

set {
reference uhf
freeze_core true
e_convergence 10
d_convergence 10
dft_spherical_points 1202
dft_radial_points 99
}

e = energy('b3lyp')

print_out('Grab this energy {0}'.format(e))
--------------------------------------------------------------------------

    Molecular point group: c1

    Geometry (in Bohr), charge = 0, multiplicity = 2:

       Center              X                  Y                   Z               Mass
    ------------   -----------------  -----------------  -----------------  -----------------
         C           -0.323340162965    -0.000141383847     0.000000149337    12.000000000000
         C            0.061188549135    -1.401604561847    -2.426251295963    12.000000000000
         C            0.060923640935     2.801256612653    -0.000966016263    12.000000000000
         C            0.061188847735    -1.399930768047     2.427217634237    12.000000000000
         H            2.084846206035    -1.646097924847    -2.846368312963     1.007825032230
         H           -0.766602701565    -0.388183082547    -4.026079836563     1.007825032230
         H           -0.762199952265    -3.287523983447    -2.349981284063     1.007825032230
         H            2.090980720535     3.287959436753    -0.002605273563     1.007825032230
         H           -0.770188286065     3.681630803053     1.682304785737     1.007825032230
         H           -0.765458182365     3.680620016853    -1.678780930763     1.007825032230
         H            2.084847030335    -1.641594803147     2.848968272237     1.007825032230
         H           -0.766922711065    -3.291084004647     2.349103039237     1.007825032230
         H           -0.761880251565    -0.390724386347     4.023433928437     1.007825032230

  Charge       = 0
  Multiplicity = 2
  Basis Set: ANONYMOUS666B4E0E
    Blend: 6-31G_2DFP_
  Basis Set: (ANONYMOUS666B4E0E AUX)
    Blend: DEF2-UNIVERSAL-JKFIT

    Orbital Energies [Eh]
    ---------------------

    Alpha Occupied:

       1A    -10.180342     2A    -10.167685     3A    -10.166695
       4A    -10.166664     5A     -0.797767     6A     -0.686510
       7A     -0.685868     8A     -0.530777     9A     -0.441125
      10A     -0.434758    11A     -0.434586    12A     -0.382821
      13A     -0.382377    14A     -0.363611    15A     -0.338030
      16A     -0.337965    17A     -0.168961

    Alpha Virtual:

      18A      0.076070    19A      0.134120    20A      0.134155
      21A      0.142537    22A      0.142745    23A      0.154874
      24A      0.178462    25A      0.179103    26A      0.203545
      27A      0.214807    28A      0.275939    29A      0.276032
      30A      0.399146    31A      0.399310    32A      0.403344
      33A      0.424001    34A      0.424192    35A      0.456590
      36A      0.495320    37A      0.495460    38A      0.512160
      39A      0.513979    40A      0.578685    41A      0.578944
      42A      0.591315    43A      0.591932    44A      0.602589
      45A      0.624721    46A      0.631740    47A      0.635947
      48A      0.636625    49A      0.663233    50A      0.663596
      51A      0.683560    52A      0.684181    53A      0.734994
      54A      0.824998    55A      0.825806    56A      0.853916
      57A      0.915014    58A      0.915042    59A      0.944103
      60A      0.944638    61A      0.961038    62A      0.961550
      63A      1.003458    64A      1.127775    65A      1.128448
      66A      1.142218    67A      1.163186    68A      1.163349
      69A      1.223321    70A      1.274308    71A      1.274673
      72A      1.279349    73A      1.323979    74A      1.324699
      75A      1.355973    76A      1.365796    77A      1.366310
      78A      1.392469    79A      1.403656    80A      1.404437
      81A      1.416804    82A      1.417424    83A      1.427915
      84A      1.491455    85A      1.499108    86A      1.542769
      87A      1.542884    88A      1.574174    89A      1.574737
      90A      1.669808    91A      1.739327    92A      1.739460
      93A      1.768322    94A      1.829865    95A      1.833012
      96A      1.971671    97A      2.018109    98A      2.018953
      99A      2.019358   100A      2.052605   101A      2.052740
     102A      2.738036   103A      2.738931   104A      2.790923
     105A      2.811432   106A      2.889631   107A      2.890231
     108A      2.894976   109A      2.929390   110A      2.929596
     111A      2.959005   112A      2.963856   113A      2.964927
     114A      3.034007   115A      3.071082   116A      3.071490
     117A      3.084399   118A      3.168659   119A      3.168903
     120A      3.180600   121A      3.285243   122A      3.285376
     123A      3.327129   124A      3.327219   125A      3.375608
     126A      3.489327   127A      3.491007   128A      3.514006
     129A      3.525353   130A      3.568362   131A      3.568374
     132A      3.575186   133A      3.665563   134A      3.667121
     135A      3.679664   136A      3.693714   137A      3.694574
     138A      3.776217   139A      3.777415   140A      3.789119
     141A      3.911769   142A      3.912672   143A      4.034429
     144A      4.110492   145A      4.111991   146A      4.146068
     147A      4.150188   148A      4.173189   149A      4.200551
     150A      4.203592   151A      4.204584   152A      4.211319
     153A      4.315267   154A      4.316637   155A      4.358940
     156A      4.424136   157A      4.424697   158A      4.443559
     159A      4.516583   160A      4.517072   161A      4.577858
     162A      4.578728   163A      4.617533   164A      4.709487
     165A      4.774495   166A      4.774714   167A      4.836871
     168A      4.962880   169A      5.002424   170A      5.003531
     171A      5.227820   172A      5.242998   173A      5.250452
     174A      5.352752   175A      5.358621   176A      5.479465

    Beta Occupied:

       1A    -10.168447     2A    -10.167445     3A    -10.167433
       4A    -10.166517     5A     -0.781092     6A     -0.684312
       7A     -0.683670     8A     -0.511749     9A     -0.431140
      10A     -0.430946    11A     -0.421823    12A     -0.376916
      13A     -0.376452    14A     -0.362595    15A     -0.333146
      16A     -0.333096

    Beta Virtual:

      17A     -0.025743    18A      0.077079    19A      0.134967
      20A      0.135089    21A      0.144454    22A      0.144568
      23A      0.163333    24A      0.182142    25A      0.182765
      26A      0.215030    27A      0.218935    28A      0.282285
      29A      0.282382    30A      0.400312    31A      0.400483
      32A      0.419791    33A      0.426809    34A      0.427006
      35A      0.468498    36A      0.497580    37A      0.497720
      38A      0.513897    39A      0.556323    40A      0.584227
      41A      0.584501    42A      0.597521    43A      0.598089
      44A      0.610006    45A      0.628068    46A      0.631970
      47A      0.639213    48A      0.639889    49A      0.666784
      50A      0.667174    51A      0.686229    52A      0.686782
      53A      0.757517    54A      0.830140    55A      0.831000
      56A      0.855270    57A      0.922986    58A      0.923011
      59A      0.945963    60A      0.953543    61A      0.966372
      62A      0.966827    63A      1.008698    64A      1.131790
      65A      1.132491    66A      1.155594    67A      1.168245
      68A      1.168437    69A      1.232295    70A      1.279903
      71A      1.280272    72A      1.285102    73A      1.328921
      74A      1.329734    75A      1.365380    76A      1.371060
      77A      1.371541    78A      1.393529    79A      1.407104
      80A      1.407920    81A      1.421809    82A      1.422520
      83A      1.428184    84A      1.492517    85A      1.509537
      86A      1.547134    87A      1.547337    88A      1.582051
      89A      1.582600    90A      1.674653    91A      1.745104
      92A      1.745211    93A      1.779100    94A      1.833750
      95A      1.836839    96A      1.972549    97A      2.025413
      98A      2.025462    99A      2.039700   100A      2.059259
     101A      2.059521   102A      2.746358   103A      2.747282
     104A      2.811839   105A      2.816063   106A      2.902430
     107A      2.902833   108A      2.924654   109A      2.931921
     110A      2.932029   111A      2.960069   112A      2.968363
     113A      2.969508   114A      3.041937   115A      3.080937
     116A      3.081419   117A      3.086259   118A      3.184373
     119A      3.184671   120A      3.188298   121A      3.290015
     122A      3.290201   123A      3.330953   124A      3.331003
     125A      3.383427   126A      3.492090   127A      3.493706
     128A      3.512374   129A      3.528393   130A      3.574949
     131A      3.581731   132A      3.581783   133A      3.670268
     134A      3.671922   135A      3.692983   136A      3.725307
     137A      3.726205   138A      3.780775   139A      3.781910
     140A      3.817665   141A      3.921599   142A      3.922476
     143A      4.045311   144A      4.117515   145A      4.118565
     146A      4.153512   147A      4.157213   148A      4.187195
     149A      4.207200   150A      4.209577   151A      4.211755
     152A      4.215875   153A      4.322831   154A      4.323952
     155A      4.362306   156A      4.432358   157A      4.432858
     158A      4.446489   159A      4.524436   160A      4.524802
     161A      4.588504   162A      4.589282   163A      4.624724
     164A      4.719831   165A      4.781416   166A      4.781698
     167A      4.839787   168A      4.967676   169A      5.006480
     170A      5.007553   171A      5.233532   172A      5.244790
     173A      5.252246   174A      5.359239   175A      5.365081
     176A      5.481786

    Final Occupation by Irrep:
              A
    DOCC [    16 ]
    SOCC [     1 ]

  @DF-UKS Final Energy:  -157.81304574490008

   => Energetics <=

    Nuclear Repulsion Energy =            125.3946889115638328
    One-Electron Energy =                -458.7489742681841562
    Two-Electron Energy =                 195.8483903758090037
    DFT Exchange-Correlation Energy =     -20.3071507640887603
    Empirical Dispersion Energy =           0.0000000000000000
    VV10 Nonlocal Energy =                  0.0000000000000000
    Total Energy =                       -157.8130457449000801

  UHF NO Occupations:
  HONO-2 :   15  A 1.9996009
  HONO-1 :   16  A 1.9989805
  HONO-0 :   17  A 1.0000000
  LUNO+0 :   18  A 0.0010195
  LUNO+1 :   19  A 0.0003991
  LUNO+2 :   20  A 0.0001976
  LUNO+3 :   21  A 0.0001975

Computation Completed

Properties will be evaluated at   0.000000,   0.000000,   0.000000 [a0]

Properties computed using the SCF density matrix

  Nuclear Dipole Moment: [e a0]
     X:     0.8272      Y:     0.0025      Z:    -0.0000

  Electronic Dipole Moment: [e a0]
     X:    -0.7493      Y:    -0.0049      Z:    -0.0000

  Dipole Moment: [e a0]
     X:     0.0779      Y:    -0.0025      Z:    -0.0000     Total:     0.0780

  Dipole Moment: [D]
     X:     0.1980      Y:    -0.0062      Z:    -0.0000     Total:     0.1981

*** tstop() called on n065 at Fri Nov  5 14:41:22 2021
Module time:
	user time   =     542.55 seconds =       9.04 minutes
	system time =      12.00 seconds =       0.20 minutes
	total time  =        140 seconds =       2.33 minutes
Total time:
	user time   =     542.55 seconds =       9.04 minutes
	system time =      12.00 seconds =       0.20 minutes
	total time  =        140 seconds =       2.33 minutes
Grab this energy -157.81304574490008
    Psi4 stopped on: Friday, 05 November 2021 02:41PM
    Psi4 wall time for execution: 0:02:19.45

*** Psi4 exiting successfully. Buy a developer a beer!
