                               Psi4 1.4a2.dev629

  ==> Input File <==

--------------------------------------------------------------------------
import os
memory 14 GB

molecule {
 C   -0.3233383396   -0.0020004196    0.0053454177
 C    0.0611908990   -1.4019833352   -2.4251949264
 C    0.0611744648    2.8026024073    0.0011041526
 C    0.0609340407   -1.4010758698    2.4258361168
 H    2.0868429667   -1.6458500491   -2.8443844474
 H   -0.7635909316   -0.3861242150   -4.0225176289
 H   -0.7669678187   -3.2930824755   -2.3544417298
 H    2.0865684624    3.2926884421   -0.0010059796
 H   -0.7669884316    3.6791688169    1.6765315666
 H   -0.7653164580    3.6808855159   -1.6780021662
 H    2.0872501469   -1.6461967125    2.8429837957
 H   -0.7660350077   -3.2940217143    2.3532396769
 H   -0.7643318700   -0.3850347048    4.0205061518
units bohr
0 2
}

basis {

assign 6-31g_2dfp_

[ 6-31g_2dfp_ ]

spherical

!----------------------------------------------------------------------
! Basis Set Exchange
! Version v0.8.13
! https://www.basissetexchange.org
!----------------------------------------------------------------------
!   Basis set: 6-31G(2df,p)
! Description: 6-31G(2df,p)
!        Role: orbital
!     Version: 0  (Data from the original Basis Set Exchange)
!----------------------------------------------------------------------

****
H     0
S    3   1.00
     18.7311370              0.03349460
      2.8253937              0.23472695
      0.6401217              0.81375733
S    1   1.00
      0.1612778              1.00000000
P    1   1.00
      1.5000000              1.0000000
P    1   1.00
      0.3750000              1.0000000
****
B     0
S    6   1.00
   2068.8823000              0.0018663
    310.6495700              0.0142515
     70.6830330              0.0695516
     19.8610800              0.2325729
      6.2993048              0.4670787
      2.1270270              0.3634314
SP   3   1.00
      4.7279710             -0.1303938              0.0745976
      1.1903377             -0.1307889              0.3078467
      0.3594117              1.1309444              0.7434568
SP   1   1.00
      0.1267512              1.0000000              1.0000000
D    1   1.00
      0.8020000              1.0000000
D    1   1.00
      0.2005000              1.0000000
F    1   1.00
      0.5000000              1.0000000
****
C     0
S    6   1.00
   3047.5249000              0.0018347
    457.3695100              0.0140373
    103.9486900              0.0688426
     29.2101550              0.2321844
      9.2866630              0.4679413
      3.1639270              0.3623120
SP   3   1.00
      7.8682724             -0.1193324              0.0689991
      1.8812885             -0.1608542              0.3164240
      0.5442493              1.1434564              0.7443083
SP   1   1.00
      0.1687144              1.0000000              1.0000000
D    1   1.00
      1.2520000              1.0000000
D    1   1.00
      0.3130000              1.0000000
F    1   1.00
      0.8000000              1.0000000
****
N     0
S    6   1.00
   4173.5110000              0.0018348
    627.4579000              0.0139950
    142.9021000              0.0685870
     40.2343300              0.2322410
     12.8202100              0.4690700
      4.3904370              0.3604550
SP   3   1.00
     11.6263580             -0.1149610              0.0675800
      2.7162800             -0.1691180              0.3239070
      0.7722180              1.1458520              0.7408950
SP   1   1.00
      0.2120313              1.0000000              1.0000000
D    1   1.00
      1.8260000              1.0000000
D    1   1.00
      0.4565000              1.0000000
F    1   1.00
      1.0000000              1.0000000
****
O     0
S    6   1.00
   5484.6717000              0.0018311
    825.2349500              0.0139501
    188.0469600              0.0684451
     52.9645000              0.2327143
     16.8975700              0.4701930
      5.7996353              0.3585209
SP   3   1.00
     15.5396160             -0.1107775              0.0708743
      3.5999336             -0.1480263              0.3397528
      1.0137618              1.1307670              0.7271586
SP   1   1.00
      0.2700058              1.0000000              1.0000000
D    1   1.00
      2.5840000              1.0000000
D    1   1.00
      0.6460000              1.0000000
F    1   1.00
      1.4000000              1.0000000
****
F     0
S    6   1.00
   7001.7130900              0.0018196169
   1051.3660900              0.0139160796
    239.2856900              0.0684053245
     67.3974453              0.233185760
     21.5199573              0.471267439
      7.40310130             0.356618546
SP   3   1.00
     20.8479528             -0.108506975            0.0716287243
      4.80830834            -0.146451658            0.3459121030
      1.34406986             1.128688580            0.7224699570
SP   1   1.00
      0.358151393            1.0000000              1.0000000
D    1   1.00
      3.5000000              1.0000000
D    1   1.00
      0.8750000              1.0000000
F    1   1.00
      1.8500000              1.0000000
****
Al     0
S    6   1.00
  13983.1000000              0.00194267
   2098.7500000              0.0148599
    477.7050000              0.0728494
    134.3600000              0.2468300
     42.8709000              0.4872580
     14.5189000              0.3234960
SP   6   1.00
    239.6680000             -0.00292619             0.00460285
     57.4419000             -0.0374080              0.0331990
     18.2859000             -0.1144870              0.1362820
      6.5991400              0.1156350              0.3304760
      2.4904900              0.6125950              0.4491460
      0.9445400              0.3937990              0.2657040
SP   3   1.00
      1.2779000             -0.2276060             -0.0175130
      0.3975900              0.00144583             0.2445330
      0.1600950              1.0927900              0.8049340
SP   1   1.00
      0.0556577              1.0000000              1.0000000
D    1   1.00
      0.6500000              1.0000000
D    1   1.00
      0.1625000              1.0000000
F    1   1.00
      0.2500000              1.0000000
****
Si     0
S    6   1.00
  16115.9000000              0.00195948
   2425.5800000              0.01492880
    553.8670000              0.07284780
    156.3400000              0.24613000
     50.0683000              0.48591400
     17.0178000              0.32500200
SP   6   1.00
    292.7180000             -0.00278094             0.00443826
     69.8731000             -0.03571460             0.03266790
     22.3363000             -0.11498500             0.13472100
      8.1503900              0.09356340             0.32867800
      3.1345800              0.60301700             0.44964000
      1.2254300              0.41895900             0.26137200
SP   3   1.00
      1.7273800             -0.24463000            -0.01779510
      0.5729220              0.00431572             0.25353900
      0.2221920              1.09818000             0.80066900
SP   1   1.00
      0.0778369              1.00000000             1.00000000
D    1   1.00
      0.9000000              1.0000000
D    1   1.00
      0.2250000              1.0000000
F    1   1.00
      0.3200000              1.0000000
****
P     0
S    6   1.00
  19413.3000000              0.0018516
   2909.4200000              0.0142062
    661.3640000              0.0699995
    185.7590000              0.2400790
     59.1943000              0.4847620
     20.0310000              0.3352000
SP   6   1.00
    339.4780000             -0.00278217             0.00456462
     81.0101000             -0.0360499              0.03369360
     25.8780000             -0.1166310              0.13975500
      9.4522100              0.0968328              0.33936200
      3.6656600              0.6144180              0.45092100
      1.4674600              0.4037980              0.23858600
SP   3   1.00
      2.1562300             -0.2529230             -0.01776530
      0.7489970              0.0328517              0.27405800
      0.2831450              1.0812500              0.78542100
SP   1   1.00
      0.0998317              1.0000000              1.00000000
D    1   1.00
      1.1000000              1.0000000
D    1   1.00
      0.2750000              1.0000000
F    1   1.00
      0.4500000              1.0000000
****
S     0
S    6   1.00
  21917.1000000              0.0018690
   3301.4900000              0.0142300
    754.1460000              0.0696960
    212.7110000              0.2384870
     67.9896000              0.4833070
     23.0515000              0.3380740
SP   6   1.00
    423.7350000             -0.0023767              0.0040610
    100.7100000             -0.0316930              0.0306810
     32.1599000             -0.1133170              0.1304520
     11.8079000              0.0560900              0.3272050
      4.6311000              0.5922550              0.4528510
      1.8702500              0.4550060              0.2560420
SP   3   1.00
      2.6158400             -0.2503740             -0.0145110
      0.9221670              0.0669570              0.3102630
      0.3412870              1.0545100              0.7544830
SP   1   1.00
      0.1171670              1.0000000              1.0000000
D    1   1.00
      1.3000000              1.0000000
D    1   1.00
      0.3250000              1.0000000
F    1   1.00
      0.5500000              1.0000000
****
Cl     0
S    6   1.00
  25180.1000000              0.0018330
   3780.3500000              0.0140340
    860.4740000              0.0690970
    242.1450000              0.2374520
     77.3349000              0.4830340
     26.2470000              0.3398560
SP   6   1.00
    491.7650000             -0.0022974              0.0039894
    116.9840000             -0.0307140              0.0303180
     37.4153000             -0.1125280              0.1298800
     13.7834000              0.0450160              0.3279510
      5.4521500              0.5893530              0.4535270
      2.2258800              0.4652060              0.2521540
SP   3   1.00
      3.1864900             -0.2518300             -0.0142990
      1.1442700              0.0615890              0.3235720
      0.4203770              1.0601800              0.7435070
SP   1   1.00
      0.1426570              1.0000000              1.0000000
D    1   1.00
      1.5000000              1.0000000
D    1   1.00
      0.3750000              1.0000000
F    1   1.00
      0.7000000              1.0000000
****
}

set {
reference uhf
freeze_core true
e_convergence 10
d_convergence 10
dft_spherical_points 1202
dft_radial_points 99
}

e = energy('b3lyp')

print_out('Grab this energy {0}'.format(e))
--------------------------------------------------------------------------

    Molecular point group: c1

    Geometry (in Bohr), charge = 0, multiplicity = 2:

       Center              X                  Y                   Z               Mass
    ------------   -----------------  -----------------  -----------------  -----------------
         C           -0.323338541788    -0.001526712488     0.003979686121    12.000000000000
         C            0.061190696812    -1.401509628088    -2.426560657979    12.000000000000
         C            0.061174262612     2.803076114412    -0.000261578979    12.000000000000
         C            0.060933838512    -1.400602162688     2.424470385221    12.000000000000
         H            2.086842764512    -1.645376341988    -2.845750178979     1.007825032230
         H           -0.763591133788    -0.385650507888    -4.023883360479     1.007825032230
         H           -0.766968020888    -3.292608768388    -2.355807461379     1.007825032230
         H            2.086568260212     3.293162149212    -0.002371711179     1.007825032230
         H           -0.766988633788     3.679642524012     1.675165835021     1.007825032230
         H           -0.765316660188     3.681359223012    -1.679367897779     1.007825032230
         H            2.087249944712    -1.645723005388     2.841618064121     1.007825032230
         H           -0.766035209888    -3.293548007188     2.351873945321     1.007825032230
         H           -0.764332072188    -0.384560997688     4.019140420221     1.007825032230

  Charge       = 0
  Multiplicity = 2
  Basis Set: ANONYMOUS947E418A
    Blend: 6-31G_2DFP_
  Basis Set: (ANONYMOUS947E418A AUX)
    Blend: DEF2-UNIVERSAL-JKFIT

    Orbital Energies [Eh]
    ---------------------

    Alpha Occupied:

       1A    -10.180341     2A    -10.167199     3A    -10.166956
       4A    -10.166889     5A     -0.797770     6A     -0.686410
       7A     -0.685963     8A     -0.530775     9A     -0.441136
      10A     -0.434888    11A     -0.434446    12A     -0.382723
      13A     -0.382478    14A     -0.363609    15A     -0.338520
      16A     -0.337474    17A     -0.168960

    Alpha Virtual:

      18A      0.076072    19A      0.134120    20A      0.134191
      21A      0.142440    22A      0.142809    23A      0.154880
      24A      0.178738    25A      0.178819    26A      0.203544
      27A      0.214804    28A      0.275591    29A      0.276379
      30A      0.399095    31A      0.399355    32A      0.403353
      33A      0.424042    34A      0.424155    35A      0.456593
      36A      0.495313    37A      0.495465    38A      0.512159
      39A      0.513978    40A      0.578462    41A      0.579165
      42A      0.591345    43A      0.591935    44A      0.602579
      45A      0.624747    46A      0.631775    47A      0.636111
      48A      0.636408    49A      0.663338    50A      0.663486
      51A      0.683796    52A      0.683910    53A      0.734993
      54A      0.825163    55A      0.825648    56A      0.853916
      57A      0.914832    58A      0.915199    59A      0.944123
      60A      0.944618    61A      0.960579    62A      0.962012
      63A      1.003464    64A      1.127743    65A      1.128420
      66A      1.142263    67A      1.162874    68A      1.163678
      69A      1.223329    70A      1.273995    71A      1.274985
      72A      1.279345    73A      1.324258    74A      1.324455
      75A      1.355996    76A      1.365737    77A      1.366371
      78A      1.392441    79A      1.403723    80A      1.404374
      81A      1.416614    82A      1.417617    83A      1.427924
      84A      1.491491    85A      1.499078    86A      1.542560
      87A      1.543104    88A      1.574422    89A      1.574468
      90A      1.669829    91A      1.738991    92A      1.739858
      93A      1.768309    94A      1.830840    95A      1.831951
      96A      1.971732    97A      2.017904    98A      2.018787
      99A      2.019710   100A      2.051676   101A      2.053619
     102A      2.738123   103A      2.738845   104A      2.790931
     105A      2.811413   106A      2.889306   107A      2.890563
     108A      2.894984   109A      2.929105   110A      2.929892
     111A      2.958990   112A      2.964166   113A      2.964591
     114A      3.034001   115A      3.070766   116A      3.071813
     117A      3.084349   118A      3.168567   119A      3.168948
     120A      3.180656   121A      3.285010   122A      3.285614
     123A      3.326647   124A      3.327660   125A      3.375607
     126A      3.489604   127A      3.490663   128A      3.514034
     129A      3.525315   130A      3.568033   131A      3.568666
     132A      3.575250   133A      3.666013   134A      3.666710
     135A      3.679631   136A      3.693726   137A      3.694555
     138A      3.775347   139A      3.778241   140A      3.789203
     141A      3.911698   142A      3.912769   143A      4.034431
     144A      4.110060   145A      4.112649   146A      4.146749
     147A      4.149457   148A      4.173298   149A      4.202110
     150A      4.203006   151A      4.203667   152A      4.210887
     153A      4.315001   154A      4.316891   155A      4.359036
     156A      4.424192   157A      4.424704   158A      4.443459
     159A      4.516404   160A      4.517260   161A      4.577832
     162A      4.578386   163A      4.617830   164A      4.709467
     165A      4.773359   166A      4.775856   167A      4.836939
     168A      4.962820   169A      5.002556   170A      5.003406
     171A      5.228038   172A      5.246345   173A      5.247295
     174A      5.354587   175A      5.356417   176A      5.479355

    Beta Occupied:

       1A    -10.167957     2A    -10.167710     3A    -10.167656
       4A    -10.166519     5A     -0.781095     6A     -0.684199
       7A     -0.683779     8A     -0.511747     9A     -0.431270
      10A     -0.430823    11A     -0.421815    12A     -0.376768
      13A     -0.376604    14A     -0.362592    15A     -0.333652
      16A     -0.332588

    Beta Virtual:

      17A     -0.025743    18A      0.077081    19A      0.135020
      20A      0.135069    21A      0.144321    22A      0.144672
      23A      0.163339    24A      0.182422    25A      0.182477
      26A      0.215034    27A      0.218927    28A      0.281971
      29A      0.282694    30A      0.400271    31A      0.400525
      32A      0.419790    33A      0.426850    34A      0.426971
      35A      0.468500    36A      0.497574    37A      0.497726
      38A      0.513895    39A      0.556320    40A      0.583999
      41A      0.584731    42A      0.597537    43A      0.598100
      44A      0.610001    45A      0.628123    46A      0.631931
      47A      0.639376    48A      0.639717    49A      0.666907
      50A      0.667045    51A      0.686416    52A      0.686560
      53A      0.757516    54A      0.830314    55A      0.830835
      56A      0.855269    57A      0.922806    58A      0.923165
      59A      0.945961    60A      0.953542    61A      0.965939
      62A      0.967271    63A      1.008705    64A      1.131751
      65A      1.132489    66A      1.155624    67A      1.167964
      68A      1.168732    69A      1.232301    70A      1.279644
      71A      1.280533    72A      1.285098    73A      1.329259
      74A      1.329433    75A      1.365412    76A      1.371036
      77A      1.371559    78A      1.393502    79A      1.407146
      80A      1.407877    81A      1.421672    82A      1.422658
      83A      1.428196    84A      1.492539    85A      1.509522
      86A      1.546968    87A      1.547512    88A      1.582307
      89A      1.582327    90A      1.674676    91A      1.744743
      92A      1.745629    93A      1.779087    94A      1.834691
      95A      1.835811    96A      1.972591    97A      2.024875
      98A      2.026008    99A      2.039692   100A      2.058375
     101A      2.060355   102A      2.746449   103A      2.747192
     104A      2.811826   105A      2.816064   106A      2.902118
     107A      2.903157   108A      2.924658   109A      2.931533
     110A      2.932429   111A      2.960054   112A      2.968723
     113A      2.969121   114A      3.041936   115A      3.080751
     116A      3.081645   117A      3.086165   118A      3.184304
     119A      3.184587   120A      3.188463   121A      3.289844
     122A      3.290377   123A      3.330461   124A      3.331456
     125A      3.383427   126A      3.492330   127A      3.493389
     128A      3.512407   129A      3.528367   130A      3.574912
     131A      3.581361   132A      3.582207   133A      3.670876
     134A      3.671372   135A      3.692930   136A      3.725555
     137A      3.725955   138A      3.779935   139A      3.782726
     140A      3.817719   141A      3.921526   142A      3.922580
     143A      4.045318   144A      4.116998   145A      4.119347
     146A      4.153967   147A      4.156661   148A      4.187350
     149A      4.208451   150A      4.209336   151A      4.210831
     152A      4.215368   153A      4.322384   154A      4.324380
     155A      4.362405   156A      4.432449   157A      4.432869
     158A      4.446354   159A      4.524188   160A      4.525055
     161A      4.588423   162A      4.588970   163A      4.625048
     164A      4.719814   165A      4.780329   166A      4.782792
     167A      4.839858   168A      4.967612   169A      5.006596
     170A      5.007446   171A      5.233754   172A      5.248122
     173A      5.249087   174A      5.361035   175A      5.362930
     176A      5.481677

    Final Occupation by Irrep:
              A
    DOCC [    16 ]
    SOCC [     1 ]

  @DF-UKS Final Energy:  -157.81306051224325

   => Energetics <=

    Nuclear Repulsion Energy =            125.3947112177452823
    One-Electron Energy =                -458.7490609243851623
    Two-Electron Energy =                 195.8484356924128633
    DFT Exchange-Correlation Energy =     -20.3071464980162375
    Empirical Dispersion Energy =           0.0000000000000000
    VV10 Nonlocal Energy =                  0.0000000000000000
    Total Energy =                       -157.8130605122432542

  UHF NO Occupations:
  HONO-2 :   15  A 1.9996009
  HONO-1 :   16  A 1.9989804
  HONO-0 :   17  A 1.0000000
  LUNO+0 :   18  A 0.0010196
  LUNO+1 :   19  A 0.0003991
  LUNO+2 :   20  A 0.0001987
  LUNO+3 :   21  A 0.0001964

Computation Completed

Properties will be evaluated at   0.000000,   0.000000,   0.000000 [a0]

Properties computed using the SCF density matrix

  Nuclear Dipole Moment: [e a0]
     X:     0.8272      Y:     0.0033      Z:    -0.0096

  Electronic Dipole Moment: [e a0]
     X:    -0.7493      Y:    -0.0033      Z:     0.0108

  Dipole Moment: [e a0]
     X:     0.0779      Y:    -0.0000      Z:     0.0012     Total:     0.0779

  Dipole Moment: [D]
     X:     0.1980      Y:    -0.0000      Z:     0.0031     Total:     0.1981

*** tstop() called on n049 at Fri Nov  5 13:58:52 2021
Module time:
	user time   =     542.78 seconds =       9.05 minutes
	system time =      12.04 seconds =       0.20 minutes
	total time  =        140 seconds =       2.33 minutes
Total time:
	user time   =     542.78 seconds =       9.05 minutes
	system time =      12.04 seconds =       0.20 minutes
	total time  =        140 seconds =       2.33 minutes
Grab this energy -157.81306051224325
    Psi4 stopped on: Friday, 05 November 2021 01:58PM
    Psi4 wall time for execution: 0:02:19.53

*** Psi4 exiting successfully. Buy a developer a beer!
