                               Psi4 1.4a2.dev629

  ==> Input File <==

--------------------------------------------------------------------------
import os
memory 14 GB

molecule {
 C   -0.3198747691   -0.0000019721    0.0000000000
 C    0.0623271439   -1.3980647802   -2.4215089091
 C    0.0622075938    2.7961339213   -0.0000000000
 C    0.0623271439   -1.3980647802    2.4215089091
 H    2.0863138239   -1.6406684799   -2.8415012572
 H   -0.7662650574   -0.3860229809   -4.0200995141
 H   -0.7664281395   -3.2884377751   -2.3443930101
 H    2.0861751871    3.2812443323   -0.0000000000
 H   -0.7665057152    3.6744937186    1.6757128973
 H   -0.7665057152    3.6744937186   -1.6757128973
 H    2.0863138239   -1.6406684799    2.8415012572
 H   -0.7664281395   -3.2884377751    2.3443930101
 H   -0.7662650574   -0.3860229809    4.0200995141
units bohr
0 2
}

basis {

assign 6-31g_2dfp_

[ 6-31g_2dfp_ ]

spherical

!----------------------------------------------------------------------
! Basis Set Exchange
! Version v0.8.13
! https://www.basissetexchange.org
!----------------------------------------------------------------------
!   Basis set: 6-31G(2df,p)
! Description: 6-31G(2df,p)
!        Role: orbital
!     Version: 0  (Data from the original Basis Set Exchange)
!----------------------------------------------------------------------

****
H     0
S    3   1.00
     18.7311370              0.03349460
      2.8253937              0.23472695
      0.6401217              0.81375733
S    1   1.00
      0.1612778              1.00000000
P    1   1.00
      1.5000000              1.0000000
P    1   1.00
      0.3750000              1.0000000
****
B     0
S    6   1.00
   2068.8823000              0.0018663
    310.6495700              0.0142515
     70.6830330              0.0695516
     19.8610800              0.2325729
      6.2993048              0.4670787
      2.1270270              0.3634314
SP   3   1.00
      4.7279710             -0.1303938              0.0745976
      1.1903377             -0.1307889              0.3078467
      0.3594117              1.1309444              0.7434568
SP   1   1.00
      0.1267512              1.0000000              1.0000000
D    1   1.00
      0.8020000              1.0000000
D    1   1.00
      0.2005000              1.0000000
F    1   1.00
      0.5000000              1.0000000
****
C     0
S    6   1.00
   3047.5249000              0.0018347
    457.3695100              0.0140373
    103.9486900              0.0688426
     29.2101550              0.2321844
      9.2866630              0.4679413
      3.1639270              0.3623120
SP   3   1.00
      7.8682724             -0.1193324              0.0689991
      1.8812885             -0.1608542              0.3164240
      0.5442493              1.1434564              0.7443083
SP   1   1.00
      0.1687144              1.0000000              1.0000000
D    1   1.00
      1.2520000              1.0000000
D    1   1.00
      0.3130000              1.0000000
F    1   1.00
      0.8000000              1.0000000
****
N     0
S    6   1.00
   4173.5110000              0.0018348
    627.4579000              0.0139950
    142.9021000              0.0685870
     40.2343300              0.2322410
     12.8202100              0.4690700
      4.3904370              0.3604550
SP   3   1.00
     11.6263580             -0.1149610              0.0675800
      2.7162800             -0.1691180              0.3239070
      0.7722180              1.1458520              0.7408950
SP   1   1.00
      0.2120313              1.0000000              1.0000000
D    1   1.00
      1.8260000              1.0000000
D    1   1.00
      0.4565000              1.0000000
F    1   1.00
      1.0000000              1.0000000
****
O     0
S    6   1.00
   5484.6717000              0.0018311
    825.2349500              0.0139501
    188.0469600              0.0684451
     52.9645000              0.2327143
     16.8975700              0.4701930
      5.7996353              0.3585209
SP   3   1.00
     15.5396160             -0.1107775              0.0708743
      3.5999336             -0.1480263              0.3397528
      1.0137618              1.1307670              0.7271586
SP   1   1.00
      0.2700058              1.0000000              1.0000000
D    1   1.00
      2.5840000              1.0000000
D    1   1.00
      0.6460000              1.0000000
F    1   1.00
      1.4000000              1.0000000
****
F     0
S    6   1.00
   7001.7130900              0.0018196169
   1051.3660900              0.0139160796
    239.2856900              0.0684053245
     67.3974453              0.233185760
     21.5199573              0.471267439
      7.40310130             0.356618546
SP   3   1.00
     20.8479528             -0.108506975            0.0716287243
      4.80830834            -0.146451658            0.3459121030
      1.34406986             1.128688580            0.7224699570
SP   1   1.00
      0.358151393            1.0000000              1.0000000
D    1   1.00
      3.5000000              1.0000000
D    1   1.00
      0.8750000              1.0000000
F    1   1.00
      1.8500000              1.0000000
****
Al     0
S    6   1.00
  13983.1000000              0.00194267
   2098.7500000              0.0148599
    477.7050000              0.0728494
    134.3600000              0.2468300
     42.8709000              0.4872580
     14.5189000              0.3234960
SP   6   1.00
    239.6680000             -0.00292619             0.00460285
     57.4419000             -0.0374080              0.0331990
     18.2859000             -0.1144870              0.1362820
      6.5991400              0.1156350              0.3304760
      2.4904900              0.6125950              0.4491460
      0.9445400              0.3937990              0.2657040
SP   3   1.00
      1.2779000             -0.2276060             -0.0175130
      0.3975900              0.00144583             0.2445330
      0.1600950              1.0927900              0.8049340
SP   1   1.00
      0.0556577              1.0000000              1.0000000
D    1   1.00
      0.6500000              1.0000000
D    1   1.00
      0.1625000              1.0000000
F    1   1.00
      0.2500000              1.0000000
****
Si     0
S    6   1.00
  16115.9000000              0.00195948
   2425.5800000              0.01492880
    553.8670000              0.07284780
    156.3400000              0.24613000
     50.0683000              0.48591400
     17.0178000              0.32500200
SP   6   1.00
    292.7180000             -0.00278094             0.00443826
     69.8731000             -0.03571460             0.03266790
     22.3363000             -0.11498500             0.13472100
      8.1503900              0.09356340             0.32867800
      3.1345800              0.60301700             0.44964000
      1.2254300              0.41895900             0.26137200
SP   3   1.00
      1.7273800             -0.24463000            -0.01779510
      0.5729220              0.00431572             0.25353900
      0.2221920              1.09818000             0.80066900
SP   1   1.00
      0.0778369              1.00000000             1.00000000
D    1   1.00
      0.9000000              1.0000000
D    1   1.00
      0.2250000              1.0000000
F    1   1.00
      0.3200000              1.0000000
****
P     0
S    6   1.00
  19413.3000000              0.0018516
   2909.4200000              0.0142062
    661.3640000              0.0699995
    185.7590000              0.2400790
     59.1943000              0.4847620
     20.0310000              0.3352000
SP   6   1.00
    339.4780000             -0.00278217             0.00456462
     81.0101000             -0.0360499              0.03369360
     25.8780000             -0.1166310              0.13975500
      9.4522100              0.0968328              0.33936200
      3.6656600              0.6144180              0.45092100
      1.4674600              0.4037980              0.23858600
SP   3   1.00
      2.1562300             -0.2529230             -0.01776530
      0.7489970              0.0328517              0.27405800
      0.2831450              1.0812500              0.78542100
SP   1   1.00
      0.0998317              1.0000000              1.00000000
D    1   1.00
      1.1000000              1.0000000
D    1   1.00
      0.2750000              1.0000000
F    1   1.00
      0.4500000              1.0000000
****
S     0
S    6   1.00
  21917.1000000              0.0018690
   3301.4900000              0.0142300
    754.1460000              0.0696960
    212.7110000              0.2384870
     67.9896000              0.4833070
     23.0515000              0.3380740
SP   6   1.00
    423.7350000             -0.0023767              0.0040610
    100.7100000             -0.0316930              0.0306810
     32.1599000             -0.1133170              0.1304520
     11.8079000              0.0560900              0.3272050
      4.6311000              0.5922550              0.4528510
      1.8702500              0.4550060              0.2560420
SP   3   1.00
      2.6158400             -0.2503740             -0.0145110
      0.9221670              0.0669570              0.3102630
      0.3412870              1.0545100              0.7544830
SP   1   1.00
      0.1171670              1.0000000              1.0000000
D    1   1.00
      1.3000000              1.0000000
D    1   1.00
      0.3250000              1.0000000
F    1   1.00
      0.5500000              1.0000000
****
Cl     0
S    6   1.00
  25180.1000000              0.0018330
   3780.3500000              0.0140340
    860.4740000              0.0690970
    242.1450000              0.2374520
     77.3349000              0.4830340
     26.2470000              0.3398560
SP   6   1.00
    491.7650000             -0.0022974              0.0039894
    116.9840000             -0.0307140              0.0303180
     37.4153000             -0.1125280              0.1298800
     13.7834000              0.0450160              0.3279510
      5.4521500              0.5893530              0.4535270
      2.2258800              0.4652060              0.2521540
SP   3   1.00
      3.1864900             -0.2518300             -0.0142990
      1.1442700              0.0615890              0.3235720
      0.4203770              1.0601800              0.7435070
SP   1   1.00
      0.1426570              1.0000000              1.0000000
D    1   1.00
      1.5000000              1.0000000
D    1   1.00
      0.3750000              1.0000000
F    1   1.00
      0.7000000              1.0000000
****
}

set {
reference uhf
freeze_core true
e_convergence 10
d_convergence 10
dft_spherical_points 1202
dft_radial_points 99
}

e = energy('b3lyp')

print_out('Grab this energy {0}'.format(e))
--------------------------------------------------------------------------

    Molecular point group: cs

    Geometry (in Bohr), charge = 0, multiplicity = 2:

       Center              X                  Y                   Z               Mass
    ------------   -----------------  -----------------  -----------------  -----------------
         C           -0.321228238660    -0.000002002840     0.000000000000    12.000000000000
         C            0.060973674340    -1.398064810940    -2.421508909100    12.000000000000
         C            0.060854124240     2.796133890560     0.000000000000    12.000000000000
         C            0.060973674340    -1.398064810940     2.421508909100    12.000000000000
         H            2.084960354340    -1.640668510640    -2.841501257200     1.007825032230
         H           -0.767618526960    -0.386023011640    -4.020099514100     1.007825032230
         H           -0.767781609060    -3.288437805840    -2.344393010100     1.007825032230
         H            2.084821717540     3.281244301560     0.000000000000     1.007825032230
         H           -0.767859184760     3.674493687860     1.675712897300     1.007825032230
         H           -0.767859184760     3.674493687860    -1.675712897300     1.007825032230
         H            2.084960354340    -1.640668510640     2.841501257200     1.007825032230
         H           -0.767781609060    -3.288437805840     2.344393010100     1.007825032230
         H           -0.767618526960    -0.386023011640     4.020099514100     1.007825032230

  Charge       = 0
  Multiplicity = 2
  Basis Set: ANONYMOUS6B781733
    Blend: 6-31G_2DFP_
  Basis Set: (ANONYMOUS6B781733 AUX)
    Blend: DEF2-UNIVERSAL-JKFIT

    Orbital Energies [Eh]
    ---------------------

    Alpha Occupied:

       1Ap   -10.179455     2Ap   -10.166645     1App  -10.166645
       3Ap   -10.166599     4Ap    -0.798870     5Ap    -0.686501
       2App   -0.686501     6Ap    -0.530752     7Ap    -0.441956
       3App   -0.435007     8Ap    -0.435007     9Ap    -0.382922
       4App   -0.382921     5App   -0.363210     6App   -0.338137
      10Ap    -0.338137    11Ap    -0.168520

    Alpha Virtual:

      12Ap     0.076026    13Ap     0.134184     7App    0.134184
      14Ap     0.142754     8App    0.142754    15Ap     0.155006
      16Ap     0.179058     9App    0.179058    17Ap     0.204687
      10App    0.215016    11App    0.276643    18Ap     0.276644
      19Ap     0.399216    12App    0.399220    20Ap     0.403172
      13App    0.423831    21Ap     0.423832    22Ap     0.457185
      23Ap     0.495567    14App    0.495568    15App    0.512601
      24Ap     0.514377    25Ap     0.579406    16App    0.579414
      17App    0.592481    26Ap     0.592483    27Ap     0.603343
      28Ap     0.625026    18App    0.631989    19App    0.636937
      29Ap     0.636941    30Ap     0.664053    20App    0.664054
      31Ap     0.684285    21App    0.684287    32Ap     0.734916
      22App    0.825424    33Ap     0.825427    23App    0.854869
      24App    0.915920    34Ap     0.915926    35Ap     0.944037
      25App    0.945571    26App    0.962155    36Ap     0.962171
      37Ap     1.003700    38Ap     1.128759    27App    1.128772
      39Ap     1.142951    40Ap     1.164185    28App    1.164198
      41Ap     1.224647    42Ap     1.275677    29App    1.275680
      43Ap     1.280018    30App    1.324578    44Ap     1.324581
      45Ap     1.357205    31App    1.367543    46Ap     1.367548
      32App    1.393886    47Ap     1.404390    33App    1.404392
      34App    1.418078    48Ap     1.418085    35App    1.429492
      36App    1.492257    49Ap     1.500168    37App    1.543149
      50Ap     1.543150    51Ap     1.575537    38App    1.575539
      52Ap     1.669232    53Ap     1.740250    39App    1.740262
      54Ap     1.770052    40App    1.832261    55Ap     1.832261
      41App    1.972558    56Ap     2.020472    42App    2.020476
      57Ap     2.020884    58Ap     2.057515    43App    2.057515
      44App    2.739408    59Ap     2.739409    60Ap     2.792297
      45App    2.813877    61Ap     2.891253    46App    2.891259
      62Ap     2.896419    63Ap     2.929534    47App    2.929543
      48App    2.959069    64Ap     2.964094    49App    2.964108
      65Ap     3.034003    50App    3.072869    66Ap     3.072883
      51App    3.085877    67Ap     3.169646    52App    3.169654
      68Ap     3.182287    69Ap     3.285444    53App    3.285444
      70Ap     3.326678    54App    3.326684    71Ap     3.374516
      55App    3.492120    72Ap     3.492140    56App    3.515240
      73Ap     3.527512    57App    3.568757    74Ap     3.568777
      58App    3.577752    75Ap     3.666357    59App    3.666366
      76Ap     3.680586    60App    3.695848    77Ap     3.695864
      78Ap     3.782153    61App    3.782178    79Ap     3.791114
      80Ap     3.914201    62App    3.914207    81Ap     4.037483
      82Ap     4.113820    63App    4.113824    83Ap     4.148669
      64App    4.148678    84Ap     4.174588    85Ap     4.204481
      65App    4.205747    86Ap     4.205750    66App    4.212519
      87Ap     4.317703    67App    4.317723    68App    4.361383
      88Ap     4.427134    69App    4.427137    70App    4.444978
      71App    4.519725    89Ap     4.519726    72App    4.581734
      90Ap     4.581747    91Ap     4.625738    92Ap     4.714676
      93Ap     4.781272    73App    4.781280    74App    4.841072
      94Ap     4.965863    75App    5.005273    95Ap     5.005285
      96Ap     5.229140    76App    5.248212    97Ap     5.248213
      98Ap     5.357672    77App    5.357685    78App    5.485634

    Beta Occupied:

       1Ap   -10.167401     1App  -10.167400     2Ap   -10.167371
       3Ap   -10.165657     4Ap    -0.782157     5Ap    -0.684280
       2App   -0.684279     6Ap    -0.511819     3App   -0.431348
       7Ap    -0.431347     8Ap    -0.422564     9Ap    -0.376982
       4App   -0.376981     5App   -0.362181     6App   -0.333267
      10Ap    -0.333267

    Beta Virtual:

      11Ap    -0.025563    12Ap     0.077045    13Ap     0.135036
       7App    0.135037    14Ap     0.144660     8App    0.144661
      15Ap     0.163479    16Ap     0.182766     9App    0.182767
      10App    0.215257    17Ap     0.219910    11App    0.282909
      18Ap     0.282911    19Ap     0.400414    12App    0.400418
      20Ap     0.419463    13App    0.426636    21Ap     0.426637
      22Ap     0.469513    23Ap     0.497841    14App    0.497842
      15App    0.514347    24Ap     0.556691    25Ap     0.584972
      16App    0.584980    17App    0.598583    26Ap     0.598584
      27Ap     0.610783    28Ap     0.628496    18App    0.632155
      19App    0.640314    29Ap     0.640318    30Ap     0.667547
      20App    0.667548    31Ap     0.687004    21App    0.687005
      32Ap     0.757254    22App    0.830590    33Ap     0.830593
      23App    0.856256    24App    0.923899    34Ap     0.923906
      25App    0.947410    35Ap     0.952908    26App    0.967504
      36Ap     0.967520    37Ap     1.008818    38Ap     1.132893
      27App    1.132905    39Ap     1.156333    40Ap     1.169198
      28App    1.169210    41Ap     1.233766    42Ap     1.281294
      29App    1.281297    43Ap     1.285713    30App    1.329509
      44Ap     1.329511    45Ap     1.366669    31App    1.372772
      46Ap     1.372776    32App    1.394940    47Ap     1.407847
      33App    1.407850    34App    1.423196    48Ap     1.423203
      35App    1.429813    36App    1.493300    49Ap     1.510696
      50Ap     1.547401    37App    1.547402    38App    1.583571
      51Ap     1.583572    52Ap     1.674100    53Ap     1.746008
      39App    1.746019    54Ap     1.780850    40App    1.836140
      55Ap     1.836141    41App    1.973423    56Ap     2.026923
      42App    2.026926    57Ap     2.042301    58Ap     2.064233
      43App    2.064233    44App    2.747645    59Ap     2.747646
      45App    2.814294    60Ap     2.817465    61Ap     2.903691
      46App    2.903697    62Ap     2.926279    63Ap     2.932218
      47App    2.932228    48App    2.960142    64Ap     2.968683
      49App    2.968697    65Ap     3.041984    50App    3.082842
      66Ap     3.082854    51App    3.087705    67Ap     3.185369
      52App    3.185374    68Ap     3.189847    69Ap     3.290464
      53App    3.290465    70Ap     3.330391    54App    3.330396
      71Ap     3.382357    55App    3.494834    72Ap     3.494854
      56App    3.513592    73Ap     3.530545    57App    3.577641
      58App    3.582029    74Ap     3.582051    75Ap     3.671064
      59App    3.671075    76Ap     3.693882    60App    3.727284
      77Ap     3.727300    78Ap     3.786678    61App    3.786704
      79Ap     3.819498    80Ap     3.924021    62App    3.924029
      81Ap     4.048296    82Ap     4.120376    63App    4.120377
      83Ap     4.156056    64App    4.156065    84Ap     4.188736
      65App    4.211688    85Ap     4.211692    86Ap     4.212521
      66App    4.217029    87Ap     4.325187    67App    4.325207
      68App    4.364711    88Ap     4.435398    69App    4.435400
      70App    4.447901    71App    4.527642    89Ap     4.527644
      72App    4.592378    90Ap     4.592390    91Ap     4.632987
      92Ap     4.725012    93Ap     4.788251    73App    4.788259
      74App    4.843989    94Ap     4.970664    75App    5.009339
      95Ap     5.009352    96Ap     5.234926    76App    5.250018
      97Ap     5.250018    98Ap     5.364224    77App    5.364237
      78App    5.487978

    Final Occupation by Irrep:
             Ap   App
    DOCC [    10,    6 ]
    SOCC [     1,    0 ]

  @DF-UKS Final Energy:  -157.81304294431439

   => Energetics <=

    Nuclear Repulsion Energy =            125.5849166340594820
    One-Electron Energy =                -459.1238977903587966
    Two-Electron Energy =                 196.0371456604785294
    DFT Exchange-Correlation Energy =     -20.3112074484936151
    Empirical Dispersion Energy =           0.0000000000000000
    VV10 Nonlocal Energy =                  0.0000000000000000
    Total Energy =                       -157.8130429443143896

  UHF NO Occupations:
  HONO-2 :    9 Ap 1.9996002
  HONO-1 :   10 Ap 1.9989866
  HONO-0 :   11 Ap 1.0000000
  LUNO+0 :   12 Ap 0.0010134
  LUNO+1 :   13 Ap 0.0003998
  LUNO+2 :    7App 0.0001953
  LUNO+3 :   14 Ap 0.0001953

Computation Completed

Properties will be evaluated at   0.000000,   0.000000,   0.000000 [a0]

Properties computed using the SCF density matrix

  Nuclear Dipole Moment: [e a0]
     X:     0.8177      Y:    -0.0000      Z:     0.0000

  Electronic Dipole Moment: [e a0]
     X:    -0.7405      Y:     0.0000      Z:     0.0000

  Dipole Moment: [e a0]
     X:     0.0772      Y:    -0.0000      Z:     0.0000     Total:     0.0772

  Dipole Moment: [D]
     X:     0.1961      Y:    -0.0000      Z:     0.0000     Total:     0.1961

*** tstop() called on n091 at Fri Nov  5 13:39:37 2021
Module time:
	user time   =     495.25 seconds =       8.25 minutes
	system time =       4.56 seconds =       0.08 minutes
	total time  =        125 seconds =       2.08 minutes
Total time:
	user time   =     495.25 seconds =       8.25 minutes
	system time =       4.56 seconds =       0.08 minutes
	total time  =        125 seconds =       2.08 minutes
Grab this energy -157.8130429443144
    Psi4 stopped on: Friday, 05 November 2021 01:39PM
    Psi4 wall time for execution: 0:02:05.69

*** Psi4 exiting successfully. Buy a developer a beer!
