                               Psi4 1.4a2.dev629

  ==> Input File <==

--------------------------------------------------------------------------
import os
memory 14 GB

molecule {
 C   -0.3233165256    0.0010198676    0.0000000000
 C    0.0608594691   -1.4026568204   -2.4263402759
 C    0.0618615550    2.8020251565   -0.0000000000
 C    0.0608594691   -1.4026568204    2.4263402759
 H    2.0838246740   -1.6437299666   -2.8480103369
 H   -0.7636467244   -0.3902259836   -4.0239566074
 H   -0.7640625470   -3.2893335331   -2.3503357422
 H    2.0835639864    3.2885584270    0.0000000000
 H   -0.7643333179    3.6801324214    1.6736183025
 H   -0.7643333179    3.6801324214   -1.6736183025
 H    2.0838246740   -1.6437299666    2.8480103369
 H   -0.7640625470   -3.2893335331    2.3503357422
 H   -0.7636467244   -0.3902259836    4.0239566074
units bohr
0 2
}

basis {

assign 6-31g_2dfp_

[ 6-31g_2dfp_ ]

spherical

!----------------------------------------------------------------------
! Basis Set Exchange
! Version v0.8.13
! https://www.basissetexchange.org
!----------------------------------------------------------------------
!   Basis set: 6-31G(2df,p)
! Description: 6-31G(2df,p)
!        Role: orbital
!     Version: 0  (Data from the original Basis Set Exchange)
!----------------------------------------------------------------------

****
H     0
S    3   1.00
     18.7311370              0.03349460
      2.8253937              0.23472695
      0.6401217              0.81375733
S    1   1.00
      0.1612778              1.00000000
P    1   1.00
      1.5000000              1.0000000
P    1   1.00
      0.3750000              1.0000000
****
B     0
S    6   1.00
   2068.8823000              0.0018663
    310.6495700              0.0142515
     70.6830330              0.0695516
     19.8610800              0.2325729
      6.2993048              0.4670787
      2.1270270              0.3634314
SP   3   1.00
      4.7279710             -0.1303938              0.0745976
      1.1903377             -0.1307889              0.3078467
      0.3594117              1.1309444              0.7434568
SP   1   1.00
      0.1267512              1.0000000              1.0000000
D    1   1.00
      0.8020000              1.0000000
D    1   1.00
      0.2005000              1.0000000
F    1   1.00
      0.5000000              1.0000000
****
C     0
S    6   1.00
   3047.5249000              0.0018347
    457.3695100              0.0140373
    103.9486900              0.0688426
     29.2101550              0.2321844
      9.2866630              0.4679413
      3.1639270              0.3623120
SP   3   1.00
      7.8682724             -0.1193324              0.0689991
      1.8812885             -0.1608542              0.3164240
      0.5442493              1.1434564              0.7443083
SP   1   1.00
      0.1687144              1.0000000              1.0000000
D    1   1.00
      1.2520000              1.0000000
D    1   1.00
      0.3130000              1.0000000
F    1   1.00
      0.8000000              1.0000000
****
N     0
S    6   1.00
   4173.5110000              0.0018348
    627.4579000              0.0139950
    142.9021000              0.0685870
     40.2343300              0.2322410
     12.8202100              0.4690700
      4.3904370              0.3604550
SP   3   1.00
     11.6263580             -0.1149610              0.0675800
      2.7162800             -0.1691180              0.3239070
      0.7722180              1.1458520              0.7408950
SP   1   1.00
      0.2120313              1.0000000              1.0000000
D    1   1.00
      1.8260000              1.0000000
D    1   1.00
      0.4565000              1.0000000
F    1   1.00
      1.0000000              1.0000000
****
O     0
S    6   1.00
   5484.6717000              0.0018311
    825.2349500              0.0139501
    188.0469600              0.0684451
     52.9645000              0.2327143
     16.8975700              0.4701930
      5.7996353              0.3585209
SP   3   1.00
     15.5396160             -0.1107775              0.0708743
      3.5999336             -0.1480263              0.3397528
      1.0137618              1.1307670              0.7271586
SP   1   1.00
      0.2700058              1.0000000              1.0000000
D    1   1.00
      2.5840000              1.0000000
D    1   1.00
      0.6460000              1.0000000
F    1   1.00
      1.4000000              1.0000000
****
F     0
S    6   1.00
   7001.7130900              0.0018196169
   1051.3660900              0.0139160796
    239.2856900              0.0684053245
     67.3974453              0.233185760
     21.5199573              0.471267439
      7.40310130             0.356618546
SP   3   1.00
     20.8479528             -0.108506975            0.0716287243
      4.80830834            -0.146451658            0.3459121030
      1.34406986             1.128688580            0.7224699570
SP   1   1.00
      0.358151393            1.0000000              1.0000000
D    1   1.00
      3.5000000              1.0000000
D    1   1.00
      0.8750000              1.0000000
F    1   1.00
      1.8500000              1.0000000
****
Al     0
S    6   1.00
  13983.1000000              0.00194267
   2098.7500000              0.0148599
    477.7050000              0.0728494
    134.3600000              0.2468300
     42.8709000              0.4872580
     14.5189000              0.3234960
SP   6   1.00
    239.6680000             -0.00292619             0.00460285
     57.4419000             -0.0374080              0.0331990
     18.2859000             -0.1144870              0.1362820
      6.5991400              0.1156350              0.3304760
      2.4904900              0.6125950              0.4491460
      0.9445400              0.3937990              0.2657040
SP   3   1.00
      1.2779000             -0.2276060             -0.0175130
      0.3975900              0.00144583             0.2445330
      0.1600950              1.0927900              0.8049340
SP   1   1.00
      0.0556577              1.0000000              1.0000000
D    1   1.00
      0.6500000              1.0000000
D    1   1.00
      0.1625000              1.0000000
F    1   1.00
      0.2500000              1.0000000
****
Si     0
S    6   1.00
  16115.9000000              0.00195948
   2425.5800000              0.01492880
    553.8670000              0.07284780
    156.3400000              0.24613000
     50.0683000              0.48591400
     17.0178000              0.32500200
SP   6   1.00
    292.7180000             -0.00278094             0.00443826
     69.8731000             -0.03571460             0.03266790
     22.3363000             -0.11498500             0.13472100
      8.1503900              0.09356340             0.32867800
      3.1345800              0.60301700             0.44964000
      1.2254300              0.41895900             0.26137200
SP   3   1.00
      1.7273800             -0.24463000            -0.01779510
      0.5729220              0.00431572             0.25353900
      0.2221920              1.09818000             0.80066900
SP   1   1.00
      0.0778369              1.00000000             1.00000000
D    1   1.00
      0.9000000              1.0000000
D    1   1.00
      0.2250000              1.0000000
F    1   1.00
      0.3200000              1.0000000
****
P     0
S    6   1.00
  19413.3000000              0.0018516
   2909.4200000              0.0142062
    661.3640000              0.0699995
    185.7590000              0.2400790
     59.1943000              0.4847620
     20.0310000              0.3352000
SP   6   1.00
    339.4780000             -0.00278217             0.00456462
     81.0101000             -0.0360499              0.03369360
     25.8780000             -0.1166310              0.13975500
      9.4522100              0.0968328              0.33936200
      3.6656600              0.6144180              0.45092100
      1.4674600              0.4037980              0.23858600
SP   3   1.00
      2.1562300             -0.2529230             -0.01776530
      0.7489970              0.0328517              0.27405800
      0.2831450              1.0812500              0.78542100
SP   1   1.00
      0.0998317              1.0000000              1.00000000
D    1   1.00
      1.1000000              1.0000000
D    1   1.00
      0.2750000              1.0000000
F    1   1.00
      0.4500000              1.0000000
****
S     0
S    6   1.00
  21917.1000000              0.0018690
   3301.4900000              0.0142300
    754.1460000              0.0696960
    212.7110000              0.2384870
     67.9896000              0.4833070
     23.0515000              0.3380740
SP   6   1.00
    423.7350000             -0.0023767              0.0040610
    100.7100000             -0.0316930              0.0306810
     32.1599000             -0.1133170              0.1304520
     11.8079000              0.0560900              0.3272050
      4.6311000              0.5922550              0.4528510
      1.8702500              0.4550060              0.2560420
SP   3   1.00
      2.6158400             -0.2503740             -0.0145110
      0.9221670              0.0669570              0.3102630
      0.3412870              1.0545100              0.7544830
SP   1   1.00
      0.1171670              1.0000000              1.0000000
D    1   1.00
      1.3000000              1.0000000
D    1   1.00
      0.3250000              1.0000000
F    1   1.00
      0.5500000              1.0000000
****
Cl     0
S    6   1.00
  25180.1000000              0.0018330
   3780.3500000              0.0140340
    860.4740000              0.0690970
    242.1450000              0.2374520
     77.3349000              0.4830340
     26.2470000              0.3398560
SP   6   1.00
    491.7650000             -0.0022974              0.0039894
    116.9840000             -0.0307140              0.0303180
     37.4153000             -0.1125280              0.1298800
     13.7834000              0.0450160              0.3279510
      5.4521500              0.5893530              0.4535270
      2.2258800              0.4652060              0.2521540
SP   3   1.00
      3.1864900             -0.2518300             -0.0142990
      1.1442700              0.0615890              0.3235720
      0.4203770              1.0601800              0.7435070
SP   1   1.00
      0.1426570              1.0000000              1.0000000
D    1   1.00
      1.5000000              1.0000000
D    1   1.00
      0.3750000              1.0000000
F    1   1.00
      0.7000000              1.0000000
****
}

set {
reference uhf
freeze_core true
e_convergence 10
d_convergence 10
dft_spherical_points 1202
dft_radial_points 99
}

e = energy('b3lyp')

print_out('Grab this energy {0}'.format(e))
--------------------------------------------------------------------------

    Molecular point group: cs

    Geometry (in Bohr), charge = 0, multiplicity = 2:

       Center              X                  Y                   Z               Mass
    ------------   -----------------  -----------------  -----------------  -----------------
         C           -0.323375069032     0.001457248876     0.000000000000    12.000000000000
         C            0.060800925668    -1.402219439124    -2.426340275900    12.000000000000
         C            0.061803011568     2.802462537776     0.000000000000    12.000000000000
         C            0.060800925668    -1.402219439124     2.426340275900    12.000000000000
         H            2.083766130568    -1.643292585324    -2.848010336900     1.007825032230
         H           -0.763705267832    -0.389788602324    -4.023956607400     1.007825032230
         H           -0.764121090432    -3.288896151824    -2.350335742200     1.007825032230
         H            2.083505442968     3.288995808276     0.000000000000     1.007825032230
         H           -0.764391861332     3.680569802676     1.673618302500     1.007825032230
         H           -0.764391861332     3.680569802676    -1.673618302500     1.007825032230
         H            2.083766130568    -1.643292585324     2.848010336900     1.007825032230
         H           -0.764121090432    -3.288896151824     2.350335742200     1.007825032230
         H           -0.763705267832    -0.389788602324     4.023956607400     1.007825032230

  Charge       = 0
  Multiplicity = 2
  Basis Set: ANONYMOUS423913AA
    Blend: 6-31G_2DFP_
  Basis Set: (ANONYMOUS423913AA AUX)
    Blend: DEF2-UNIVERSAL-JKFIT

    Orbital Energies [Eh]
    ---------------------

    Alpha Occupied:

       1Ap   -10.180274     2Ap   -10.166517     1App  -10.166479
       3Ap   -10.166442     4Ap    -0.797727     5Ap    -0.686627
       2App   -0.686468     6Ap    -0.531087     7Ap    -0.441226
       3App   -0.434819     8Ap    -0.434800     9Ap    -0.382896
       4App   -0.382820     5App   -0.363925    10Ap    -0.338299
       6App   -0.337711    11Ap    -0.168899

    Alpha Virtual:

      12Ap     0.076403     7App    0.134485    13Ap     0.134557
       8App    0.142974    14Ap     0.143103    15Ap     0.155178
      16Ap     0.179235     9App    0.179334    17Ap     0.203436
      10App    0.215257    11App    0.275882    18Ap     0.276135
      12App    0.399067    19Ap     0.399281    20Ap     0.403550
      21Ap     0.424367    13App    0.424375    22Ap     0.456725
      23Ap     0.495579    14App    0.495650    15App    0.512432
      24Ap     0.514112    16App    0.579116    25Ap     0.579191
      17App    0.592215    26Ap     0.592254    27Ap     0.603224
      28Ap     0.625741    18App    0.632472    19App    0.636815
      29Ap     0.636815    20App    0.663660    30Ap     0.663837
      31Ap     0.684397    21App    0.684417    32Ap     0.735304
      33Ap     0.826223    22App    0.826227    23App    0.854431
      34Ap     0.915637    24App    0.915842    25App    0.944753
      35Ap     0.945404    26App    0.961876    36Ap     0.962019
      37Ap     1.003553    38Ap     1.128508    27App    1.128555
      39Ap     1.143083    40Ap     1.163503    28App    1.163551
      41Ap     1.223767    29App    1.274847    42Ap     1.275203
      43Ap     1.278900    30App    1.325009    44Ap     1.325122
      45Ap     1.356850    46Ap     1.366323    31App    1.366783
      32App    1.393017    33App    1.404845    47Ap     1.405324
      34App    1.417775    48Ap     1.418304    35App    1.428668
      36App    1.492390    49Ap     1.500432    37App    1.543146
      50Ap     1.543489    51Ap     1.574324    38App    1.574965
      52Ap     1.671974    39App    1.740749    53Ap     1.740942
      54Ap     1.769867    55Ap     1.833824    40App    1.833963
      41App    1.973351    56Ap     2.019210    57Ap     2.019990
      42App    2.020676    58Ap     2.053121    43App    2.054320
      44App    2.739415    59Ap     2.739515    60Ap     2.791136
      45App    2.811941    46App    2.889839    61Ap     2.891186
      62Ap     2.895014    47App    2.929725    63Ap     2.930049
      48App    2.959621    64Ap     2.964735    49App    2.965348
      65Ap     3.034923    50App    3.072101    66Ap     3.072379
      51App    3.085281    67Ap     3.167986    52App    3.168248
      68Ap     3.180903    53App    3.285063    69Ap     3.285495
      70Ap     3.326606    54App    3.326708    71Ap     3.374918
      55App    3.489118    72Ap     3.489207    56App    3.513729
      73Ap     3.524717    74Ap     3.568484    57App    3.568661
      58App    3.573482    59App    3.666898    75Ap     3.667241
      76Ap     3.681490    60App    3.694936    77Ap     3.695029
      78Ap     3.777328    61App    3.777366    79Ap     3.789676
      62App    3.912806    80Ap     3.913514    81Ap     4.036793
      82Ap     4.113615    63App    4.114067    64App    4.151256
      83Ap     4.151637    84Ap     4.176236    85Ap     4.204013
      65App    4.204502    86Ap     4.204602    66App    4.214553
      67App    4.317436    87Ap     4.318996    68App    4.361389
      88Ap     4.426465    69App    4.427559    70App    4.445476
      71App    4.519076    89Ap     4.519454    72App    4.579463
      90Ap     4.580041    91Ap     4.618199    92Ap     4.711494
      93Ap     4.776213    73App    4.776519    74App    4.839229
      94Ap     4.963676    95Ap     5.003786    75App    5.004329
      96Ap     5.233324    76App    5.251866    97Ap     5.252362
      77App    5.360087    98Ap     5.360117    78App    5.482596

    Beta Occupied:

       1Ap   -10.167271     1App  -10.167228     2Ap   -10.167217
       3Ap   -10.166431     4Ap    -0.781080     5Ap    -0.684425
       2App   -0.684271     6Ap    -0.512000     3App   -0.431205
       7Ap    -0.431175     8Ap    -0.421957     9Ap    -0.376997
       4App   -0.376907     5App   -0.362912    10Ap    -0.333411
       6App   -0.332825

    Beta Virtual:

      11Ap    -0.025510    12Ap     0.077409     7App    0.135371
      13Ap     0.135467     8App    0.144835    14Ap     0.144928
      15Ap     0.163574    16Ap     0.182908     9App    0.182984
      10App    0.215485    17Ap     0.218839    11App    0.282253
      18Ap     0.282479    12App    0.400231    19Ap     0.400445
      20Ap     0.420011    21Ap     0.427181    13App    0.427189
      22Ap     0.468614    23Ap     0.497841    14App    0.497907
      15App    0.514161    24Ap     0.556516    16App    0.584682
      25Ap     0.584758    17App    0.598406    26Ap     0.598464
      27Ap     0.610635    28Ap     0.629105    18App    0.632625
      29Ap     0.640075    19App    0.640080    20App    0.667225
      30Ap     0.667409    31Ap     0.686995    21App    0.687019
      32Ap     0.757852    22App    0.831391    33Ap     0.831392
      23App    0.855760    34Ap     0.923594    24App    0.923798
      25App    0.946589    35Ap     0.954355    26App    0.967184
      36Ap     0.967307    37Ap     1.008804    38Ap     1.132534
      27App    1.132557    39Ap     1.156444    40Ap     1.168603
      28App    1.168664    41Ap     1.232723    29App    1.280406
      42Ap     1.280812    43Ap     1.284643    30App    1.330014
      44Ap     1.330148    45Ap     1.366291    46Ap     1.371539
      31App    1.372050    32App    1.394070    33App    1.408295
      47Ap     1.408796    34App    1.422843    48Ap     1.423334
      35App    1.428928    36App    1.493443    49Ap     1.510877
      37App    1.547414    50Ap     1.547776    51Ap     1.582314
      38App    1.582932    52Ap     1.676898    39App    1.746518
      53Ap     1.746710    54Ap     1.780587    55Ap     1.837652
      40App    1.837786    41App    1.974207    56Ap     2.026216
      42App    2.027045    57Ap     2.040739    58Ap     2.059813
      43App    2.061054    44App    2.747769    59Ap     2.747857
      45App    2.812356    60Ap     2.816298    46App    2.902583
      61Ap     2.903906    62Ap     2.924760    47App    2.932123
      63Ap     2.932513    48App    2.960689    64Ap     2.969333
      49App    2.969920    65Ap     3.042778    50App    3.082064
      66Ap     3.082357    51App    3.087101    67Ap     3.183651
      52App    3.183975    68Ap     3.188654    53App    3.289838
      69Ap     3.290209    70Ap     3.330406    54App    3.330532
      71Ap     3.382760    55App    3.491878    72Ap     3.491998
      56App    3.512099    73Ap     3.527778    57App    3.573326
      74Ap     3.581886    58App    3.581987    59App    3.671825
      75Ap     3.672398    76Ap     3.694840    77Ap     3.726285
      60App    3.726599    61App    3.781818    78Ap     3.781898
      79Ap     3.818249    62App    3.922589    80Ap     3.923338
      81Ap     4.047804    82Ap     4.120507    63App    4.120958
      64App    4.158467    83Ap     4.158777    84Ap     4.190151
      65App    4.210423    85Ap     4.210464    86Ap     4.211993
      66App    4.218997    67App    4.324762    87Ap     4.326387
      68App    4.364741    88Ap     4.434656    69App    4.435730
      70App    4.448353    71App    4.526870    89Ap     4.527219
      72App    4.590054    90Ap     4.590587    91Ap     4.625384
      92Ap     4.721834    93Ap     4.783183    73App    4.783449
      74App    4.842151    94Ap     4.968443    95Ap     5.007805
      75App    5.008349    96Ap     5.239014    76App    5.253652
      97Ap     5.254133    77App    5.366521    98Ap     5.366590
      78App    5.484905

    Final Occupation by Irrep:
             Ap   App
    DOCC [    10,    6 ]
    SOCC [     1,    0 ]

  @DF-UKS Final Energy:  -157.81302067394876

   => Energetics <=

    Nuclear Repulsion Energy =            125.4320427454819082
    One-Electron Energy =                -458.8198140569189718
    Two-Electron Energy =                 195.8859232123595007
    DFT Exchange-Correlation Energy =     -20.3111725748712040
    Empirical Dispersion Energy =           0.0000000000000000
    VV10 Nonlocal Energy =                  0.0000000000000000
    Total Energy =                       -157.8130206739487562

  UHF NO Occupations:
  HONO-2 :    9 Ap 1.9996034
  HONO-1 :   10 Ap 1.9989798
  HONO-0 :   11 Ap 1.0000000
  LUNO+0 :   12 Ap 0.0010202
  LUNO+1 :   13 Ap 0.0003966
  LUNO+2 :    7App 0.0001983
  LUNO+3 :   14 Ap 0.0001975

Computation Completed

Properties will be evaluated at   0.000000,   0.000000,   0.000000 [a0]

Properties computed using the SCF density matrix

  Nuclear Dipole Moment: [e a0]
     X:     0.8268      Y:     0.0031      Z:     0.0000

  Electronic Dipole Moment: [e a0]
     X:    -0.7482      Y:    -0.0030      Z:     0.0000

  Dipole Moment: [e a0]
     X:     0.0785      Y:     0.0001      Z:     0.0000     Total:     0.0785

  Dipole Moment: [D]
     X:     0.1996      Y:     0.0001      Z:     0.0000     Total:     0.1996

*** tstop() called on n036 at Fri Nov  5 11:51:45 2021
Module time:
	user time   =     635.13 seconds =      10.59 minutes
	system time =      11.93 seconds =       0.20 minutes
	total time  =        163 seconds =       2.72 minutes
Total time:
	user time   =     635.13 seconds =      10.59 minutes
	system time =      11.93 seconds =       0.20 minutes
	total time  =        163 seconds =       2.72 minutes
Grab this energy -157.81302067394876
    Psi4 stopped on: Friday, 05 November 2021 11:51AM
    Psi4 wall time for execution: 0:02:42.68

*** Psi4 exiting successfully. Buy a developer a beer!
