                               Psi4 1.4a2.dev629

  ==> Input File <==

--------------------------------------------------------------------------
import os
memory 14 GB

molecule {
 C   -0.3233324855   -0.0050088672   -0.0004970117
 C    0.0596446567   -1.3980593493   -2.4326600916
 C    0.0616266410    2.7938386553   -0.0003816923
 C    0.0620310625   -1.3983076103    2.4323228397
 H    2.0901159447   -1.6377319067   -2.8558918686
 H   -0.7693758166   -0.3821442125   -4.0257470937
 H   -0.7659684536   -3.2881718982   -2.3636459880
 H    2.0875791250    3.2789402565   -0.0001785998
 H   -0.7657869818    3.6727853990    1.6766088717
 H   -0.7633891217    3.6718577683   -1.6759999425
 H    2.0829751971   -1.6383136661    2.8565306192
 H   -0.7614509361   -3.2923363312    2.3606248575
 H   -0.7672767085   -0.3773725513    4.0289151001
units bohr
0 2
}

basis {

assign 6-31g_2dfp_

[ 6-31g_2dfp_ ]

spherical

!----------------------------------------------------------------------
! Basis Set Exchange
! Version v0.8.13
! https://www.basissetexchange.org
!----------------------------------------------------------------------
!   Basis set: 6-31G(2df,p)
! Description: 6-31G(2df,p)
!        Role: orbital
!     Version: 0  (Data from the original Basis Set Exchange)
!----------------------------------------------------------------------

****
H     0
S    3   1.00
     18.7311370              0.03349460
      2.8253937              0.23472695
      0.6401217              0.81375733
S    1   1.00
      0.1612778              1.00000000
P    1   1.00
      1.5000000              1.0000000
P    1   1.00
      0.3750000              1.0000000
****
B     0
S    6   1.00
   2068.8823000              0.0018663
    310.6495700              0.0142515
     70.6830330              0.0695516
     19.8610800              0.2325729
      6.2993048              0.4670787
      2.1270270              0.3634314
SP   3   1.00
      4.7279710             -0.1303938              0.0745976
      1.1903377             -0.1307889              0.3078467
      0.3594117              1.1309444              0.7434568
SP   1   1.00
      0.1267512              1.0000000              1.0000000
D    1   1.00
      0.8020000              1.0000000
D    1   1.00
      0.2005000              1.0000000
F    1   1.00
      0.5000000              1.0000000
****
C     0
S    6   1.00
   3047.5249000              0.0018347
    457.3695100              0.0140373
    103.9486900              0.0688426
     29.2101550              0.2321844
      9.2866630              0.4679413
      3.1639270              0.3623120
SP   3   1.00
      7.8682724             -0.1193324              0.0689991
      1.8812885             -0.1608542              0.3164240
      0.5442493              1.1434564              0.7443083
SP   1   1.00
      0.1687144              1.0000000              1.0000000
D    1   1.00
      1.2520000              1.0000000
D    1   1.00
      0.3130000              1.0000000
F    1   1.00
      0.8000000              1.0000000
****
N     0
S    6   1.00
   4173.5110000              0.0018348
    627.4579000              0.0139950
    142.9021000              0.0685870
     40.2343300              0.2322410
     12.8202100              0.4690700
      4.3904370              0.3604550
SP   3   1.00
     11.6263580             -0.1149610              0.0675800
      2.7162800             -0.1691180              0.3239070
      0.7722180              1.1458520              0.7408950
SP   1   1.00
      0.2120313              1.0000000              1.0000000
D    1   1.00
      1.8260000              1.0000000
D    1   1.00
      0.4565000              1.0000000
F    1   1.00
      1.0000000              1.0000000
****
O     0
S    6   1.00
   5484.6717000              0.0018311
    825.2349500              0.0139501
    188.0469600              0.0684451
     52.9645000              0.2327143
     16.8975700              0.4701930
      5.7996353              0.3585209
SP   3   1.00
     15.5396160             -0.1107775              0.0708743
      3.5999336             -0.1480263              0.3397528
      1.0137618              1.1307670              0.7271586
SP   1   1.00
      0.2700058              1.0000000              1.0000000
D    1   1.00
      2.5840000              1.0000000
D    1   1.00
      0.6460000              1.0000000
F    1   1.00
      1.4000000              1.0000000
****
F     0
S    6   1.00
   7001.7130900              0.0018196169
   1051.3660900              0.0139160796
    239.2856900              0.0684053245
     67.3974453              0.233185760
     21.5199573              0.471267439
      7.40310130             0.356618546
SP   3   1.00
     20.8479528             -0.108506975            0.0716287243
      4.80830834            -0.146451658            0.3459121030
      1.34406986             1.128688580            0.7224699570
SP   1   1.00
      0.358151393            1.0000000              1.0000000
D    1   1.00
      3.5000000              1.0000000
D    1   1.00
      0.8750000              1.0000000
F    1   1.00
      1.8500000              1.0000000
****
Al     0
S    6   1.00
  13983.1000000              0.00194267
   2098.7500000              0.0148599
    477.7050000              0.0728494
    134.3600000              0.2468300
     42.8709000              0.4872580
     14.5189000              0.3234960
SP   6   1.00
    239.6680000             -0.00292619             0.00460285
     57.4419000             -0.0374080              0.0331990
     18.2859000             -0.1144870              0.1362820
      6.5991400              0.1156350              0.3304760
      2.4904900              0.6125950              0.4491460
      0.9445400              0.3937990              0.2657040
SP   3   1.00
      1.2779000             -0.2276060             -0.0175130
      0.3975900              0.00144583             0.2445330
      0.1600950              1.0927900              0.8049340
SP   1   1.00
      0.0556577              1.0000000              1.0000000
D    1   1.00
      0.6500000              1.0000000
D    1   1.00
      0.1625000              1.0000000
F    1   1.00
      0.2500000              1.0000000
****
Si     0
S    6   1.00
  16115.9000000              0.00195948
   2425.5800000              0.01492880
    553.8670000              0.07284780
    156.3400000              0.24613000
     50.0683000              0.48591400
     17.0178000              0.32500200
SP   6   1.00
    292.7180000             -0.00278094             0.00443826
     69.8731000             -0.03571460             0.03266790
     22.3363000             -0.11498500             0.13472100
      8.1503900              0.09356340             0.32867800
      3.1345800              0.60301700             0.44964000
      1.2254300              0.41895900             0.26137200
SP   3   1.00
      1.7273800             -0.24463000            -0.01779510
      0.5729220              0.00431572             0.25353900
      0.2221920              1.09818000             0.80066900
SP   1   1.00
      0.0778369              1.00000000             1.00000000
D    1   1.00
      0.9000000              1.0000000
D    1   1.00
      0.2250000              1.0000000
F    1   1.00
      0.3200000              1.0000000
****
P     0
S    6   1.00
  19413.3000000              0.0018516
   2909.4200000              0.0142062
    661.3640000              0.0699995
    185.7590000              0.2400790
     59.1943000              0.4847620
     20.0310000              0.3352000
SP   6   1.00
    339.4780000             -0.00278217             0.00456462
     81.0101000             -0.0360499              0.03369360
     25.8780000             -0.1166310              0.13975500
      9.4522100              0.0968328              0.33936200
      3.6656600              0.6144180              0.45092100
      1.4674600              0.4037980              0.23858600
SP   3   1.00
      2.1562300             -0.2529230             -0.01776530
      0.7489970              0.0328517              0.27405800
      0.2831450              1.0812500              0.78542100
SP   1   1.00
      0.0998317              1.0000000              1.00000000
D    1   1.00
      1.1000000              1.0000000
D    1   1.00
      0.2750000              1.0000000
F    1   1.00
      0.4500000              1.0000000
****
S     0
S    6   1.00
  21917.1000000              0.0018690
   3301.4900000              0.0142300
    754.1460000              0.0696960
    212.7110000              0.2384870
     67.9896000              0.4833070
     23.0515000              0.3380740
SP   6   1.00
    423.7350000             -0.0023767              0.0040610
    100.7100000             -0.0316930              0.0306810
     32.1599000             -0.1133170              0.1304520
     11.8079000              0.0560900              0.3272050
      4.6311000              0.5922550              0.4528510
      1.8702500              0.4550060              0.2560420
SP   3   1.00
      2.6158400             -0.2503740             -0.0145110
      0.9221670              0.0669570              0.3102630
      0.3412870              1.0545100              0.7544830
SP   1   1.00
      0.1171670              1.0000000              1.0000000
D    1   1.00
      1.3000000              1.0000000
D    1   1.00
      0.3250000              1.0000000
F    1   1.00
      0.5500000              1.0000000
****
Cl     0
S    6   1.00
  25180.1000000              0.0018330
   3780.3500000              0.0140340
    860.4740000              0.0690970
    242.1450000              0.2374520
     77.3349000              0.4830340
     26.2470000              0.3398560
SP   6   1.00
    491.7650000             -0.0022974              0.0039894
    116.9840000             -0.0307140              0.0303180
     37.4153000             -0.1125280              0.1298800
     13.7834000              0.0450160              0.3279510
      5.4521500              0.5893530              0.4535270
      2.2258800              0.4652060              0.2521540
SP   3   1.00
      3.1864900             -0.2518300             -0.0142990
      1.1442700              0.0615890              0.3235720
      0.4203770              1.0601800              0.7435070
SP   1   1.00
      0.1426570              1.0000000              1.0000000
D    1   1.00
      1.5000000              1.0000000
D    1   1.00
      0.3750000              1.0000000
F    1   1.00
      0.7000000              1.0000000
****
}

set {
reference uhf
freeze_core true
e_convergence 10
d_convergence 10
dft_spherical_points 1202
dft_radial_points 99
}

e = energy('b3lyp')

print_out('Grab this energy {0}'.format(e))
--------------------------------------------------------------------------

    Molecular point group: c1

    Geometry (in Bohr), charge = 0, multiplicity = 2:

       Center              X                  Y                   Z               Mass
    ------------   -----------------  -----------------  -----------------  -----------------
         C           -0.323334384517    -0.003556724318    -0.000262809836    12.000000000000
         C            0.059642757683    -1.396607206418    -2.432425889736    12.000000000000
         C            0.061624741983     2.795290798182    -0.000147490436    12.000000000000
         C            0.062029163483    -1.396855467418     2.432557041564    12.000000000000
         H            2.090114045683    -1.636279763818    -2.855657666736     1.007825032230
         H           -0.769377715617    -0.380692069618    -4.025512891836     1.007825032230
         H           -0.765970352617    -3.286719755318    -2.363411786136     1.007825032230
         H            2.087577225983     3.280392399382     0.000055602064     1.007825032230
         H           -0.765788880817     3.674237541882     1.676843073564     1.007825032230
         H           -0.763391020717     3.673309911182    -1.675765740636     1.007825032230
         H            2.082973298083    -1.636861523218     2.856764821064     1.007825032230
         H           -0.761452835117    -3.290884188318     2.360859059364     1.007825032230
         H           -0.767278607517    -0.375920408418     4.029149301964     1.007825032230

  Charge       = 0
  Multiplicity = 2
  Basis Set: ANONYMOUS0B35334B
    Blend: 6-31G_2DFP_
  Basis Set: (ANONYMOUS0B35334B AUX)
    Blend: DEF2-UNIVERSAL-JKFIT

    Orbital Energies [Eh]
    ---------------------

    Alpha Occupied:

       1A    -10.180342     2A    -10.167198     3A    -10.167145
       4A    -10.166703     5A     -0.797770     6A     -0.686407
       7A     -0.685966     8A     -0.530778     9A     -0.441129
      10A     -0.434935    11A     -0.434406    12A     -0.382743
      13A     -0.382452    14A     -0.363610    15A     -0.338270
      16A     -0.337725    17A     -0.168961

    Alpha Virtual:

      18A      0.076071    19A      0.133862    20A      0.134446
      21A      0.142475    22A      0.142776    23A      0.154881
      24A      0.178541    25A      0.179019    26A      0.203545
      27A      0.214808    28A      0.275800    29A      0.276172
      30A      0.399088    31A      0.399300    32A      0.403416
      33A      0.423943    34A      0.424262    35A      0.456594
      36A      0.494957    37A      0.495811    38A      0.512172
      39A      0.513989    40A      0.578508    41A      0.579098
      42A      0.591482    43A      0.591786    44A      0.602584
      45A      0.624767    46A      0.631747    47A      0.636032
      48A      0.636488    49A      0.662993    50A      0.663847
      51A      0.683563    52A      0.684151    53A      0.734994
      54A      0.824576    55A      0.826217    56A      0.853920
      57A      0.914706    58A      0.915347    59A      0.944054
      60A      0.944512    61A      0.961127    62A      0.961670
      63A      1.003468    64A      1.126968    65A      1.129269
      66A      1.142207    67A      1.162777    68A      1.163762
      69A      1.223334    70A      1.273936    71A      1.275041
      72A      1.279368    73A      1.324258    74A      1.324450
      75A      1.355958    76A      1.365261    77A      1.366785
      78A      1.392425    79A      1.403193    80A      1.405000
      81A      1.416394    82A      1.417857    83A      1.427929
      84A      1.491430    85A      1.499062    86A      1.542275
      87A      1.543415    88A      1.572658    89A      1.576340
      90A      1.669815    91A      1.738303    92A      1.740457
      93A      1.768385    94A      1.830455    95A      1.832351
      96A      1.971710    97A      2.017392    98A      2.018437
      99A      2.020537   100A      2.049999   101A      2.055407
     102A      2.737996   103A      2.738975   104A      2.790922
     105A      2.811438   106A      2.889841   107A      2.890028
     108A      2.894972   109A      2.929322   110A      2.929666
     111A      2.958988   112A      2.963457   113A      2.965329
     114A      3.034019   115A      3.070254   116A      3.072278
     117A      3.084396   118A      3.168015   119A      3.169587
     120A      3.180574   121A      3.284523   122A      3.286093
     123A      3.326197   124A      3.328132   125A      3.375672
     126A      3.489577   127A      3.490661   128A      3.514035
     129A      3.525304   130A      3.567089   131A      3.569589
     132A      3.575346   133A      3.665663   134A      3.667117
     135A      3.679651   136A      3.693626   137A      3.694600
     138A      3.775877   139A      3.777642   140A      3.789292
     141A      3.910813   142A      3.913651   143A      4.034457
     144A      4.109921   145A      4.112817   146A      4.146330
     147A      4.149823   148A      4.173217   149A      4.200961
     150A      4.202902   151A      4.204846   152A      4.211040
     153A      4.315132   154A      4.316825   155A      4.359003
     156A      4.424032   157A      4.424782   158A      4.443538
     159A      4.515802   160A      4.517922   161A      4.577169
     162A      4.579351   163A      4.617560   164A      4.709444
     165A      4.773191   166A      4.776013   167A      4.836937
     168A      4.962865   169A      5.001711   170A      5.004200
     171A      5.227993   172A      5.244729   173A      5.248903
     174A      5.354156   175A      5.356912   176A      5.479358

    Beta Occupied:

       1A    -10.167955     2A    -10.167903     3A    -10.167467
       4A    -10.166518     5A     -0.781095     6A     -0.684213
       7A     -0.683765     8A     -0.511750     9A     -0.431318
      10A     -0.430770    11A     -0.421820    12A     -0.376842
      13A     -0.376523    14A     -0.362594    15A     -0.333397
      16A     -0.332845

    Beta Virtual:

      17A     -0.025744    18A      0.077080    19A      0.134750
      20A      0.135339    21A      0.144360    22A      0.144633
      23A      0.163338    24A      0.182197    25A      0.182706
      26A      0.215037    27A      0.218927    28A      0.282136
      29A      0.282532    30A      0.400280    31A      0.400507
      32A      0.419799    33A      0.426740    34A      0.427087
      35A      0.468505    36A      0.497212    37A      0.498082
      38A      0.513908    39A      0.556329    40A      0.584091
      41A      0.584617    42A      0.597638    43A      0.597988
      44A      0.610001    45A      0.628149    46A      0.631915
      47A      0.639290    48A      0.639788    49A      0.666570
      50A      0.667397    51A      0.686164    52A      0.686821
      53A      0.757517    54A      0.829733    55A      0.831395
      56A      0.855275    57A      0.922676    58A      0.923317
      59A      0.945914    60A      0.953425    61A      0.966393
      62A      0.967014    63A      1.008706    64A      1.131004
      65A      1.133292    66A      1.155576    67A      1.167811
      68A      1.168883    69A      1.232304    70A      1.279523
      71A      1.280648    72A      1.285123    73A      1.329234
      74A      1.329453    75A      1.365369    76A      1.370400
      77A      1.372129    78A      1.393488    79A      1.406670
      80A      1.408463    81A      1.421427    82A      1.422916
      83A      1.428203    84A      1.492482    85A      1.509505
      86A      1.546629    87A      1.547872    88A      1.580672
      89A      1.584073    90A      1.674661    91A      1.744076
      92A      1.746216    93A      1.779156    94A      1.834296
      95A      1.836223    96A      1.972574    97A      2.023888
      98A      2.026997    99A      2.039640   100A      2.056816
     101A      2.062032   102A      2.746312   103A      2.747330
     104A      2.811850   105A      2.816057   106A      2.902543
     107A      2.902726   108A      2.924649   109A      2.931886
     110A      2.932069   111A      2.960058   112A      2.968024
     113A      2.969848   114A      3.041953   115A      3.079950
     116A      3.082282   117A      3.086343   118A      3.183819
     119A      3.185250   120A      3.188274   121A      3.289381
     122A      3.290836   123A      3.329991   124A      3.331951
     125A      3.383488   126A      3.492318   127A      3.493374
     128A      3.512412   129A      3.528358   130A      3.574715
     131A      3.580905   132A      3.582937   133A      3.670357
     134A      3.671918   135A      3.692950   136A      3.725289
     137A      3.726186   138A      3.780455   139A      3.782194
     140A      3.817760   141A      3.920629   142A      3.923468
     143A      4.045344   144A      4.116747   145A      4.119618
     146A      4.153616   147A      4.156965   148A      4.187267
     149A      4.207007   150A      4.210426   151A      4.211097
     152A      4.215546   153A      4.322570   154A      4.324264
     155A      4.362365   156A      4.432222   157A      4.432977
     158A      4.446468   159A      4.523656   160A      4.525640
     161A      4.587689   162A      4.590033   163A      4.624754
     164A      4.719790   165A      4.780108   166A      4.783002
     167A      4.839856   168A      4.967659   169A      5.005762
     170A      5.008229   171A      5.233705   172A      5.246524
     173A      5.250679   174A      5.360619   175A      5.363410
     176A      5.481679

    Final Occupation by Irrep:
              A
    DOCC [    16 ]
    SOCC [     1 ]

  @DF-UKS Final Energy:  -157.81305423968408

   => Energetics <=

    Nuclear Repulsion Energy =            125.3948795611253502
    One-Electron Energy =                -458.7493810263855494
    Two-Electron Energy =                 195.8485958404834832
    DFT Exchange-Correlation Energy =     -20.3071486149073444
    Empirical Dispersion Energy =           0.0000000000000000
    VV10 Nonlocal Energy =                  0.0000000000000000
    Total Energy =                       -157.8130542396840781

  UHF NO Occupations:
  HONO-2 :   15  A 1.9996008
  HONO-1 :   16  A 1.9989804
  HONO-0 :   17  A 1.0000000
  LUNO+0 :   18  A 0.0010196
  LUNO+1 :   19  A 0.0003992
  LUNO+2 :   20  A 0.0001979
  LUNO+3 :   21  A 0.0001972

Computation Completed

Properties will be evaluated at   0.000000,   0.000000,   0.000000 [a0]

Properties computed using the SCF density matrix

  Nuclear Dipole Moment: [e a0]
     X:     0.8272      Y:     0.0102      Z:     0.0016

  Electronic Dipole Moment: [e a0]
     X:    -0.7493      Y:    -0.0109      Z:    -0.0023

  Dipole Moment: [e a0]
     X:     0.0779      Y:    -0.0007      Z:    -0.0006     Total:     0.0779

  Dipole Moment: [D]
     X:     0.1980      Y:    -0.0019      Z:    -0.0016     Total:     0.1980

*** tstop() called on n032 at Fri Nov  5 14:13:16 2021
Module time:
	user time   =     638.67 seconds =      10.64 minutes
	system time =      12.11 seconds =       0.20 minutes
	total time  =        163 seconds =       2.72 minutes
Total time:
	user time   =     638.67 seconds =      10.64 minutes
	system time =      12.11 seconds =       0.20 minutes
	total time  =        163 seconds =       2.72 minutes
Grab this energy -157.81305423968408
    Psi4 stopped on: Friday, 05 November 2021 02:13PM
    Psi4 wall time for execution: 0:02:43.62

*** Psi4 exiting successfully. Buy a developer a beer!
