                               Psi4 1.4a2.dev629

  ==> Input File <==

--------------------------------------------------------------------------
import os
memory 14 GB

molecule {
 C   -0.3247922664   -0.0000020901   -0.0000000178
 C    0.0619959360   -1.3994438294   -2.4270971404
 C    0.0618762474    2.8016631433    0.0015998719
 C    0.0619961406   -1.4022149597    2.4254974393
 H    2.0868873091   -1.6446540939   -2.8471650543
 H   -0.7657619211   -0.3885616798   -4.0253549615
 H   -0.7655340771   -3.2921790560   -2.3488042731
 H    2.0867484041    3.2881421991   -0.0006197592
 H   -0.7660029357    3.6803144353    1.6761420754
 H   -0.7656118661    3.6801847368   -1.6767472468
 H    2.0868873432   -1.6435806143    2.8477847626
 H   -0.7659252324   -3.2917197580    2.3492191626
 H   -0.7653709581   -0.3879727468    4.0255451412
units bohr
0 2
}

basis {

assign 6-31g_2dfp_

[ 6-31g_2dfp_ ]

spherical

!----------------------------------------------------------------------
! Basis Set Exchange
! Version v0.8.13
! https://www.basissetexchange.org
!----------------------------------------------------------------------
!   Basis set: 6-31G(2df,p)
! Description: 6-31G(2df,p)
!        Role: orbital
!     Version: 0  (Data from the original Basis Set Exchange)
!----------------------------------------------------------------------

****
H     0
S    3   1.00
     18.7311370              0.03349460
      2.8253937              0.23472695
      0.6401217              0.81375733
S    1   1.00
      0.1612778              1.00000000
P    1   1.00
      1.5000000              1.0000000
P    1   1.00
      0.3750000              1.0000000
****
B     0
S    6   1.00
   2068.8823000              0.0018663
    310.6495700              0.0142515
     70.6830330              0.0695516
     19.8610800              0.2325729
      6.2993048              0.4670787
      2.1270270              0.3634314
SP   3   1.00
      4.7279710             -0.1303938              0.0745976
      1.1903377             -0.1307889              0.3078467
      0.3594117              1.1309444              0.7434568
SP   1   1.00
      0.1267512              1.0000000              1.0000000
D    1   1.00
      0.8020000              1.0000000
D    1   1.00
      0.2005000              1.0000000
F    1   1.00
      0.5000000              1.0000000
****
C     0
S    6   1.00
   3047.5249000              0.0018347
    457.3695100              0.0140373
    103.9486900              0.0688426
     29.2101550              0.2321844
      9.2866630              0.4679413
      3.1639270              0.3623120
SP   3   1.00
      7.8682724             -0.1193324              0.0689991
      1.8812885             -0.1608542              0.3164240
      0.5442493              1.1434564              0.7443083
SP   1   1.00
      0.1687144              1.0000000              1.0000000
D    1   1.00
      1.2520000              1.0000000
D    1   1.00
      0.3130000              1.0000000
F    1   1.00
      0.8000000              1.0000000
****
N     0
S    6   1.00
   4173.5110000              0.0018348
    627.4579000              0.0139950
    142.9021000              0.0685870
     40.2343300              0.2322410
     12.8202100              0.4690700
      4.3904370              0.3604550
SP   3   1.00
     11.6263580             -0.1149610              0.0675800
      2.7162800             -0.1691180              0.3239070
      0.7722180              1.1458520              0.7408950
SP   1   1.00
      0.2120313              1.0000000              1.0000000
D    1   1.00
      1.8260000              1.0000000
D    1   1.00
      0.4565000              1.0000000
F    1   1.00
      1.0000000              1.0000000
****
O     0
S    6   1.00
   5484.6717000              0.0018311
    825.2349500              0.0139501
    188.0469600              0.0684451
     52.9645000              0.2327143
     16.8975700              0.4701930
      5.7996353              0.3585209
SP   3   1.00
     15.5396160             -0.1107775              0.0708743
      3.5999336             -0.1480263              0.3397528
      1.0137618              1.1307670              0.7271586
SP   1   1.00
      0.2700058              1.0000000              1.0000000
D    1   1.00
      2.5840000              1.0000000
D    1   1.00
      0.6460000              1.0000000
F    1   1.00
      1.4000000              1.0000000
****
F     0
S    6   1.00
   7001.7130900              0.0018196169
   1051.3660900              0.0139160796
    239.2856900              0.0684053245
     67.3974453              0.233185760
     21.5199573              0.471267439
      7.40310130             0.356618546
SP   3   1.00
     20.8479528             -0.108506975            0.0716287243
      4.80830834            -0.146451658            0.3459121030
      1.34406986             1.128688580            0.7224699570
SP   1   1.00
      0.358151393            1.0000000              1.0000000
D    1   1.00
      3.5000000              1.0000000
D    1   1.00
      0.8750000              1.0000000
F    1   1.00
      1.8500000              1.0000000
****
Al     0
S    6   1.00
  13983.1000000              0.00194267
   2098.7500000              0.0148599
    477.7050000              0.0728494
    134.3600000              0.2468300
     42.8709000              0.4872580
     14.5189000              0.3234960
SP   6   1.00
    239.6680000             -0.00292619             0.00460285
     57.4419000             -0.0374080              0.0331990
     18.2859000             -0.1144870              0.1362820
      6.5991400              0.1156350              0.3304760
      2.4904900              0.6125950              0.4491460
      0.9445400              0.3937990              0.2657040
SP   3   1.00
      1.2779000             -0.2276060             -0.0175130
      0.3975900              0.00144583             0.2445330
      0.1600950              1.0927900              0.8049340
SP   1   1.00
      0.0556577              1.0000000              1.0000000
D    1   1.00
      0.6500000              1.0000000
D    1   1.00
      0.1625000              1.0000000
F    1   1.00
      0.2500000              1.0000000
****
Si     0
S    6   1.00
  16115.9000000              0.00195948
   2425.5800000              0.01492880
    553.8670000              0.07284780
    156.3400000              0.24613000
     50.0683000              0.48591400
     17.0178000              0.32500200
SP   6   1.00
    292.7180000             -0.00278094             0.00443826
     69.8731000             -0.03571460             0.03266790
     22.3363000             -0.11498500             0.13472100
      8.1503900              0.09356340             0.32867800
      3.1345800              0.60301700             0.44964000
      1.2254300              0.41895900             0.26137200
SP   3   1.00
      1.7273800             -0.24463000            -0.01779510
      0.5729220              0.00431572             0.25353900
      0.2221920              1.09818000             0.80066900
SP   1   1.00
      0.0778369              1.00000000             1.00000000
D    1   1.00
      0.9000000              1.0000000
D    1   1.00
      0.2250000              1.0000000
F    1   1.00
      0.3200000              1.0000000
****
P     0
S    6   1.00
  19413.3000000              0.0018516
   2909.4200000              0.0142062
    661.3640000              0.0699995
    185.7590000              0.2400790
     59.1943000              0.4847620
     20.0310000              0.3352000
SP   6   1.00
    339.4780000             -0.00278217             0.00456462
     81.0101000             -0.0360499              0.03369360
     25.8780000             -0.1166310              0.13975500
      9.4522100              0.0968328              0.33936200
      3.6656600              0.6144180              0.45092100
      1.4674600              0.4037980              0.23858600
SP   3   1.00
      2.1562300             -0.2529230             -0.01776530
      0.7489970              0.0328517              0.27405800
      0.2831450              1.0812500              0.78542100
SP   1   1.00
      0.0998317              1.0000000              1.00000000
D    1   1.00
      1.1000000              1.0000000
D    1   1.00
      0.2750000              1.0000000
F    1   1.00
      0.4500000              1.0000000
****
S     0
S    6   1.00
  21917.1000000              0.0018690
   3301.4900000              0.0142300
    754.1460000              0.0696960
    212.7110000              0.2384870
     67.9896000              0.4833070
     23.0515000              0.3380740
SP   6   1.00
    423.7350000             -0.0023767              0.0040610
    100.7100000             -0.0316930              0.0306810
     32.1599000             -0.1133170              0.1304520
     11.8079000              0.0560900              0.3272050
      4.6311000              0.5922550              0.4528510
      1.8702500              0.4550060              0.2560420
SP   3   1.00
      2.6158400             -0.2503740             -0.0145110
      0.9221670              0.0669570              0.3102630
      0.3412870              1.0545100              0.7544830
SP   1   1.00
      0.1171670              1.0000000              1.0000000
D    1   1.00
      1.3000000              1.0000000
D    1   1.00
      0.3250000              1.0000000
F    1   1.00
      0.5500000              1.0000000
****
Cl     0
S    6   1.00
  25180.1000000              0.0018330
   3780.3500000              0.0140340
    860.4740000              0.0690970
    242.1450000              0.2374520
     77.3349000              0.4830340
     26.2470000              0.3398560
SP   6   1.00
    491.7650000             -0.0022974              0.0039894
    116.9840000             -0.0307140              0.0303180
     37.4153000             -0.1125280              0.1298800
     13.7834000              0.0450160              0.3279510
      5.4521500              0.5893530              0.4535270
      2.2258800              0.4652060              0.2521540
SP   3   1.00
      3.1864900             -0.2518300             -0.0142990
      1.1442700              0.0615890              0.3235720
      0.4203770              1.0601800              0.7435070
SP   1   1.00
      0.1426570              1.0000000              1.0000000
D    1   1.00
      1.5000000              1.0000000
D    1   1.00
      0.3750000              1.0000000
F    1   1.00
      0.7000000              1.0000000
****
}

set {
reference uhf
freeze_core true
e_convergence 10
d_convergence 10
dft_spherical_points 1202
dft_radial_points 99
}

e = energy('b3lyp')

print_out('Grab this energy {0}'.format(e))
--------------------------------------------------------------------------

    Molecular point group: c1

    Geometry (in Bohr), charge = 0, multiplicity = 2:

       Center              X                  Y                   Z               Mass
    ------------   -----------------  -----------------  -----------------  -----------------
         C           -0.325007224217    -0.000002096822    -0.000000047267    12.000000000000
         C            0.061780978183    -1.399443836122    -2.427097169867    12.000000000000
         C            0.061661289583     2.801663136578     0.001599842433    12.000000000000
         C            0.061781182783    -1.402214966422     2.425497409833    12.000000000000
         H            2.086672351283    -1.644654100622    -2.847165083767     1.007825032230
         H           -0.765976878917    -0.388561686522    -4.025354990967     1.007825032230
         H           -0.765749034917    -3.292179062722    -2.348804302567     1.007825032230
         H            2.086533446283     3.288142192378    -0.000619788667     1.007825032230
         H           -0.766217893517     3.680314428578     1.676142045933     1.007825032230
         H           -0.765826823917     3.680184730078    -1.676747276267     1.007825032230
         H            2.086672385383    -1.643580621022     2.847784733133     1.007825032230
         H           -0.766140190217    -3.291719764722     2.349219133133     1.007825032230
         H           -0.765585915917    -0.387972753522     4.025545111733     1.007825032230

  Charge       = 0
  Multiplicity = 2
  Basis Set: ANONYMOUS1528B0B3
    Blend: 6-31G_2DFP_
  Basis Set: (ANONYMOUS1528B0B3 AUX)
    Blend: DEF2-UNIVERSAL-JKFIT

    Orbital Energies [Eh]
    ---------------------

    Alpha Occupied:

       1A    -10.180407     2A    -10.167022     3A    -10.167022
       4A    -10.166976     5A     -0.797750     6A     -0.686169
       7A     -0.686169     8A     -0.530782     9A     -0.441181
      10A     -0.434609    11A     -0.434608    12A     -0.382707
      13A     -0.382705    14A     -0.363484    15A     -0.337907
      16A     -0.337907    17A     -0.169144

    Alpha Virtual:

      18A      0.076076    19A      0.134152    20A      0.134153
      21A      0.142605    22A      0.142605    23A      0.154958
      24A      0.178847    25A      0.178847    26A      0.203571
      27A      0.214756    28A      0.275812    29A      0.275814
      30A      0.399207    31A      0.399211    32A      0.403264
      33A      0.424069    34A      0.424069    35A      0.456686
      36A      0.495364    37A      0.495365    38A      0.512198
      39A      0.513888    40A      0.578942    41A      0.578950
      42A      0.591660    43A      0.591661    44A      0.602789
      45A      0.624670    46A      0.631729    47A      0.636085
      48A      0.636089    49A      0.663570    50A      0.663570
      51A      0.683743    52A      0.683744    53A      0.734797
      54A      0.825351    55A      0.825354    56A      0.853918
      57A      0.914959    58A      0.914965    59A      0.944173
      60A      0.944663    61A      0.961300    62A      0.961317
      63A      1.003455    64A      1.128200    65A      1.128213
      66A      1.142235    67A      1.163694    68A      1.163706
      69A      1.223160    70A      1.274424    71A      1.274427
      72A      1.279593    73A      1.324105    74A      1.324108
      75A      1.356221    76A      1.365681    77A      1.365685
      78A      1.392472    79A      1.404099    80A      1.404101
      81A      1.417339    82A      1.417345    83A      1.427954
      84A      1.491274    85A      1.499516    86A      1.542876
      87A      1.542878    88A      1.574166    89A      1.574168
      90A      1.669554    91A      1.739172    92A      1.739183
      93A      1.768377    94A      1.831007    95A      1.831008
      96A      1.971465    97A      2.017292    98A      2.019346
      99A      2.019349   100A      2.053026   101A      2.053027
     102A      2.738289   103A      2.738290   104A      2.791114
     105A      2.811403   106A      2.889701   107A      2.889708
     108A      2.895257   109A      2.929513   110A      2.929521
     111A      2.958929   112A      2.964261   113A      2.964274
     114A      3.034357   115A      3.070434   116A      3.070448
     117A      3.084276   118A      3.168900   119A      3.168908
     120A      3.180554   121A      3.286107   122A      3.286107
     123A      3.327520   124A      3.327526   125A      3.375784
     126A      3.489925   127A      3.489945   128A      3.513807
     129A      3.525815   130A      3.568090   131A      3.568110
     132A      3.575765   133A      3.665800   134A      3.665808
     135A      3.679432   136A      3.694178   137A      3.694195
     138A      3.776523   139A      3.776549   140A      3.787849
     141A      3.912197   142A      3.912203   143A      4.034145
     144A      4.111139   145A      4.111143   146A      4.148093
     147A      4.148101   148A      4.173189   149A      4.202292
     150A      4.203339   151A      4.203343   152A      4.210903
     153A      4.316141   154A      4.316161   155A      4.359454
     156A      4.424294   157A      4.424296   158A      4.443161
     159A      4.517142   160A      4.517143   161A      4.578392
     162A      4.578404   163A      4.617032   164A      4.709779
     165A      4.774435   166A      4.774443   167A      4.835708
     168A      4.962962   169A      5.003083   170A      5.003096
     171A      5.227937   172A      5.246706   173A      5.246706
     174A      5.355221   175A      5.355234   176A      5.478985

    Beta Occupied:

       1A    -10.167772     2A    -10.167772     3A    -10.167748
       4A    -10.166580     5A     -0.781080     6A     -0.683970
       7A     -0.683969     8A     -0.511744     9A     -0.430969
      10A     -0.430969    11A     -0.421910    12A     -0.376802
      13A     -0.376801    14A     -0.362467    15A     -0.333034
      16A     -0.333033

    Beta Virtual:

      17A     -0.025843    18A      0.077080    19A      0.135031
      20A      0.135032    21A      0.144478    22A      0.144479
      23A      0.163407    24A      0.182519    25A      0.182520
      26A      0.214979    27A      0.218938    28A      0.282172
      29A      0.282174    30A      0.400376    31A      0.400380
      32A      0.419685    33A      0.426882    34A      0.426883
      35A      0.468608    36A      0.497629    37A      0.497630
      38A      0.513936    39A      0.556226    40A      0.584478
      41A      0.584486    42A      0.597846    43A      0.597847
      44A      0.610186    45A      0.628063    46A      0.631891
      47A      0.639377    48A      0.639381    49A      0.667136
      50A      0.667137    51A      0.686372    52A      0.686374
      53A      0.757341    54A      0.830523    55A      0.830525
      56A      0.855267    57A      0.922940    58A      0.922947
      59A      0.946007    60A      0.953585    61A      0.966573
      62A      0.966589    63A      1.008714    64A      1.132236
      65A      1.132247    66A      1.155584    67A      1.168764
      68A      1.168776    69A      1.232130    70A      1.280036
      71A      1.280040    72A      1.285355    73A      1.329103
      74A      1.329105    75A      1.365610    76A      1.370919
      77A      1.370923    78A      1.393525    79A      1.407564
      80A      1.407567    81A      1.422368    82A      1.422374
      83A      1.428228    84A      1.492337    85A      1.509948
      86A      1.547283    87A      1.547283    88A      1.582039
      89A      1.582040    90A      1.674416    91A      1.744931
      92A      1.744942    93A      1.779137    94A      1.834854
      95A      1.834855    96A      1.972323    97A      2.025743
      98A      2.025746    99A      2.038674   100A      2.059761
     101A      2.059761   102A      2.746624   103A      2.746626
     104A      2.811783   105A      2.816271   106A      2.902433
     107A      2.902439   108A      2.924951   109A      2.931980
     110A      2.931989   111A      2.959991   112A      2.968815
     113A      2.968829   114A      3.042251   115A      3.080385
     116A      3.080396   117A      3.086087   118A      3.184557
     119A      3.184561   120A      3.188278   121A      3.290866
     122A      3.290866   123A      3.331333   124A      3.331339
     125A      3.383613   126A      3.492673   127A      3.492694
     128A      3.512183   129A      3.528861   130A      3.575629
     131A      3.581472   132A      3.581494   133A      3.670526
     134A      3.670538   135A      3.692723   136A      3.725815
     137A      3.725831   138A      3.781091   139A      3.781117
     140A      3.816387   141A      3.921976   142A      3.921983
     143A      4.045061   144A      4.117941   145A      4.117943
     146A      4.155314   147A      4.155323   148A      4.187211
     149A      4.209279   150A      4.209283   151A      4.210269
     152A      4.215355   153A      4.323603   154A      4.323623
     155A      4.362816   156A      4.432469   157A      4.432471
     158A      4.446044   159A      4.524915   160A      4.524916
     161A      4.589028   162A      4.589040   163A      4.624216
     164A      4.720149   165A      4.781403   166A      4.781410
     167A      4.838636   168A      4.967754   169A      5.007109
     170A      5.007121   171A      5.233654   172A      5.248490
     173A      5.248490   174A      5.361709   175A      5.361723
     176A      5.481313

    Final Occupation by Irrep:
              A
    DOCC [    16 ]
    SOCC [     1 ]

  @DF-UKS Final Energy:  -157.81306253717315

   => Energetics <=

    Nuclear Repulsion Energy =            125.3921890871615403
    One-Electron Energy =                -458.7442147406621871
    Two-Electron Energy =                 195.8460365074305685
    DFT Exchange-Correlation Energy =     -20.3070733911031027
    Empirical Dispersion Energy =           0.0000000000000000
    VV10 Nonlocal Energy =                  0.0000000000000000
    Total Energy =                       -157.8130625371731526

  UHF NO Occupations:
  HONO-2 :   15  A 1.9996024
  HONO-1 :   16  A 1.9989820
  HONO-0 :   17  A 1.0000000
  LUNO+0 :   18  A 0.0010180
  LUNO+1 :   19  A 0.0003976
  LUNO+2 :   20  A 0.0001976
  LUNO+3 :   21  A 0.0001976

Computation Completed

Properties will be evaluated at   0.000000,   0.000000,   0.000000 [a0]

Properties computed using the SCF density matrix

  Nuclear Dipole Moment: [e a0]
     X:     0.8257      Y:    -0.0000      Z:    -0.0000

  Electronic Dipole Moment: [e a0]
     X:    -0.7470      Y:     0.0000      Z:     0.0000

  Dipole Moment: [e a0]
     X:     0.0787      Y:     0.0000      Z:    -0.0000     Total:     0.0787

  Dipole Moment: [D]
     X:     0.2000      Y:     0.0000      Z:    -0.0000     Total:     0.2000

*** tstop() called on n079 at Fri Nov  5 11:31:00 2021
Module time:
	user time   =     465.88 seconds =       7.76 minutes
	system time =       4.25 seconds =       0.07 minutes
	total time  =        118 seconds =       1.97 minutes
Total time:
	user time   =     465.88 seconds =       7.76 minutes
	system time =       4.25 seconds =       0.07 minutes
	total time  =        118 seconds =       1.97 minutes
Grab this energy -157.81306253717315
    Psi4 stopped on: Friday, 05 November 2021 11:31AM
    Psi4 wall time for execution: 0:01:58.26

*** Psi4 exiting successfully. Buy a developer a beer!
