                               Psi4 1.4a2.dev629

  ==> Input File <==

--------------------------------------------------------------------------
import os
memory 14 GB

molecule {
 C   -0.3243633579   -0.0000033089    0.0053447057
 C    0.0602081272   -1.4014068168   -2.4261957850
 C    0.0599593546    2.8019093844    0.0011070909
 C    0.0599512328   -1.4004976837    2.4268353157
 H    2.0900435322   -1.6441323754   -2.8485069932
 H   -0.7659889805   -0.3906749227   -4.0250954863
 H   -0.7669878228   -3.2893690576   -2.3505467920
 H    2.0901089294    3.2885182374   -0.0010028091
 H   -0.7674362138    3.6791375842    1.6734178117
 H   -0.7657661830    3.6808522146   -1.6748834153
 H    2.0904543164   -1.6444792197    2.8471021455
 H   -0.7660598171   -3.2903001101    2.3493423021
 H   -0.7667309943   -0.3895782392    4.0230819092
units bohr
0 2
}

basis {

assign 6-31g_2dfp_

[ 6-31g_2dfp_ ]

spherical

!----------------------------------------------------------------------
! Basis Set Exchange
! Version v0.8.13
! https://www.basissetexchange.org
!----------------------------------------------------------------------
!   Basis set: 6-31G(2df,p)
! Description: 6-31G(2df,p)
!        Role: orbital
!     Version: 0  (Data from the original Basis Set Exchange)
!----------------------------------------------------------------------

****
H     0
S    3   1.00
     18.7311370              0.03349460
      2.8253937              0.23472695
      0.6401217              0.81375733
S    1   1.00
      0.1612778              1.00000000
P    1   1.00
      1.5000000              1.0000000
P    1   1.00
      0.3750000              1.0000000
****
B     0
S    6   1.00
   2068.8823000              0.0018663
    310.6495700              0.0142515
     70.6830330              0.0695516
     19.8610800              0.2325729
      6.2993048              0.4670787
      2.1270270              0.3634314
SP   3   1.00
      4.7279710             -0.1303938              0.0745976
      1.1903377             -0.1307889              0.3078467
      0.3594117              1.1309444              0.7434568
SP   1   1.00
      0.1267512              1.0000000              1.0000000
D    1   1.00
      0.8020000              1.0000000
D    1   1.00
      0.2005000              1.0000000
F    1   1.00
      0.5000000              1.0000000
****
C     0
S    6   1.00
   3047.5249000              0.0018347
    457.3695100              0.0140373
    103.9486900              0.0688426
     29.2101550              0.2321844
      9.2866630              0.4679413
      3.1639270              0.3623120
SP   3   1.00
      7.8682724             -0.1193324              0.0689991
      1.8812885             -0.1608542              0.3164240
      0.5442493              1.1434564              0.7443083
SP   1   1.00
      0.1687144              1.0000000              1.0000000
D    1   1.00
      1.2520000              1.0000000
D    1   1.00
      0.3130000              1.0000000
F    1   1.00
      0.8000000              1.0000000
****
N     0
S    6   1.00
   4173.5110000              0.0018348
    627.4579000              0.0139950
    142.9021000              0.0685870
     40.2343300              0.2322410
     12.8202100              0.4690700
      4.3904370              0.3604550
SP   3   1.00
     11.6263580             -0.1149610              0.0675800
      2.7162800             -0.1691180              0.3239070
      0.7722180              1.1458520              0.7408950
SP   1   1.00
      0.2120313              1.0000000              1.0000000
D    1   1.00
      1.8260000              1.0000000
D    1   1.00
      0.4565000              1.0000000
F    1   1.00
      1.0000000              1.0000000
****
O     0
S    6   1.00
   5484.6717000              0.0018311
    825.2349500              0.0139501
    188.0469600              0.0684451
     52.9645000              0.2327143
     16.8975700              0.4701930
      5.7996353              0.3585209
SP   3   1.00
     15.5396160             -0.1107775              0.0708743
      3.5999336             -0.1480263              0.3397528
      1.0137618              1.1307670              0.7271586
SP   1   1.00
      0.2700058              1.0000000              1.0000000
D    1   1.00
      2.5840000              1.0000000
D    1   1.00
      0.6460000              1.0000000
F    1   1.00
      1.4000000              1.0000000
****
F     0
S    6   1.00
   7001.7130900              0.0018196169
   1051.3660900              0.0139160796
    239.2856900              0.0684053245
     67.3974453              0.233185760
     21.5199573              0.471267439
      7.40310130             0.356618546
SP   3   1.00
     20.8479528             -0.108506975            0.0716287243
      4.80830834            -0.146451658            0.3459121030
      1.34406986             1.128688580            0.7224699570
SP   1   1.00
      0.358151393            1.0000000              1.0000000
D    1   1.00
      3.5000000              1.0000000
D    1   1.00
      0.8750000              1.0000000
F    1   1.00
      1.8500000              1.0000000
****
Al     0
S    6   1.00
  13983.1000000              0.00194267
   2098.7500000              0.0148599
    477.7050000              0.0728494
    134.3600000              0.2468300
     42.8709000              0.4872580
     14.5189000              0.3234960
SP   6   1.00
    239.6680000             -0.00292619             0.00460285
     57.4419000             -0.0374080              0.0331990
     18.2859000             -0.1144870              0.1362820
      6.5991400              0.1156350              0.3304760
      2.4904900              0.6125950              0.4491460
      0.9445400              0.3937990              0.2657040
SP   3   1.00
      1.2779000             -0.2276060             -0.0175130
      0.3975900              0.00144583             0.2445330
      0.1600950              1.0927900              0.8049340
SP   1   1.00
      0.0556577              1.0000000              1.0000000
D    1   1.00
      0.6500000              1.0000000
D    1   1.00
      0.1625000              1.0000000
F    1   1.00
      0.2500000              1.0000000
****
Si     0
S    6   1.00
  16115.9000000              0.00195948
   2425.5800000              0.01492880
    553.8670000              0.07284780
    156.3400000              0.24613000
     50.0683000              0.48591400
     17.0178000              0.32500200
SP   6   1.00
    292.7180000             -0.00278094             0.00443826
     69.8731000             -0.03571460             0.03266790
     22.3363000             -0.11498500             0.13472100
      8.1503900              0.09356340             0.32867800
      3.1345800              0.60301700             0.44964000
      1.2254300              0.41895900             0.26137200
SP   3   1.00
      1.7273800             -0.24463000            -0.01779510
      0.5729220              0.00431572             0.25353900
      0.2221920              1.09818000             0.80066900
SP   1   1.00
      0.0778369              1.00000000             1.00000000
D    1   1.00
      0.9000000              1.0000000
D    1   1.00
      0.2250000              1.0000000
F    1   1.00
      0.3200000              1.0000000
****
P     0
S    6   1.00
  19413.3000000              0.0018516
   2909.4200000              0.0142062
    661.3640000              0.0699995
    185.7590000              0.2400790
     59.1943000              0.4847620
     20.0310000              0.3352000
SP   6   1.00
    339.4780000             -0.00278217             0.00456462
     81.0101000             -0.0360499              0.03369360
     25.8780000             -0.1166310              0.13975500
      9.4522100              0.0968328              0.33936200
      3.6656600              0.6144180              0.45092100
      1.4674600              0.4037980              0.23858600
SP   3   1.00
      2.1562300             -0.2529230             -0.01776530
      0.7489970              0.0328517              0.27405800
      0.2831450              1.0812500              0.78542100
SP   1   1.00
      0.0998317              1.0000000              1.00000000
D    1   1.00
      1.1000000              1.0000000
D    1   1.00
      0.2750000              1.0000000
F    1   1.00
      0.4500000              1.0000000
****
S     0
S    6   1.00
  21917.1000000              0.0018690
   3301.4900000              0.0142300
    754.1460000              0.0696960
    212.7110000              0.2384870
     67.9896000              0.4833070
     23.0515000              0.3380740
SP   6   1.00
    423.7350000             -0.0023767              0.0040610
    100.7100000             -0.0316930              0.0306810
     32.1599000             -0.1133170              0.1304520
     11.8079000              0.0560900              0.3272050
      4.6311000              0.5922550              0.4528510
      1.8702500              0.4550060              0.2560420
SP   3   1.00
      2.6158400             -0.2503740             -0.0145110
      0.9221670              0.0669570              0.3102630
      0.3412870              1.0545100              0.7544830
SP   1   1.00
      0.1171670              1.0000000              1.0000000
D    1   1.00
      1.3000000              1.0000000
D    1   1.00
      0.3250000              1.0000000
F    1   1.00
      0.5500000              1.0000000
****
Cl     0
S    6   1.00
  25180.1000000              0.0018330
   3780.3500000              0.0140340
    860.4740000              0.0690970
    242.1450000              0.2374520
     77.3349000              0.4830340
     26.2470000              0.3398560
SP   6   1.00
    491.7650000             -0.0022974              0.0039894
    116.9840000             -0.0307140              0.0303180
     37.4153000             -0.1125280              0.1298800
     13.7834000              0.0450160              0.3279510
      5.4521500              0.5893530              0.4535270
      2.2258800              0.4652060              0.2521540
SP   3   1.00
      3.1864900             -0.2518300             -0.0142990
      1.1442700              0.0615890              0.3235720
      0.4203770              1.0601800              0.7435070
SP   1   1.00
      0.1426570              1.0000000              1.0000000
D    1   1.00
      1.5000000              1.0000000
D    1   1.00
      0.3750000              1.0000000
F    1   1.00
      0.7000000              1.0000000
****
}

set {
reference uhf
freeze_core true
e_convergence 10
d_convergence 10
dft_spherical_points 1202
dft_radial_points 99
}

e = energy('b3lyp')

print_out('Grab this energy {0}'.format(e))
--------------------------------------------------------------------------

    Molecular point group: c1

    Geometry (in Bohr), charge = 0, multiplicity = 2:

       Center              X                  Y                   Z               Mass
    ------------   -----------------  -----------------  -----------------  -----------------
         C           -0.323553510395    -0.000003182896     0.003978864988    12.000000000000
         C            0.061017974705    -1.401406690796    -2.427561625712    12.000000000000
         C            0.060769202105     2.801909510404    -0.000258749812    12.000000000000
         C            0.060761080305    -1.400497557696     2.425469474988    12.000000000000
         H            2.090853379705    -1.644132249396    -2.849872833912     1.007825032230
         H           -0.765179132995    -0.390674796696    -4.026461327012     1.007825032230
         H           -0.766177975295    -3.289368931596    -2.351912632712     1.007825032230
         H            2.090918776905     3.288518363404    -0.002368649812     1.007825032230
         H           -0.766626366295     3.679137710204     1.672051970988     1.007825032230
         H           -0.764956335495     3.680852340604    -1.676249256012     1.007825032230
         H            2.091264163905    -1.644479093696     2.845736304788     1.007825032230
         H           -0.765249969595    -3.290299984096     2.347976461388     1.007825032230
         H           -0.765921146795    -0.389578113196     4.021716068488     1.007825032230

  Charge       = 0
  Multiplicity = 2
  Basis Set: ANONYMOUSB29F0EB8
    Blend: 6-31G_2DFP_
  Basis Set: (ANONYMOUSB29F0EB8 AUX)
    Blend: DEF2-UNIVERSAL-JKFIT

    Orbital Energies [Eh]
    ---------------------

    Alpha Occupied:

       1A    -10.180400     2A    -10.167054     3A    -10.167023
       4A    -10.166976     5A     -0.797732     6A     -0.686371
       7A     -0.685993     8A     -0.530769     9A     -0.441032
      10A     -0.434928    11A     -0.434500    12A     -0.382578
      13A     -0.382348    14A     -0.363787    15A     -0.338573
      16A     -0.337531    17A     -0.168998

    Alpha Virtual:

      18A      0.076157    19A      0.134130    20A      0.134164
      21A      0.142525    22A      0.142877    23A      0.154712
      24A      0.178596    25A      0.178614    26A      0.203501
      27A      0.215076    28A      0.275672    29A      0.276248
      30A      0.398984    31A      0.399234    32A      0.403256
      33A      0.424285    34A      0.424286    35A      0.456518
      36A      0.495521    37A      0.495618    38A      0.512043
      39A      0.513824    40A      0.578457    41A      0.578825
      42A      0.591371    43A      0.591386    44A      0.601821
      45A      0.625263    46A      0.632162    47A      0.636476
      48A      0.636778    49A      0.662861    50A      0.662993
      51A      0.684053    52A      0.684153    53A      0.735056
      54A      0.825265    55A      0.825481    56A      0.853637
      57A      0.914687    58A      0.914911    59A      0.944414
      60A      0.944759    61A      0.961021    62A      0.961371
      63A      1.003266    64A      1.128090    65A      1.128585
      66A      1.141548    67A      1.163149    68A      1.163919
      69A      1.223742    70A      1.273786    71A      1.274719
      72A      1.279187    73A      1.324043    74A      1.324237
      75A      1.356512    76A      1.365700    77A      1.366250
      78A      1.392387    79A      1.402989    80A      1.403049
      81A      1.417790    82A      1.418403    83A      1.427710
      84A      1.491479    85A      1.498153    86A      1.542459
      87A      1.542475    88A      1.574783    89A      1.574840
      90A      1.671085    91A      1.738376    92A      1.738785
      93A      1.766455    94A      1.832530    95A      1.833049
      96A      1.972747    97A      2.018205    98A      2.018492
      99A      2.019568   100A      2.050912   101A      2.051916
     102A      2.738567   103A      2.739044   104A      2.790535
     105A      2.811879   106A      2.889016   107A      2.890139
     108A      2.894594   109A      2.929317   110A      2.930091
     111A      2.958860   112A      2.963814   113A      2.964110
     114A      3.033312   115A      3.070756   116A      3.071765
     117A      3.085757   118A      3.168561   119A      3.168700
     120A      3.180609   121A      3.284914   122A      3.285521
     123A      3.327407   124A      3.328167   125A      3.375771
     126A      3.489414   127A      3.490433   128A      3.512813
     129A      3.526540   130A      3.567748   131A      3.568218
     132A      3.574323   133A      3.665705   134A      3.666307
     135A      3.680264   136A      3.694279   137A      3.694344
     138A      3.776471   139A      3.777946   140A      3.788388
     141A      3.912328   142A      3.913249   143A      4.034857
     144A      4.111003   145A      4.111626   146A      4.146515
     147A      4.148492   148A      4.171483   149A      4.202449
     150A      4.203605   151A      4.204439   152A      4.209694
     153A      4.314996   154A      4.316085   155A      4.360219
     156A      4.423649   157A      4.423792   158A      4.443692
     159A      4.516071   160A      4.516305   161A      4.578604
     162A      4.579031   163A      4.617701   164A      4.708951
     165A      4.774181   166A      4.775298   167A      4.838247
     168A      4.963132   169A      5.001410   170A      5.001932
     171A      5.225328   172A      5.249796   173A      5.249841
     174A      5.352986   175A      5.354122   176A      5.481308

    Beta Occupied:

       1A    -10.167808     2A    -10.167781     3A    -10.167749
       4A    -10.166584     5A     -0.781064     6A     -0.684174
       7A     -0.683820     8A     -0.511789     9A     -0.431324
      10A     -0.430903    11A     -0.421661    12A     -0.376597
      13A     -0.376449    14A     -0.362780    15A     -0.333702
      16A     -0.332641

    Beta Virtual:

      17A     -0.025872    18A      0.077183    19A      0.135108
      20A      0.135109    21A      0.144380    22A      0.144712
      23A      0.163191    24A      0.182227    25A      0.182268
      26A      0.215298    27A      0.218883    28A      0.282059
      29A      0.282566    30A      0.400158    31A      0.400402
      32A      0.419799    33A      0.427086    34A      0.427107
      35A      0.468326    36A      0.497788    37A      0.497890
      38A      0.513785    39A      0.556129    40A      0.584013
      41A      0.584428    42A      0.597531    43A      0.597565
      44A      0.609368    45A      0.628513    46A      0.632317
      47A      0.639711    48A      0.640040    49A      0.666461
      50A      0.666581    51A      0.686675    52A      0.686778
      53A      0.757575    54A      0.830459    55A      0.830667
      56A      0.854999    57A      0.922649    58A      0.922927
      59A      0.946242    60A      0.953737    61A      0.966286
      62A      0.966650    63A      1.008466    64A      1.132190
      65A      1.132635    66A      1.154986    67A      1.168203
      68A      1.168961    69A      1.232698    70A      1.279415
      71A      1.280242    72A      1.284883    73A      1.329091
      74A      1.329262    75A      1.365909    76A      1.371064
      77A      1.371518    78A      1.393462    79A      1.406343
      80A      1.406508    81A      1.422813    82A      1.423410
      83A      1.427989    84A      1.492502    85A      1.508605
      86A      1.546892    87A      1.546920    88A      1.582664
      89A      1.582669    90A      1.675984    91A      1.744128
      92A      1.744545    93A      1.777224    94A      1.836372
      95A      1.836920    96A      1.973593    97A      2.024753
      98A      2.025803    99A      2.039585   100A      2.057776
     101A      2.058741   102A      2.746880   103A      2.747419
     104A      2.812294   105A      2.815633   106A      2.901764
     107A      2.902713   108A      2.924103   109A      2.931747
     110A      2.932628   111A      2.959921   112A      2.968324
     113A      2.968616   114A      3.041462   115A      3.080730
     116A      3.081584   117A      3.087572   118A      3.184249
     119A      3.184433   120A      3.188387   121A      3.289784
     122A      3.290311   123A      3.331175   124A      3.331938
     125A      3.383565   126A      3.492093   127A      3.493128
     128A      3.511181   129A      3.529571   130A      3.574167
     131A      3.581313   132A      3.581692   133A      3.670434
     134A      3.670888   135A      3.693534   136A      3.725787
     137A      3.726088   138A      3.780954   139A      3.782415
     140A      3.816924   141A      3.922205   142A      3.923124
     143A      4.045807   144A      4.117868   145A      4.118402
     146A      4.153740   147A      4.155667   148A      4.185567
     149A      4.209372   150A      4.210134   151A      4.210997
     152A      4.214301   153A      4.322306   154A      4.323526
     155A      4.363536   156A      4.431865   157A      4.431997
     158A      4.446530   159A      4.523848   160A      4.524177
     161A      4.589143   162A      4.589586   163A      4.624826
     164A      4.719414   165A      4.781050   166A      4.782239
     167A      4.841153   168A      4.967937   169A      5.005492
     170A      5.005984   171A      5.231008   172A      5.251572
     173A      5.251606   174A      5.359413   175A      5.360600
     176A      5.483617

    Final Occupation by Irrep:
              A
    DOCC [    16 ]
    SOCC [     1 ]

  @DF-UKS Final Energy:  -157.81305207810485

   => Energetics <=

    Nuclear Repulsion Energy =            125.3893656799727836
    One-Electron Energy =                -458.7383163640578232
    Two-Electron Energy =                 195.8429384050438955
    DFT Exchange-Correlation Energy =     -20.3070397990637055
    Empirical Dispersion Energy =           0.0000000000000000
    VV10 Nonlocal Energy =                  0.0000000000000000
    Total Energy =                       -157.8130520781048460

  UHF NO Occupations:
  HONO-2 :   15  A 1.9995985
  HONO-1 :   16  A 1.9989796
  HONO-0 :   17  A 1.0000000
  LUNO+0 :   18  A 0.0010204
  LUNO+1 :   19  A 0.0004015
  LUNO+2 :   20  A 0.0001986
  LUNO+3 :   21  A 0.0001965

Computation Completed

Properties will be evaluated at   0.000000,   0.000000,   0.000000 [a0]

Properties computed using the SCF density matrix

  Nuclear Dipole Moment: [e a0]
     X:     0.8329      Y:    -0.0000      Z:    -0.0096

  Electronic Dipole Moment: [e a0]
     X:    -0.7582      Y:     0.0000      Z:     0.0108

  Dipole Moment: [e a0]
     X:     0.0747      Y:     0.0000      Z:     0.0012     Total:     0.0747

  Dipole Moment: [D]
     X:     0.1899      Y:     0.0000      Z:     0.0031     Total:     0.1899

*** tstop() called on n089 at Fri Nov  5 13:55:13 2021
Module time:
	user time   =     515.85 seconds =       8.60 minutes
	system time =       4.76 seconds =       0.08 minutes
	total time  =        131 seconds =       2.18 minutes
Total time:
	user time   =     515.85 seconds =       8.60 minutes
	system time =       4.76 seconds =       0.08 minutes
	total time  =        131 seconds =       2.18 minutes
Grab this energy -157.81305207810485
    Psi4 stopped on: Friday, 05 November 2021 01:55PM
    Psi4 wall time for execution: 0:02:10.88

*** Psi4 exiting successfully. Buy a developer a beer!
