                               Psi4 1.4a2.dev629

  ==> Input File <==

--------------------------------------------------------------------------
import os
memory 14 GB

molecule {
 C   -0.3233404295   -0.0004952071   -0.0002259957
 C    0.0610432692   -1.3999303810   -2.4251545466
 C    0.0609234570    2.8009029328   -0.0004841689
 C    0.0613332927   -1.4023129613    2.4283145889
 H    2.0847745719   -1.6445761089   -2.8481356431
 H   -0.7641569611   -0.3902549855   -4.0251697407
 H   -0.7644165177   -3.2898661102   -2.3500801409
 H    2.0909811909    3.2876053273    0.0001854533
 H   -0.7677600382    3.6807611700    1.6806350161
 H   -0.7678834683    3.6807861114   -1.6804513815
 H    2.0849152413   -1.6438262902    2.8472042530
 H   -0.7647007876   -3.2894511570    2.3490137587
 H   -0.7643206976   -0.3893666539    4.0243485474
units bohr
0 2
}

basis {

assign 6-31g_2dfp_

[ 6-31g_2dfp_ ]

spherical

!----------------------------------------------------------------------
! Basis Set Exchange
! Version v0.8.13
! https://www.basissetexchange.org
!----------------------------------------------------------------------
!   Basis set: 6-31G(2df,p)
! Description: 6-31G(2df,p)
!        Role: orbital
!     Version: 0  (Data from the original Basis Set Exchange)
!----------------------------------------------------------------------

****
H     0
S    3   1.00
     18.7311370              0.03349460
      2.8253937              0.23472695
      0.6401217              0.81375733
S    1   1.00
      0.1612778              1.00000000
P    1   1.00
      1.5000000              1.0000000
P    1   1.00
      0.3750000              1.0000000
****
B     0
S    6   1.00
   2068.8823000              0.0018663
    310.6495700              0.0142515
     70.6830330              0.0695516
     19.8610800              0.2325729
      6.2993048              0.4670787
      2.1270270              0.3634314
SP   3   1.00
      4.7279710             -0.1303938              0.0745976
      1.1903377             -0.1307889              0.3078467
      0.3594117              1.1309444              0.7434568
SP   1   1.00
      0.1267512              1.0000000              1.0000000
D    1   1.00
      0.8020000              1.0000000
D    1   1.00
      0.2005000              1.0000000
F    1   1.00
      0.5000000              1.0000000
****
C     0
S    6   1.00
   3047.5249000              0.0018347
    457.3695100              0.0140373
    103.9486900              0.0688426
     29.2101550              0.2321844
      9.2866630              0.4679413
      3.1639270              0.3623120
SP   3   1.00
      7.8682724             -0.1193324              0.0689991
      1.8812885             -0.1608542              0.3164240
      0.5442493              1.1434564              0.7443083
SP   1   1.00
      0.1687144              1.0000000              1.0000000
D    1   1.00
      1.2520000              1.0000000
D    1   1.00
      0.3130000              1.0000000
F    1   1.00
      0.8000000              1.0000000
****
N     0
S    6   1.00
   4173.5110000              0.0018348
    627.4579000              0.0139950
    142.9021000              0.0685870
     40.2343300              0.2322410
     12.8202100              0.4690700
      4.3904370              0.3604550
SP   3   1.00
     11.6263580             -0.1149610              0.0675800
      2.7162800             -0.1691180              0.3239070
      0.7722180              1.1458520              0.7408950
SP   1   1.00
      0.2120313              1.0000000              1.0000000
D    1   1.00
      1.8260000              1.0000000
D    1   1.00
      0.4565000              1.0000000
F    1   1.00
      1.0000000              1.0000000
****
O     0
S    6   1.00
   5484.6717000              0.0018311
    825.2349500              0.0139501
    188.0469600              0.0684451
     52.9645000              0.2327143
     16.8975700              0.4701930
      5.7996353              0.3585209
SP   3   1.00
     15.5396160             -0.1107775              0.0708743
      3.5999336             -0.1480263              0.3397528
      1.0137618              1.1307670              0.7271586
SP   1   1.00
      0.2700058              1.0000000              1.0000000
D    1   1.00
      2.5840000              1.0000000
D    1   1.00
      0.6460000              1.0000000
F    1   1.00
      1.4000000              1.0000000
****
F     0
S    6   1.00
   7001.7130900              0.0018196169
   1051.3660900              0.0139160796
    239.2856900              0.0684053245
     67.3974453              0.233185760
     21.5199573              0.471267439
      7.40310130             0.356618546
SP   3   1.00
     20.8479528             -0.108506975            0.0716287243
      4.80830834            -0.146451658            0.3459121030
      1.34406986             1.128688580            0.7224699570
SP   1   1.00
      0.358151393            1.0000000              1.0000000
D    1   1.00
      3.5000000              1.0000000
D    1   1.00
      0.8750000              1.0000000
F    1   1.00
      1.8500000              1.0000000
****
Al     0
S    6   1.00
  13983.1000000              0.00194267
   2098.7500000              0.0148599
    477.7050000              0.0728494
    134.3600000              0.2468300
     42.8709000              0.4872580
     14.5189000              0.3234960
SP   6   1.00
    239.6680000             -0.00292619             0.00460285
     57.4419000             -0.0374080              0.0331990
     18.2859000             -0.1144870              0.1362820
      6.5991400              0.1156350              0.3304760
      2.4904900              0.6125950              0.4491460
      0.9445400              0.3937990              0.2657040
SP   3   1.00
      1.2779000             -0.2276060             -0.0175130
      0.3975900              0.00144583             0.2445330
      0.1600950              1.0927900              0.8049340
SP   1   1.00
      0.0556577              1.0000000              1.0000000
D    1   1.00
      0.6500000              1.0000000
D    1   1.00
      0.1625000              1.0000000
F    1   1.00
      0.2500000              1.0000000
****
Si     0
S    6   1.00
  16115.9000000              0.00195948
   2425.5800000              0.01492880
    553.8670000              0.07284780
    156.3400000              0.24613000
     50.0683000              0.48591400
     17.0178000              0.32500200
SP   6   1.00
    292.7180000             -0.00278094             0.00443826
     69.8731000             -0.03571460             0.03266790
     22.3363000             -0.11498500             0.13472100
      8.1503900              0.09356340             0.32867800
      3.1345800              0.60301700             0.44964000
      1.2254300              0.41895900             0.26137200
SP   3   1.00
      1.7273800             -0.24463000            -0.01779510
      0.5729220              0.00431572             0.25353900
      0.2221920              1.09818000             0.80066900
SP   1   1.00
      0.0778369              1.00000000             1.00000000
D    1   1.00
      0.9000000              1.0000000
D    1   1.00
      0.2250000              1.0000000
F    1   1.00
      0.3200000              1.0000000
****
P     0
S    6   1.00
  19413.3000000              0.0018516
   2909.4200000              0.0142062
    661.3640000              0.0699995
    185.7590000              0.2400790
     59.1943000              0.4847620
     20.0310000              0.3352000
SP   6   1.00
    339.4780000             -0.00278217             0.00456462
     81.0101000             -0.0360499              0.03369360
     25.8780000             -0.1166310              0.13975500
      9.4522100              0.0968328              0.33936200
      3.6656600              0.6144180              0.45092100
      1.4674600              0.4037980              0.23858600
SP   3   1.00
      2.1562300             -0.2529230             -0.01776530
      0.7489970              0.0328517              0.27405800
      0.2831450              1.0812500              0.78542100
SP   1   1.00
      0.0998317              1.0000000              1.00000000
D    1   1.00
      1.1000000              1.0000000
D    1   1.00
      0.2750000              1.0000000
F    1   1.00
      0.4500000              1.0000000
****
S     0
S    6   1.00
  21917.1000000              0.0018690
   3301.4900000              0.0142300
    754.1460000              0.0696960
    212.7110000              0.2384870
     67.9896000              0.4833070
     23.0515000              0.3380740
SP   6   1.00
    423.7350000             -0.0023767              0.0040610
    100.7100000             -0.0316930              0.0306810
     32.1599000             -0.1133170              0.1304520
     11.8079000              0.0560900              0.3272050
      4.6311000              0.5922550              0.4528510
      1.8702500              0.4550060              0.2560420
SP   3   1.00
      2.6158400             -0.2503740             -0.0145110
      0.9221670              0.0669570              0.3102630
      0.3412870              1.0545100              0.7544830
SP   1   1.00
      0.1171670              1.0000000              1.0000000
D    1   1.00
      1.3000000              1.0000000
D    1   1.00
      0.3250000              1.0000000
F    1   1.00
      0.5500000              1.0000000
****
Cl     0
S    6   1.00
  25180.1000000              0.0018330
   3780.3500000              0.0140340
    860.4740000              0.0690970
    242.1450000              0.2374520
     77.3349000              0.4830340
     26.2470000              0.3398560
SP   6   1.00
    491.7650000             -0.0022974              0.0039894
    116.9840000             -0.0307140              0.0303180
     37.4153000             -0.1125280              0.1298800
     13.7834000              0.0450160              0.3279510
      5.4521500              0.5893530              0.4535270
      2.2258800              0.4652060              0.2521540
SP   3   1.00
      3.1864900             -0.2518300             -0.0142990
      1.1442700              0.0615890              0.3235720
      0.4203770              1.0601800              0.7435070
SP   1   1.00
      0.1426570              1.0000000              1.0000000
D    1   1.00
      1.5000000              1.0000000
D    1   1.00
      0.3750000              1.0000000
F    1   1.00
      0.7000000              1.0000000
****
}

set {
reference uhf
freeze_core true
e_convergence 10
d_convergence 10
dft_spherical_points 1202
dft_radial_points 99
}

e = energy('b3lyp')

print_out('Grab this energy {0}'.format(e))
--------------------------------------------------------------------------

    Molecular point group: c1

    Geometry (in Bohr), charge = 0, multiplicity = 2:

       Center              X                  Y                   Z               Mass
    ------------   -----------------  -----------------  -----------------  -----------------
         C           -0.323340347491    -0.000141224760    -0.000697859791    12.000000000000
         C            0.061043351209    -1.399576398660    -2.425626410691    12.000000000000
         C            0.060923539009     2.801256915140    -0.000956032991    12.000000000000
         C            0.061333374709    -1.401958978960     2.427842724809    12.000000000000
         H            2.084774653909    -1.644222126560    -2.848607507191     1.007825032230
         H           -0.764156879091    -0.389901003160    -4.025641604791     1.007825032230
         H           -0.764416435691    -3.289512127860    -2.350552004991     1.007825032230
         H            2.090981272909     3.287959309640    -0.000286410791     1.007825032230
         H           -0.767759956191     3.681115152340     1.680163152009     1.007825032230
         H           -0.767883386291     3.681140093740    -1.680923245591     1.007825032230
         H            2.084915323309    -1.643472307860     2.846732388909     1.007825032230
         H           -0.764700705591    -3.289097174660     2.348541894609     1.007825032230
         H           -0.764320615591    -0.389012671560     4.023876683309     1.007825032230

  Charge       = 0
  Multiplicity = 2
  Basis Set: ANONYMOUS9BD0C127
    Blend: 6-31G_2DFP_
  Basis Set: (ANONYMOUS9BD0C127 AUX)
    Blend: DEF2-UNIVERSAL-JKFIT

    Orbital Energies [Eh]
    ---------------------

    Alpha Occupied:

       1A    -10.180342     2A    -10.167685     3A    -10.166719
       4A    -10.166640     5A     -0.797767     6A     -0.686510
       7A     -0.685866     8A     -0.530776     9A     -0.441125
      10A     -0.434791    11A     -0.434552    12A     -0.382839
      13A     -0.382359    14A     -0.363613    15A     -0.338207
      16A     -0.337789    17A     -0.168961

    Alpha Virtual:

      18A      0.076071    19A      0.134129    20A      0.134165
      21A      0.142514    22A      0.142756    23A      0.154875
      24A      0.178449    25A      0.179111    26A      0.203545
      27A      0.214805    28A      0.275757    29A      0.276215
      30A      0.399145    31A      0.399309    32A      0.403346
      33A      0.423991    34A      0.424203    35A      0.456592
      36A      0.495316    37A      0.495462    38A      0.512162
      39A      0.513979    40A      0.578678    41A      0.578947
      42A      0.591310    43A      0.591940    44A      0.602593
      45A      0.624765    46A      0.631686    47A      0.635908
      48A      0.636679    49A      0.663222    50A      0.663605
      51A      0.683549    52A      0.684171    53A      0.734994
      54A      0.824995    55A      0.825811    56A      0.853917
      57A      0.915006    58A      0.915047    59A      0.944129
      60A      0.944611    61A      0.961039    62A      0.961554
      63A      1.003453    64A      1.127767    65A      1.128445
      66A      1.142228    67A      1.162969    68A      1.163568
      69A      1.223324    70A      1.274135    71A      1.274827
      72A      1.279372    73A      1.323988    74A      1.324719
      75A      1.355979    76A      1.365756    77A      1.366357
      78A      1.392449    79A      1.403618    80A      1.404467
      81A      1.416751    82A      1.417459    83A      1.427927
      84A      1.491489    85A      1.499085    86A      1.542740
      87A      1.542922    88A      1.574107    89A      1.574791
      90A      1.669794    91A      1.739249    92A      1.739563
      93A      1.768326    94A      1.829773    95A      1.833094
      96A      1.971701    97A      2.018065    98A      2.018547
      99A      2.019762   100A      2.052000   101A      2.053342
     102A      2.738022   103A      2.738950   104A      2.790924
     105A      2.811429   106A      2.889617   107A      2.890239
     108A      2.894986   109A      2.929375   110A      2.929614
     111A      2.959005   112A      2.963843   113A      2.964924
     114A      3.034020   115A      3.071037   116A      3.071523
     117A      3.084382   118A      3.168549   119A      3.168992
     120A      3.180614   121A      3.285251   122A      3.285385
     123A      3.326969   124A      3.327352   125A      3.375607
     126A      3.489255   127A      3.491056   128A      3.514017
     129A      3.525344   130A      3.568296   131A      3.568443
     132A      3.575193   133A      3.665342   134A      3.667316
     135A      3.679665   136A      3.693691   137A      3.694610
     138A      3.776186   139A      3.777437   140A      3.789124
     141A      3.911339   142A      3.913096   143A      4.034436
     144A      4.110550   145A      4.112063   146A      4.145993
     147A      4.150163   148A      4.173318   149A      4.200443
     150A      4.203696   151A      4.204594   152A      4.211170
     153A      4.314950   154A      4.316942   155A      4.358951
     156A      4.423506   157A      4.425210   158A      4.443660
     159A      4.516121   160A      4.517530   161A      4.577849
     162A      4.578729   163A      4.617539   164A      4.709484
     165A      4.774252   166A      4.774903   167A      4.836892
     168A      4.962832   169A      5.002054   170A      5.003932
     171A      5.227835   172A      5.243064   173A      5.250531
     174A      5.352667   175A      5.358535   176A      5.479431

    Beta Occupied:

       1A    -10.168447     2A    -10.167479     3A    -10.167399
       4A    -10.166517     5A     -0.781092     6A     -0.684312
       7A     -0.683668     8A     -0.511747     9A     -0.431171
      10A     -0.430914    11A     -0.421823    12A     -0.376940
      13A     -0.376427    14A     -0.362597    15A     -0.333330
      16A     -0.332912

    Beta Virtual:

      17A     -0.025743    18A      0.077080    19A      0.134979
      20A      0.135097    21A      0.144432    22A      0.144577
      23A      0.163334    24A      0.182132    25A      0.182771
      26A      0.215035    27A      0.218928    28A      0.282113
      29A      0.282555    30A      0.400312    31A      0.400483
      32A      0.419791    33A      0.426799    34A      0.427017
      35A      0.468500    36A      0.497575    37A      0.497725
      38A      0.513897    39A      0.556324    40A      0.584219
      41A      0.584506    42A      0.597516    43A      0.598097
      44A      0.610012    45A      0.628141    46A      0.631884
      47A      0.639180    48A      0.639937    49A      0.666772
      50A      0.667184    51A      0.686219    52A      0.686771
      53A      0.757517    54A      0.830137    55A      0.831005
      56A      0.855271    57A      0.922976    58A      0.923019
      59A      0.945966    60A      0.953539    61A      0.966374
      62A      0.966832    63A      1.008693    64A      1.131782
      65A      1.132493    66A      1.155596    67A      1.168020
      68A      1.168667    69A      1.232297    70A      1.279727
      71A      1.280429    72A      1.285125    73A      1.328933
      74A      1.329752    75A      1.365387    76A      1.371030
      77A      1.371576    78A      1.393509    79A      1.407082
      80A      1.407934    81A      1.421762    82A      1.422543
      83A      1.428201    84A      1.492538    85A      1.509527
      86A      1.547109    87A      1.547367    88A      1.581981
      89A      1.582661    90A      1.674640    91A      1.745014
      92A      1.745326    93A      1.779103    94A      1.833659
      95A      1.836918    96A      1.972565    97A      2.024908
      98A      2.025968    99A      2.039660   100A      2.058720
     101A      2.060064   102A      2.746349   103A      2.747294
     104A      2.811840   105A      2.816059   106A      2.902423
     107A      2.902841   108A      2.924654   109A      2.931913
     110A      2.932045   111A      2.960069   112A      2.968348
     113A      2.969507   114A      3.041955   115A      3.080901
     116A      3.081436   117A      3.086243   118A      3.184244
     119A      3.184725   120A      3.188368   121A      3.290023
     122A      3.290210   123A      3.330785   124A      3.331144
     125A      3.383426   126A      3.492006   127A      3.493764
     128A      3.512383   129A      3.528388   130A      3.574947
     131A      3.581645   132A      3.581876   133A      3.670030
     134A      3.672146   135A      3.692984   136A      3.725290
     137A      3.726230   138A      3.780728   139A      3.781947
     140A      3.817670   141A      3.921207   142A      3.922863
     143A      4.045318   144A      4.117544   145A      4.118675
     146A      4.153444   147A      4.157168   148A      4.187368
     149A      4.207055   150A      4.209704   151A      4.211805
     152A      4.215660   153A      4.322447   154A      4.324319
     155A      4.362317   156A      4.431763   157A      4.433298
     158A      4.446631   159A      4.523936   160A      4.525295
     161A      4.588494   162A      4.589284   163A      4.624731
     164A      4.719828   165A      4.781209   166A      4.781851
     167A      4.839810   168A      4.967629   169A      5.006116
     170A      5.007948   171A      5.233548   172A      5.244851
     173A      5.252321   174A      5.359157   175A      5.365001
     176A      5.481752

    Final Occupation by Irrep:
              A
    DOCC [    16 ]
    SOCC [     1 ]

  @DF-UKS Final Energy:  -157.81305591220985

   => Energetics <=

    Nuclear Repulsion Energy =            125.3946519407408857
    One-Electron Energy =                -458.7489300196552904
    Two-Electron Energy =                 195.8483696388867088
    DFT Exchange-Correlation Energy =     -20.3071474721821730
    Empirical Dispersion Energy =           0.0000000000000000
    VV10 Nonlocal Energy =                  0.0000000000000000
    Total Energy =                       -157.8130559122098475

  UHF NO Occupations:
  HONO-2 :   15  A 1.9996008
  HONO-1 :   16  A 1.9989804
  HONO-0 :   17  A 1.0000000
  LUNO+0 :   18  A 0.0010196
  LUNO+1 :   19  A 0.0003992
  LUNO+2 :   20  A 0.0001979
  LUNO+3 :   21  A 0.0001972

Computation Completed

Properties will be evaluated at   0.000000,   0.000000,   0.000000 [a0]

Properties computed using the SCF density matrix

  Nuclear Dipole Moment: [e a0]
     X:     0.8272      Y:     0.0025      Z:    -0.0033

  Electronic Dipole Moment: [e a0]
     X:    -0.7493      Y:    -0.0049      Z:     0.0034

  Dipole Moment: [e a0]
     X:     0.0779      Y:    -0.0024      Z:     0.0001     Total:     0.0780

  Dipole Moment: [D]
     X:     0.1980      Y:    -0.0062      Z:     0.0002     Total:     0.1981

*** tstop() called on n083 at Fri Nov  5 13:12:22 2021
Module time:
	user time   =     493.74 seconds =       8.23 minutes
	system time =       4.51 seconds =       0.08 minutes
	total time  =        125 seconds =       2.08 minutes
Total time:
	user time   =     493.74 seconds =       8.23 minutes
	system time =       4.51 seconds =       0.08 minutes
	total time  =        125 seconds =       2.08 minutes
Grab this energy -157.81305591220985
    Psi4 stopped on: Friday, 05 November 2021 01:12PM
    Psi4 wall time for execution: 0:02:05.31

*** Psi4 exiting successfully. Buy a developer a beer!
