                               Psi4 1.4a2.dev629

  ==> Input File <==

--------------------------------------------------------------------------
import os
memory 14 GB

molecule {
 C   -0.3251198204   -0.0000026742   -0.0004983155
 C    0.0593886648   -1.4008826600   -2.4267739786
 C    0.0604633083    2.8020164585   -0.0003857589
 C    0.0617757347   -1.4011311122    2.4264327806
 H    2.0908228317   -1.6407817616   -2.8418792829
 H   -0.7660452501   -0.3927019035   -4.0264014459
 H   -0.7674043733   -3.2910500483   -2.3535839768
 H    2.0871167374    3.2820682578   -0.0001849663
 H   -0.7664270114    3.6839492805    1.6762380567
 H   -0.7640336222    3.6830144981   -1.6756382980
 H    2.0836863146   -1.6413782271    2.8425438159
 H   -0.7628991228   -3.2952047052    2.3505431978
 H   -0.7639322678   -0.3879397164    4.0295881719
units bohr
0 2
}

basis {

assign 6-31g_2dfp_

[ 6-31g_2dfp_ ]

spherical

!----------------------------------------------------------------------
! Basis Set Exchange
! Version v0.8.13
! https://www.basissetexchange.org
!----------------------------------------------------------------------
!   Basis set: 6-31G(2df,p)
! Description: 6-31G(2df,p)
!        Role: orbital
!     Version: 0  (Data from the original Basis Set Exchange)
!----------------------------------------------------------------------

****
H     0
S    3   1.00
     18.7311370              0.03349460
      2.8253937              0.23472695
      0.6401217              0.81375733
S    1   1.00
      0.1612778              1.00000000
P    1   1.00
      1.5000000              1.0000000
P    1   1.00
      0.3750000              1.0000000
****
B     0
S    6   1.00
   2068.8823000              0.0018663
    310.6495700              0.0142515
     70.6830330              0.0695516
     19.8610800              0.2325729
      6.2993048              0.4670787
      2.1270270              0.3634314
SP   3   1.00
      4.7279710             -0.1303938              0.0745976
      1.1903377             -0.1307889              0.3078467
      0.3594117              1.1309444              0.7434568
SP   1   1.00
      0.1267512              1.0000000              1.0000000
D    1   1.00
      0.8020000              1.0000000
D    1   1.00
      0.2005000              1.0000000
F    1   1.00
      0.5000000              1.0000000
****
C     0
S    6   1.00
   3047.5249000              0.0018347
    457.3695100              0.0140373
    103.9486900              0.0688426
     29.2101550              0.2321844
      9.2866630              0.4679413
      3.1639270              0.3623120
SP   3   1.00
      7.8682724             -0.1193324              0.0689991
      1.8812885             -0.1608542              0.3164240
      0.5442493              1.1434564              0.7443083
SP   1   1.00
      0.1687144              1.0000000              1.0000000
D    1   1.00
      1.2520000              1.0000000
D    1   1.00
      0.3130000              1.0000000
F    1   1.00
      0.8000000              1.0000000
****
N     0
S    6   1.00
   4173.5110000              0.0018348
    627.4579000              0.0139950
    142.9021000              0.0685870
     40.2343300              0.2322410
     12.8202100              0.4690700
      4.3904370              0.3604550
SP   3   1.00
     11.6263580             -0.1149610              0.0675800
      2.7162800             -0.1691180              0.3239070
      0.7722180              1.1458520              0.7408950
SP   1   1.00
      0.2120313              1.0000000              1.0000000
D    1   1.00
      1.8260000              1.0000000
D    1   1.00
      0.4565000              1.0000000
F    1   1.00
      1.0000000              1.0000000
****
O     0
S    6   1.00
   5484.6717000              0.0018311
    825.2349500              0.0139501
    188.0469600              0.0684451
     52.9645000              0.2327143
     16.8975700              0.4701930
      5.7996353              0.3585209
SP   3   1.00
     15.5396160             -0.1107775              0.0708743
      3.5999336             -0.1480263              0.3397528
      1.0137618              1.1307670              0.7271586
SP   1   1.00
      0.2700058              1.0000000              1.0000000
D    1   1.00
      2.5840000              1.0000000
D    1   1.00
      0.6460000              1.0000000
F    1   1.00
      1.4000000              1.0000000
****
F     0
S    6   1.00
   7001.7130900              0.0018196169
   1051.3660900              0.0139160796
    239.2856900              0.0684053245
     67.3974453              0.233185760
     21.5199573              0.471267439
      7.40310130             0.356618546
SP   3   1.00
     20.8479528             -0.108506975            0.0716287243
      4.80830834            -0.146451658            0.3459121030
      1.34406986             1.128688580            0.7224699570
SP   1   1.00
      0.358151393            1.0000000              1.0000000
D    1   1.00
      3.5000000              1.0000000
D    1   1.00
      0.8750000              1.0000000
F    1   1.00
      1.8500000              1.0000000
****
Al     0
S    6   1.00
  13983.1000000              0.00194267
   2098.7500000              0.0148599
    477.7050000              0.0728494
    134.3600000              0.2468300
     42.8709000              0.4872580
     14.5189000              0.3234960
SP   6   1.00
    239.6680000             -0.00292619             0.00460285
     57.4419000             -0.0374080              0.0331990
     18.2859000             -0.1144870              0.1362820
      6.5991400              0.1156350              0.3304760
      2.4904900              0.6125950              0.4491460
      0.9445400              0.3937990              0.2657040
SP   3   1.00
      1.2779000             -0.2276060             -0.0175130
      0.3975900              0.00144583             0.2445330
      0.1600950              1.0927900              0.8049340
SP   1   1.00
      0.0556577              1.0000000              1.0000000
D    1   1.00
      0.6500000              1.0000000
D    1   1.00
      0.1625000              1.0000000
F    1   1.00
      0.2500000              1.0000000
****
Si     0
S    6   1.00
  16115.9000000              0.00195948
   2425.5800000              0.01492880
    553.8670000              0.07284780
    156.3400000              0.24613000
     50.0683000              0.48591400
     17.0178000              0.32500200
SP   6   1.00
    292.7180000             -0.00278094             0.00443826
     69.8731000             -0.03571460             0.03266790
     22.3363000             -0.11498500             0.13472100
      8.1503900              0.09356340             0.32867800
      3.1345800              0.60301700             0.44964000
      1.2254300              0.41895900             0.26137200
SP   3   1.00
      1.7273800             -0.24463000            -0.01779510
      0.5729220              0.00431572             0.25353900
      0.2221920              1.09818000             0.80066900
SP   1   1.00
      0.0778369              1.00000000             1.00000000
D    1   1.00
      0.9000000              1.0000000
D    1   1.00
      0.2250000              1.0000000
F    1   1.00
      0.3200000              1.0000000
****
P     0
S    6   1.00
  19413.3000000              0.0018516
   2909.4200000              0.0142062
    661.3640000              0.0699995
    185.7590000              0.2400790
     59.1943000              0.4847620
     20.0310000              0.3352000
SP   6   1.00
    339.4780000             -0.00278217             0.00456462
     81.0101000             -0.0360499              0.03369360
     25.8780000             -0.1166310              0.13975500
      9.4522100              0.0968328              0.33936200
      3.6656600              0.6144180              0.45092100
      1.4674600              0.4037980              0.23858600
SP   3   1.00
      2.1562300             -0.2529230             -0.01776530
      0.7489970              0.0328517              0.27405800
      0.2831450              1.0812500              0.78542100
SP   1   1.00
      0.0998317              1.0000000              1.00000000
D    1   1.00
      1.1000000              1.0000000
D    1   1.00
      0.2750000              1.0000000
F    1   1.00
      0.4500000              1.0000000
****
S     0
S    6   1.00
  21917.1000000              0.0018690
   3301.4900000              0.0142300
    754.1460000              0.0696960
    212.7110000              0.2384870
     67.9896000              0.4833070
     23.0515000              0.3380740
SP   6   1.00
    423.7350000             -0.0023767              0.0040610
    100.7100000             -0.0316930              0.0306810
     32.1599000             -0.1133170              0.1304520
     11.8079000              0.0560900              0.3272050
      4.6311000              0.5922550              0.4528510
      1.8702500              0.4550060              0.2560420
SP   3   1.00
      2.6158400             -0.2503740             -0.0145110
      0.9221670              0.0669570              0.3102630
      0.3412870              1.0545100              0.7544830
SP   1   1.00
      0.1171670              1.0000000              1.0000000
D    1   1.00
      1.3000000              1.0000000
D    1   1.00
      0.3250000              1.0000000
F    1   1.00
      0.5500000              1.0000000
****
Cl     0
S    6   1.00
  25180.1000000              0.0018330
   3780.3500000              0.0140340
    860.4740000              0.0690970
    242.1450000              0.2374520
     77.3349000              0.4830340
     26.2470000              0.3398560
SP   6   1.00
    491.7650000             -0.0022974              0.0039894
    116.9840000             -0.0307140              0.0303180
     37.4153000             -0.1125280              0.1298800
     13.7834000              0.0450160              0.3279510
      5.4521500              0.5893530              0.4535270
      2.2258800              0.4652060              0.2521540
SP   3   1.00
      3.1864900             -0.2518300             -0.0142990
      1.1442700              0.0615890              0.3235720
      0.4203770              1.0601800              0.7435070
SP   1   1.00
      0.1426570              1.0000000              1.0000000
D    1   1.00
      1.5000000              1.0000000
D    1   1.00
      0.3750000              1.0000000
F    1   1.00
      0.7000000              1.0000000
****
}

set {
reference uhf
freeze_core true
e_convergence 10
d_convergence 10
dft_spherical_points 1202
dft_radial_points 99
}

e = energy('b3lyp')

print_out('Grab this energy {0}'.format(e))
--------------------------------------------------------------------------

    Molecular point group: c1

    Geometry (in Bohr), charge = 0, multiplicity = 2:

       Center              X                  Y                   Z               Mass
    ------------   -----------------  -----------------  -----------------  -----------------
         C           -0.324454915733    -0.000002247169    -0.000262319211    12.000000000000
         C            0.060053569467    -1.400882232969    -2.426537982311    12.000000000000
         C            0.061128212967     2.802016885531    -0.000149762611    12.000000000000
         C            0.062440639367    -1.401130685169     2.426668776889    12.000000000000
         H            2.091487736367    -1.640781334569    -2.841643286611     1.007825032230
         H           -0.765380345433    -0.392701476469    -4.026165449611     1.007825032230
         H           -0.766739468633    -3.291049621269    -2.353347980511     1.007825032230
         H            2.087781642067     3.282068684831     0.000051029989     1.007825032230
         H           -0.765762106733     3.683949707531     1.676474052989     1.007825032230
         H           -0.763368717533     3.683014925131    -1.675402301711     1.007825032230
         H            2.084351219267    -1.641377800069     2.842779812189     1.007825032230
         H           -0.762234218133    -3.295204278169     2.350779194089     1.007825032230
         H           -0.763267363133    -0.387939289369     4.029824168189     1.007825032230

  Charge       = 0
  Multiplicity = 2
  Basis Set: ANONYMOUSBBA0BB63
    Blend: 6-31G_2DFP_
  Basis Set: (ANONYMOUSBBA0BB63 AUX)
    Blend: DEF2-UNIVERSAL-JKFIT

    Orbital Energies [Eh]
    ---------------------

    Alpha Occupied:

       1A    -10.180355     2A    -10.167093     3A    -10.167068
       4A    -10.167024     5A     -0.797702     6A     -0.686151
       7A     -0.686149     8A     -0.530766     9A     -0.441296
      10A     -0.434480    11A     -0.434438    12A     -0.382774
      13A     -0.382728    14A     -0.363473    15A     -0.338007
      16A     -0.337945    17A     -0.168871

    Alpha Virtual:

      18A      0.076035    19A      0.134037    20A      0.134370
      21A      0.142498    22A      0.142616    23A      0.154674
      24A      0.178728    25A      0.178905    26A      0.203416
      27A      0.214582    28A      0.275870    29A      0.276023
      30A      0.398969    31A      0.399035    32A      0.403418
      33A      0.424166    34A      0.424334    35A      0.456357
      36A      0.495266    37A      0.495556    38A      0.512350
      39A      0.513926    40A      0.578488    41A      0.578817
      42A      0.591673    43A      0.591989    44A      0.602812
      45A      0.624700    46A      0.631505    47A      0.636060
      48A      0.636266    49A      0.662768    50A      0.663516
      51A      0.683764    52A      0.684113    53A      0.734910
      54A      0.825482    55A      0.825521    56A      0.853580
      57A      0.914670    58A      0.915096    59A      0.943904
      60A      0.945406    61A      0.961445    62A      0.961703
      63A      1.002723    64A      1.127606    65A      1.127709
      66A      1.142801    67A      1.162598    68A      1.162847
      69A      1.223407    70A      1.274352    71A      1.274655
      72A      1.279157    73A      1.324032    74A      1.324122
      75A      1.356375    76A      1.365711    77A      1.365750
      78A      1.392642    79A      1.403877    80A      1.404775
      81A      1.416754    82A      1.417786    83A      1.427296
      84A      1.490891    85A      1.499392    86A      1.542316
      87A      1.543231    88A      1.574907    89A      1.575232
      90A      1.669757    91A      1.739384    92A      1.739686
      93A      1.768501    94A      1.830317    95A      1.831917
      96A      1.971618    97A      2.017668    98A      2.018354
      99A      2.018898   100A      2.051230   101A      2.053123
     102A      2.738493   103A      2.739314   104A      2.790700
     105A      2.810909   106A      2.889763   107A      2.889793
     108A      2.894719   109A      2.929033   110A      2.929047
     111A      2.958938   112A      2.963997   113A      2.964652
     114A      3.033537   115A      3.071730   116A      3.071778
     117A      3.084723   118A      3.168629   119A      3.169068
     120A      3.180443   121A      3.285394   122A      3.286044
     123A      3.325847   124A      3.326255   125A      3.375912
     126A      3.490491   127A      3.490804   128A      3.513737
     129A      3.525152   130A      3.567728   131A      3.567980
     132A      3.574343   133A      3.665729   134A      3.667148
     135A      3.678554   136A      3.694510   137A      3.694788
     138A      3.775630   139A      3.775665   140A      3.790440
     141A      3.912025   142A      3.912235   143A      4.035556
     144A      4.110794   145A      4.111680   146A      4.147755
     147A      4.148903   148A      4.173283   149A      4.201350
     150A      4.202563   151A      4.203635   152A      4.210418
     153A      4.314874   154A      4.316508   155A      4.357799
     156A      4.424642   157A      4.425303   158A      4.442437
     159A      4.515330   160A      4.516709   161A      4.577179
     162A      4.577426   163A      4.617019   164A      4.709169
     165A      4.773760   166A      4.774679   167A      4.837914
     168A      4.962349   169A      5.002315   170A      5.003805
     171A      5.227656   172A      5.244792   173A      5.248928
     174A      5.353736   175A      5.356184   176A      5.479111

    Beta Occupied:

       1A    -10.167848     2A    -10.167822     3A    -10.167790
       4A    -10.166527     5A     -0.781024     6A     -0.683959
       7A     -0.683951     8A     -0.511741     9A     -0.430855
      10A     -0.430827    11A     -0.421983    12A     -0.376891
      13A     -0.376801    14A     -0.362463    15A     -0.333119
      16A     -0.333071

    Beta Virtual:

      17A     -0.025577    18A      0.077048    19A      0.134923
      20A      0.135236    21A      0.144384    22A      0.144451
      23A      0.163082    24A      0.182388    25A      0.182602
      26A      0.214809    27A      0.218837    28A      0.282226
      29A      0.282385    30A      0.400135    31A      0.400198
      32A      0.419843    33A      0.426983    34A      0.427151
      35A      0.468187    36A      0.497506    37A      0.497810
      38A      0.514080    39A      0.556354    40A      0.584033
      41A      0.584333    42A      0.597856    43A      0.598216
      44A      0.610213    45A      0.628074    46A      0.631664
      47A      0.639348    48A      0.639554    49A      0.666340
      50A      0.667026    51A      0.686436    52A      0.686749
      53A      0.757470    54A      0.830632    55A      0.830675
      56A      0.854932    57A      0.922609    58A      0.923008
      59A      0.945741    60A      0.954253    61A      0.966748
      62A      0.967064    63A      1.007935    64A      1.131673
      65A      1.131693    66A      1.156395    67A      1.167644
      68A      1.167965    69A      1.232275    70A      1.279919
      71A      1.280244    72A      1.284847    73A      1.328985
      74A      1.329070    75A      1.365845    76A      1.370955
      77A      1.371008    78A      1.393685    79A      1.407287
      80A      1.408267    81A      1.421841    82A      1.422907
      83A      1.427561    84A      1.491951    85A      1.509858
      86A      1.546741    87A      1.547631    88A      1.582782
      89A      1.583082    90A      1.674601    91A      1.745148
      92A      1.745449    93A      1.779260    94A      1.834167
      95A      1.835783    96A      1.972471    97A      2.024103
      98A      2.025046    99A      2.039867   100A      2.058006
     101A      2.059812   102A      2.746827   103A      2.747630
     104A      2.811316   105A      2.815831   106A      2.902485
     107A      2.902605   108A      2.924415   109A      2.931467
     110A      2.931543   111A      2.959996   112A      2.968494
     113A      2.969174   114A      3.041479   115A      3.081548
     116A      3.081785   117A      3.086561   118A      3.184274
     119A      3.184930   120A      3.188117   121A      3.290206
     122A      3.290875   123A      3.329652   124A      3.330109
     125A      3.383755   126A      3.493193   127A      3.493430
     128A      3.512095   129A      3.528235   130A      3.574197
     131A      3.581090   132A      3.581429   133A      3.670517
     134A      3.672048   135A      3.691905   136A      3.725963
     137A      3.726269   138A      3.780065   139A      3.780160
     140A      3.818957   141A      3.921867   142A      3.922121
     143A      4.046389   144A      4.117541   145A      4.118384
     146A      4.155100   147A      4.156138   148A      4.187369
     149A      4.207368   150A      4.208881   151A      4.211180
     152A      4.214859   153A      4.322297   154A      4.323933
     155A      4.361139   156A      4.432851   157A      4.433513
     158A      4.445339   159A      4.523131   160A      4.524515
     161A      4.587746   162A      4.588018   163A      4.624290
     164A      4.719407   165A      4.780727   166A      4.781647
     167A      4.840828   168A      4.967147   169A      5.006358
     170A      5.007810   171A      5.233384   172A      5.246585
     173A      5.250698   174A      5.360205   175A      5.362672
     176A      5.481427

    Final Occupation by Irrep:
              A
    DOCC [    16 ]
    SOCC [     1 ]

  @DF-UKS Final Energy:  -157.81305230664952

   => Energetics <=

    Nuclear Repulsion Energy =            125.3830426172223156
    One-Electron Energy =                -458.7262666978128891
    Two-Electron Energy =                 195.8369721347996517
    DFT Exchange-Correlation Energy =     -20.3068003608586132
    Empirical Dispersion Energy =           0.0000000000000000
    VV10 Nonlocal Energy =                  0.0000000000000000
    Total Energy =                       -157.8130523066495243

  UHF NO Occupations:
  HONO-2 :   15  A 1.9996022
  HONO-1 :   16  A 1.9989785
  HONO-0 :   17  A 1.0000000
  LUNO+0 :   18  A 0.0010215
  LUNO+1 :   19  A 0.0003978
  LUNO+2 :   20  A 0.0001979
  LUNO+3 :   21  A 0.0001978

Computation Completed

Properties will be evaluated at   0.000000,   0.000000,   0.000000 [a0]

Properties computed using the SCF density matrix

  Nuclear Dipole Moment: [e a0]
     X:     0.8319      Y:    -0.0000      Z:     0.0017

  Electronic Dipole Moment: [e a0]
     X:    -0.7535      Y:     0.0000      Z:    -0.0023

  Dipole Moment: [e a0]
     X:     0.0783      Y:     0.0000      Z:    -0.0007     Total:     0.0783

  Dipole Moment: [D]
     X:     0.1991      Y:     0.0000      Z:    -0.0017     Total:     0.1991

*** tstop() called on n079 at Fri Nov  5 14:09:15 2021
Module time:
	user time   =     462.95 seconds =       7.72 minutes
	system time =       4.48 seconds =       0.07 minutes
	total time  =        118 seconds =       1.97 minutes
Total time:
	user time   =     462.95 seconds =       7.72 minutes
	system time =       4.48 seconds =       0.07 minutes
	total time  =        118 seconds =       1.97 minutes
Grab this energy -157.81305230664952
    Psi4 stopped on: Friday, 05 November 2021 02:09PM
    Psi4 wall time for execution: 0:01:57.57

*** Psi4 exiting successfully. Buy a developer a beer!
