                               Psi4 1.4a2.dev629

  ==> Input File <==

--------------------------------------------------------------------------
import os
memory 14 GB

molecule {
 C   -0.3233166834   -0.0000014092    0.0004332341
 C    0.0609657329   -1.4018541285   -2.4266835117
 C    0.0611152699    2.8024187248    0.0013894221
 C    0.0615022295   -1.4005588694    2.4272190635
 H    2.0845739252   -1.6457858691   -2.8468714731
 H   -0.7657834373   -0.3904773796   -4.0246172095
 H   -0.7627435370   -3.2875984591   -2.3509182769
 H    2.0836466424    3.2884623515    0.0034923842
 H   -0.7609188059    3.6791442744    1.6713214476
 H   -0.7673252304    3.6809577440   -1.6761019112
 H    2.0829958362   -1.6427693035    2.8486321132
 H   -0.7653434701   -3.2913686990    2.3494952089
 H   -0.7619763487   -0.3905932910    4.0232095088
units bohr
0 2
}

basis {

assign 6-31g_2dfp_

[ 6-31g_2dfp_ ]

spherical

!----------------------------------------------------------------------
! Basis Set Exchange
! Version v0.8.13
! https://www.basissetexchange.org
!----------------------------------------------------------------------
!   Basis set: 6-31G(2df,p)
! Description: 6-31G(2df,p)
!        Role: orbital
!     Version: 0  (Data from the original Basis Set Exchange)
!----------------------------------------------------------------------

****
H     0
S    3   1.00
     18.7311370              0.03349460
      2.8253937              0.23472695
      0.6401217              0.81375733
S    1   1.00
      0.1612778              1.00000000
P    1   1.00
      1.5000000              1.0000000
P    1   1.00
      0.3750000              1.0000000
****
B     0
S    6   1.00
   2068.8823000              0.0018663
    310.6495700              0.0142515
     70.6830330              0.0695516
     19.8610800              0.2325729
      6.2993048              0.4670787
      2.1270270              0.3634314
SP   3   1.00
      4.7279710             -0.1303938              0.0745976
      1.1903377             -0.1307889              0.3078467
      0.3594117              1.1309444              0.7434568
SP   1   1.00
      0.1267512              1.0000000              1.0000000
D    1   1.00
      0.8020000              1.0000000
D    1   1.00
      0.2005000              1.0000000
F    1   1.00
      0.5000000              1.0000000
****
C     0
S    6   1.00
   3047.5249000              0.0018347
    457.3695100              0.0140373
    103.9486900              0.0688426
     29.2101550              0.2321844
      9.2866630              0.4679413
      3.1639270              0.3623120
SP   3   1.00
      7.8682724             -0.1193324              0.0689991
      1.8812885             -0.1608542              0.3164240
      0.5442493              1.1434564              0.7443083
SP   1   1.00
      0.1687144              1.0000000              1.0000000
D    1   1.00
      1.2520000              1.0000000
D    1   1.00
      0.3130000              1.0000000
F    1   1.00
      0.8000000              1.0000000
****
N     0
S    6   1.00
   4173.5110000              0.0018348
    627.4579000              0.0139950
    142.9021000              0.0685870
     40.2343300              0.2322410
     12.8202100              0.4690700
      4.3904370              0.3604550
SP   3   1.00
     11.6263580             -0.1149610              0.0675800
      2.7162800             -0.1691180              0.3239070
      0.7722180              1.1458520              0.7408950
SP   1   1.00
      0.2120313              1.0000000              1.0000000
D    1   1.00
      1.8260000              1.0000000
D    1   1.00
      0.4565000              1.0000000
F    1   1.00
      1.0000000              1.0000000
****
O     0
S    6   1.00
   5484.6717000              0.0018311
    825.2349500              0.0139501
    188.0469600              0.0684451
     52.9645000              0.2327143
     16.8975700              0.4701930
      5.7996353              0.3585209
SP   3   1.00
     15.5396160             -0.1107775              0.0708743
      3.5999336             -0.1480263              0.3397528
      1.0137618              1.1307670              0.7271586
SP   1   1.00
      0.2700058              1.0000000              1.0000000
D    1   1.00
      2.5840000              1.0000000
D    1   1.00
      0.6460000              1.0000000
F    1   1.00
      1.4000000              1.0000000
****
F     0
S    6   1.00
   7001.7130900              0.0018196169
   1051.3660900              0.0139160796
    239.2856900              0.0684053245
     67.3974453              0.233185760
     21.5199573              0.471267439
      7.40310130             0.356618546
SP   3   1.00
     20.8479528             -0.108506975            0.0716287243
      4.80830834            -0.146451658            0.3459121030
      1.34406986             1.128688580            0.7224699570
SP   1   1.00
      0.358151393            1.0000000              1.0000000
D    1   1.00
      3.5000000              1.0000000
D    1   1.00
      0.8750000              1.0000000
F    1   1.00
      1.8500000              1.0000000
****
Al     0
S    6   1.00
  13983.1000000              0.00194267
   2098.7500000              0.0148599
    477.7050000              0.0728494
    134.3600000              0.2468300
     42.8709000              0.4872580
     14.5189000              0.3234960
SP   6   1.00
    239.6680000             -0.00292619             0.00460285
     57.4419000             -0.0374080              0.0331990
     18.2859000             -0.1144870              0.1362820
      6.5991400              0.1156350              0.3304760
      2.4904900              0.6125950              0.4491460
      0.9445400              0.3937990              0.2657040
SP   3   1.00
      1.2779000             -0.2276060             -0.0175130
      0.3975900              0.00144583             0.2445330
      0.1600950              1.0927900              0.8049340
SP   1   1.00
      0.0556577              1.0000000              1.0000000
D    1   1.00
      0.6500000              1.0000000
D    1   1.00
      0.1625000              1.0000000
F    1   1.00
      0.2500000              1.0000000
****
Si     0
S    6   1.00
  16115.9000000              0.00195948
   2425.5800000              0.01492880
    553.8670000              0.07284780
    156.3400000              0.24613000
     50.0683000              0.48591400
     17.0178000              0.32500200
SP   6   1.00
    292.7180000             -0.00278094             0.00443826
     69.8731000             -0.03571460             0.03266790
     22.3363000             -0.11498500             0.13472100
      8.1503900              0.09356340             0.32867800
      3.1345800              0.60301700             0.44964000
      1.2254300              0.41895900             0.26137200
SP   3   1.00
      1.7273800             -0.24463000            -0.01779510
      0.5729220              0.00431572             0.25353900
      0.2221920              1.09818000             0.80066900
SP   1   1.00
      0.0778369              1.00000000             1.00000000
D    1   1.00
      0.9000000              1.0000000
D    1   1.00
      0.2250000              1.0000000
F    1   1.00
      0.3200000              1.0000000
****
P     0
S    6   1.00
  19413.3000000              0.0018516
   2909.4200000              0.0142062
    661.3640000              0.0699995
    185.7590000              0.2400790
     59.1943000              0.4847620
     20.0310000              0.3352000
SP   6   1.00
    339.4780000             -0.00278217             0.00456462
     81.0101000             -0.0360499              0.03369360
     25.8780000             -0.1166310              0.13975500
      9.4522100              0.0968328              0.33936200
      3.6656600              0.6144180              0.45092100
      1.4674600              0.4037980              0.23858600
SP   3   1.00
      2.1562300             -0.2529230             -0.01776530
      0.7489970              0.0328517              0.27405800
      0.2831450              1.0812500              0.78542100
SP   1   1.00
      0.0998317              1.0000000              1.00000000
D    1   1.00
      1.1000000              1.0000000
D    1   1.00
      0.2750000              1.0000000
F    1   1.00
      0.4500000              1.0000000
****
S     0
S    6   1.00
  21917.1000000              0.0018690
   3301.4900000              0.0142300
    754.1460000              0.0696960
    212.7110000              0.2384870
     67.9896000              0.4833070
     23.0515000              0.3380740
SP   6   1.00
    423.7350000             -0.0023767              0.0040610
    100.7100000             -0.0316930              0.0306810
     32.1599000             -0.1133170              0.1304520
     11.8079000              0.0560900              0.3272050
      4.6311000              0.5922550              0.4528510
      1.8702500              0.4550060              0.2560420
SP   3   1.00
      2.6158400             -0.2503740             -0.0145110
      0.9221670              0.0669570              0.3102630
      0.3412870              1.0545100              0.7544830
SP   1   1.00
      0.1171670              1.0000000              1.0000000
D    1   1.00
      1.3000000              1.0000000
D    1   1.00
      0.3250000              1.0000000
F    1   1.00
      0.5500000              1.0000000
****
Cl     0
S    6   1.00
  25180.1000000              0.0018330
   3780.3500000              0.0140340
    860.4740000              0.0690970
    242.1450000              0.2374520
     77.3349000              0.4830340
     26.2470000              0.3398560
SP   6   1.00
    491.7650000             -0.0022974              0.0039894
    116.9840000             -0.0307140              0.0303180
     37.4153000             -0.1125280              0.1298800
     13.7834000              0.0450160              0.3279510
      5.4521500              0.5893530              0.4535270
      2.2258800              0.4652060              0.2521540
SP   3   1.00
      3.1864900             -0.2518300             -0.0142990
      1.1442700              0.0615890              0.3235720
      0.4203770              1.0601800              0.7435070
SP   1   1.00
      0.1426570              1.0000000              1.0000000
D    1   1.00
      1.5000000              1.0000000
D    1   1.00
      0.3750000              1.0000000
F    1   1.00
      0.7000000              1.0000000
****
}

set {
reference uhf
freeze_core true
e_convergence 10
d_convergence 10
dft_spherical_points 1202
dft_radial_points 99
}

e = energy('b3lyp')

print_out('Grab this energy {0}'.format(e))
--------------------------------------------------------------------------

    Molecular point group: c1

    Geometry (in Bohr), charge = 0, multiplicity = 2:

       Center              X                  Y                   Z               Mass
    ------------   -----------------  -----------------  -----------------  -----------------
         C           -0.323375724007    -0.000001811457    -0.000020973746    12.000000000000
         C            0.060906692293    -1.401854530757    -2.427137719546    12.000000000000
         C            0.061056229293     2.802418322543     0.000935214254    12.000000000000
         C            0.061443188893    -1.400559271657     2.426764855654    12.000000000000
         H            2.084514884593    -1.645786271357    -2.847325680946     1.007825032230
         H           -0.765842477907    -0.390477781857    -4.025071417346     1.007825032230
         H           -0.762802577607    -3.287598861357    -2.351372484746     1.007825032230
         H            2.083587601793     3.288461949243     0.003038176354     1.007825032230
         H           -0.760977846507     3.679143872143     1.670867239754     1.007825032230
         H           -0.767384271007     3.680957341743    -1.676556119046     1.007825032230
         H            2.082936795593    -1.642769705757     2.848177905354     1.007825032230
         H           -0.765402510707    -3.291369101257     2.349041001054     1.007825032230
         H           -0.762035389307    -0.390593693257     4.022755300954     1.007825032230

  Charge       = 0
  Multiplicity = 2
  Basis Set: ANONYMOUS8B31313B
    Blend: 6-31G_2DFP_
  Basis Set: (ANONYMOUS8B31313B AUX)
    Blend: DEF2-UNIVERSAL-JKFIT

    Orbital Energies [Eh]
    ---------------------

    Alpha Occupied:

       1A    -10.180275     2A    -10.166498     3A    -10.166491
       4A    -10.166448     5A     -0.797727     6A     -0.686608
       7A     -0.686488     8A     -0.531089     9A     -0.441226
      10A     -0.434996    11A     -0.434622    12A     -0.382881
      13A     -0.382835    14A     -0.363928    15A     -0.338166
      16A     -0.337842    17A     -0.168900

    Alpha Virtual:

      18A      0.076401    19A      0.134408    20A      0.134630
      21A      0.142835    22A      0.143240    23A      0.155181
      24A      0.179191    25A      0.179378    26A      0.203437
      27A      0.215258    28A      0.275899    29A      0.276119
      30A      0.398925    31A      0.399419    32A      0.403552
      33A      0.424208    34A      0.424534    35A      0.456725
      36A      0.495564    37A      0.495665    38A      0.512432
      39A      0.514112    40A      0.579096    41A      0.579210
      42A      0.592091    43A      0.592376    44A      0.603224
      45A      0.625695    46A      0.632472    47A      0.636551
      48A      0.637124    49A      0.663537    50A      0.663962
      51A      0.684210    52A      0.684618    53A      0.735304
      54A      0.825972    55A      0.826477    56A      0.854431
      57A      0.915523    58A      0.915954    59A      0.944752
      60A      0.945399    61A      0.961866    62A      0.962032
      63A      1.003555    64A      1.128249    65A      1.128817
      66A      1.143093    67A      1.163463    68A      1.163585
      69A      1.223765    70A      1.274778    71A      1.275271
      72A      1.278900    73A      1.324853    74A      1.325265
      75A      1.356847    76A      1.366250    77A      1.366855
      78A      1.393028    79A      1.405033    80A      1.405118
      81A      1.417337    82A      1.418741    83A      1.428653
      84A      1.492394    85A      1.500423    86A      1.543298
      87A      1.543352    88A      1.574432    89A      1.574858
      90A      1.671990    91A      1.740144    92A      1.741548
      93A      1.769855    94A      1.833111    95A      1.834656
      96A      1.973383    97A      2.018767    98A      2.020014
      99A      2.021084   100A      2.053195   101A      2.054265
     102A      2.739282   103A      2.739645   104A      2.791137
     105A      2.811940   106A      2.890367   107A      2.890656
     108A      2.895015   109A      2.929858   110A      2.929917
     111A      2.959588   112A      2.964994   113A      2.965125
     114A      3.034923   115A      3.071654   116A      3.072762
     117A      3.085368   118A      3.167711   119A      3.168542
     120A      3.180887   121A      3.285114   122A      3.285437
     123A      3.326275   124A      3.327045   125A      3.374925
     126A      3.488888   127A      3.489448   128A      3.513730
     129A      3.524716   130A      3.568141   131A      3.569010
     132A      3.573456   133A      3.666579   134A      3.667620
     135A      3.681446   136A      3.694728   137A      3.695256
     138A      3.777238   139A      3.777433   140A      3.789687
     141A      3.912591   142A      3.913733   143A      4.036777
     144A      4.113289   145A      4.114318   146A      4.151152
     147A      4.151658   148A      4.176323   149A      4.203667
     150A      4.204082   151A      4.205323   152A      4.214659
     153A      4.317548   154A      4.318899   155A      4.361395
     156A      4.426491   157A      4.427577   158A      4.445464
     159A      4.518215   160A      4.520315   161A      4.579732
     162A      4.579764   163A      4.618218   164A      4.711465
     165A      4.775391   166A      4.777371   167A      4.839229
     168A      4.963679   169A      5.003708   170A      5.004431
     171A      5.232876   172A      5.252052   173A      5.252568
     174A      5.358848   175A      5.361386   176A      5.482659

    Beta Occupied:

       1A    -10.167248     2A    -10.167241     3A    -10.167227
       4A    -10.166431     5A     -0.781080     6A     -0.684411
       7A     -0.684288     8A     -0.512002     9A     -0.431377
      10A     -0.431002    11A     -0.421956    12A     -0.376970
      13A     -0.376933    14A     -0.362915    15A     -0.333276
      16A     -0.332959

    Beta Virtual:

      17A     -0.025510    18A      0.077406    19A      0.135280
      20A      0.135554    21A      0.144650    22A      0.145111
      23A      0.163576    24A      0.182853    25A      0.183039
      26A      0.215486    27A      0.218839    28A      0.282257
      29A      0.282475    30A      0.400086    31A      0.400589
      32A      0.420013    33A      0.427021    34A      0.427347
      35A      0.468614    36A      0.497818    37A      0.497930
      38A      0.514162    39A      0.556515    40A      0.584665
      41A      0.584775    42A      0.598267    43A      0.598599
      44A      0.610635    45A      0.629062    46A      0.632623
      47A      0.639834    48A      0.640367    49A      0.667119
      50A      0.667516    51A      0.686831    52A      0.687196
      53A      0.757852    54A      0.831150    55A      0.831632
      56A      0.855760    57A      0.923500    58A      0.923891
      59A      0.946588    60A      0.954348    61A      0.967148
      62A      0.967349    63A      1.008807    64A      1.132268
      65A      1.132827    66A      1.156462    67A      1.168570
      68A      1.168683    69A      1.232721    70A      1.280345
      71A      1.280872    72A      1.284643    73A      1.329870
      74A      1.330279    75A      1.366287    76A      1.371554
      77A      1.372033    78A      1.394082    79A      1.408477
      80A      1.408598    81A      1.422437    82A      1.423741
      83A      1.428910    84A      1.493449    85A      1.510867
      86A      1.547551    87A      1.547657    88A      1.582411
      89A      1.582833    90A      1.676913    91A      1.745899
      92A      1.747332    93A      1.780574    94A      1.836931
      95A      1.838485    96A      1.974239    97A      2.026055
      98A      2.027169    99A      2.040753   100A      2.059901
     101A      2.060997   102A      2.747619   103A      2.748005
     104A      2.812355   105A      2.816298   106A      2.903058
     107A      2.903429   108A      2.924763   109A      2.932301
     110A      2.932333   111A      2.960670   112A      2.969564
     113A      2.969713   114A      3.042778   115A      3.081560
     116A      3.082663   117A      3.087324   118A      3.183445
     119A      3.184211   120A      3.188626   121A      3.289848
     122A      3.290194   123A      3.330052   124A      3.330890
     125A      3.382767   126A      3.491677   127A      3.492211
     128A      3.512099   129A      3.527777   130A      3.573313
     131A      3.581421   132A      3.582446   133A      3.671759
     134A      3.672508   135A      3.694816   136A      3.726385
     137A      3.726515   138A      3.781719   139A      3.781978
     140A      3.818255   141A      3.922328   142A      3.923601
     143A      4.047790   144A      4.119971   145A      4.121423
     146A      4.158104   147A      4.159074   148A      4.190213
     149A      4.209631   150A      4.211219   151A      4.211980
     152A      4.219112   153A      4.324950   154A      4.326217
     155A      4.364747   156A      4.434696   157A      4.435742
     158A      4.448331   159A      4.525987   160A      4.528101
     161A      4.590272   162A      4.590362   163A      4.625403
     164A      4.721804   165A      4.782368   166A      4.784294
     167A      4.842151   168A      4.968446   169A      5.007729
     170A      5.008448   171A      5.238463   172A      5.253840
     173A      5.254446   174A      5.365310   175A      5.367824
     176A      5.484969

    Final Occupation by Irrep:
              A
    DOCC [    16 ]
    SOCC [     1 ]

  @DF-UKS Final Energy:  -157.81301019913309

   => Energetics <=

    Nuclear Repulsion Energy =            125.4320731046338864
    One-Electron Energy =                -458.8198425660904149
    Two-Electron Energy =                 195.8859354446648808
    DFT Exchange-Correlation Energy =     -20.3111761823414518
    Empirical Dispersion Energy =           0.0000000000000000
    VV10 Nonlocal Energy =                  0.0000000000000000
    Total Energy =                       -157.8130101991330889

  UHF NO Occupations:
  HONO-2 :   15  A 1.9996034
  HONO-1 :   16  A 1.9989798
  HONO-0 :   17  A 1.0000000
  LUNO+0 :   18  A 0.0010202
  LUNO+1 :   19  A 0.0003966
  LUNO+2 :   20  A 0.0001979
  LUNO+3 :   21  A 0.0001979

Computation Completed

Properties will be evaluated at   0.000000,   0.000000,   0.000000 [a0]

Properties computed using the SCF density matrix

  Nuclear Dipole Moment: [e a0]
     X:     0.8268      Y:    -0.0000      Z:    -0.0032

  Electronic Dipole Moment: [e a0]
     X:    -0.7482      Y:     0.0000      Z:     0.0049

  Dipole Moment: [e a0]
     X:     0.0785      Y:    -0.0000      Z:     0.0017     Total:     0.0786

  Dipole Moment: [D]
     X:     0.1996      Y:    -0.0000      Z:     0.0044     Total:     0.1997

*** tstop() called on n054 at Fri Nov  5 14:32:28 2021
Module time:
	user time   =     508.74 seconds =       8.48 minutes
	system time =      11.31 seconds =       0.19 minutes
	total time  =        130 seconds =       2.17 minutes
Total time:
	user time   =     508.74 seconds =       8.48 minutes
	system time =      11.31 seconds =       0.19 minutes
	total time  =        130 seconds =       2.17 minutes
Grab this energy -157.8130101991331
    Psi4 stopped on: Friday, 05 November 2021 02:32PM
    Psi4 wall time for execution: 0:02:10.80

*** Psi4 exiting successfully. Buy a developer a beer!
