                               Psi4 1.4a2.dev629

  ==> Input File <==

--------------------------------------------------------------------------
import os
memory 14 GB

molecule {
 C   -0.3230306397    0.0000050334    0.0049876157
 C    0.0615248859   -1.3920325728   -2.4172884130
 C    0.0608811368    2.7963005875   -0.0062174809
 C    0.0604814339   -1.4042607712    2.4260331480
 H    2.0873182554   -1.6320178948   -2.8376449738
 H   -0.7657016920   -0.3762852288   -4.0131340346
 H   -0.7631125535   -3.2828915715   -2.3437736077
 H    2.0865025227    3.2814862432   -0.0111253300
 H   -0.7627280410    3.6818172054    1.6666681518
 H   -0.7682417694    3.6666415823   -1.6855249034
 H    2.0859728341   -1.6495747808    2.8458034859
 H   -0.7676997801   -3.2944091457    2.3441871084
 H   -0.7647744698   -0.3948029997    4.0270292336
units bohr
0 2
}

basis {

assign 6-31g_2dfp_

[ 6-31g_2dfp_ ]

spherical

!----------------------------------------------------------------------
! Basis Set Exchange
! Version v0.8.13
! https://www.basissetexchange.org
!----------------------------------------------------------------------
!   Basis set: 6-31G(2df,p)
! Description: 6-31G(2df,p)
!        Role: orbital
!     Version: 0  (Data from the original Basis Set Exchange)
!----------------------------------------------------------------------

****
H     0
S    3   1.00
     18.7311370              0.03349460
      2.8253937              0.23472695
      0.6401217              0.81375733
S    1   1.00
      0.1612778              1.00000000
P    1   1.00
      1.5000000              1.0000000
P    1   1.00
      0.3750000              1.0000000
****
B     0
S    6   1.00
   2068.8823000              0.0018663
    310.6495700              0.0142515
     70.6830330              0.0695516
     19.8610800              0.2325729
      6.2993048              0.4670787
      2.1270270              0.3634314
SP   3   1.00
      4.7279710             -0.1303938              0.0745976
      1.1903377             -0.1307889              0.3078467
      0.3594117              1.1309444              0.7434568
SP   1   1.00
      0.1267512              1.0000000              1.0000000
D    1   1.00
      0.8020000              1.0000000
D    1   1.00
      0.2005000              1.0000000
F    1   1.00
      0.5000000              1.0000000
****
C     0
S    6   1.00
   3047.5249000              0.0018347
    457.3695100              0.0140373
    103.9486900              0.0688426
     29.2101550              0.2321844
      9.2866630              0.4679413
      3.1639270              0.3623120
SP   3   1.00
      7.8682724             -0.1193324              0.0689991
      1.8812885             -0.1608542              0.3164240
      0.5442493              1.1434564              0.7443083
SP   1   1.00
      0.1687144              1.0000000              1.0000000
D    1   1.00
      1.2520000              1.0000000
D    1   1.00
      0.3130000              1.0000000
F    1   1.00
      0.8000000              1.0000000
****
N     0
S    6   1.00
   4173.5110000              0.0018348
    627.4579000              0.0139950
    142.9021000              0.0685870
     40.2343300              0.2322410
     12.8202100              0.4690700
      4.3904370              0.3604550
SP   3   1.00
     11.6263580             -0.1149610              0.0675800
      2.7162800             -0.1691180              0.3239070
      0.7722180              1.1458520              0.7408950
SP   1   1.00
      0.2120313              1.0000000              1.0000000
D    1   1.00
      1.8260000              1.0000000
D    1   1.00
      0.4565000              1.0000000
F    1   1.00
      1.0000000              1.0000000
****
O     0
S    6   1.00
   5484.6717000              0.0018311
    825.2349500              0.0139501
    188.0469600              0.0684451
     52.9645000              0.2327143
     16.8975700              0.4701930
      5.7996353              0.3585209
SP   3   1.00
     15.5396160             -0.1107775              0.0708743
      3.5999336             -0.1480263              0.3397528
      1.0137618              1.1307670              0.7271586
SP   1   1.00
      0.2700058              1.0000000              1.0000000
D    1   1.00
      2.5840000              1.0000000
D    1   1.00
      0.6460000              1.0000000
F    1   1.00
      1.4000000              1.0000000
****
F     0
S    6   1.00
   7001.7130900              0.0018196169
   1051.3660900              0.0139160796
    239.2856900              0.0684053245
     67.3974453              0.233185760
     21.5199573              0.471267439
      7.40310130             0.356618546
SP   3   1.00
     20.8479528             -0.108506975            0.0716287243
      4.80830834            -0.146451658            0.3459121030
      1.34406986             1.128688580            0.7224699570
SP   1   1.00
      0.358151393            1.0000000              1.0000000
D    1   1.00
      3.5000000              1.0000000
D    1   1.00
      0.8750000              1.0000000
F    1   1.00
      1.8500000              1.0000000
****
Al     0
S    6   1.00
  13983.1000000              0.00194267
   2098.7500000              0.0148599
    477.7050000              0.0728494
    134.3600000              0.2468300
     42.8709000              0.4872580
     14.5189000              0.3234960
SP   6   1.00
    239.6680000             -0.00292619             0.00460285
     57.4419000             -0.0374080              0.0331990
     18.2859000             -0.1144870              0.1362820
      6.5991400              0.1156350              0.3304760
      2.4904900              0.6125950              0.4491460
      0.9445400              0.3937990              0.2657040
SP   3   1.00
      1.2779000             -0.2276060             -0.0175130
      0.3975900              0.00144583             0.2445330
      0.1600950              1.0927900              0.8049340
SP   1   1.00
      0.0556577              1.0000000              1.0000000
D    1   1.00
      0.6500000              1.0000000
D    1   1.00
      0.1625000              1.0000000
F    1   1.00
      0.2500000              1.0000000
****
Si     0
S    6   1.00
  16115.9000000              0.00195948
   2425.5800000              0.01492880
    553.8670000              0.07284780
    156.3400000              0.24613000
     50.0683000              0.48591400
     17.0178000              0.32500200
SP   6   1.00
    292.7180000             -0.00278094             0.00443826
     69.8731000             -0.03571460             0.03266790
     22.3363000             -0.11498500             0.13472100
      8.1503900              0.09356340             0.32867800
      3.1345800              0.60301700             0.44964000
      1.2254300              0.41895900             0.26137200
SP   3   1.00
      1.7273800             -0.24463000            -0.01779510
      0.5729220              0.00431572             0.25353900
      0.2221920              1.09818000             0.80066900
SP   1   1.00
      0.0778369              1.00000000             1.00000000
D    1   1.00
      0.9000000              1.0000000
D    1   1.00
      0.2250000              1.0000000
F    1   1.00
      0.3200000              1.0000000
****
P     0
S    6   1.00
  19413.3000000              0.0018516
   2909.4200000              0.0142062
    661.3640000              0.0699995
    185.7590000              0.2400790
     59.1943000              0.4847620
     20.0310000              0.3352000
SP   6   1.00
    339.4780000             -0.00278217             0.00456462
     81.0101000             -0.0360499              0.03369360
     25.8780000             -0.1166310              0.13975500
      9.4522100              0.0968328              0.33936200
      3.6656600              0.6144180              0.45092100
      1.4674600              0.4037980              0.23858600
SP   3   1.00
      2.1562300             -0.2529230             -0.01776530
      0.7489970              0.0328517              0.27405800
      0.2831450              1.0812500              0.78542100
SP   1   1.00
      0.0998317              1.0000000              1.00000000
D    1   1.00
      1.1000000              1.0000000
D    1   1.00
      0.2750000              1.0000000
F    1   1.00
      0.4500000              1.0000000
****
S     0
S    6   1.00
  21917.1000000              0.0018690
   3301.4900000              0.0142300
    754.1460000              0.0696960
    212.7110000              0.2384870
     67.9896000              0.4833070
     23.0515000              0.3380740
SP   6   1.00
    423.7350000             -0.0023767              0.0040610
    100.7100000             -0.0316930              0.0306810
     32.1599000             -0.1133170              0.1304520
     11.8079000              0.0560900              0.3272050
      4.6311000              0.5922550              0.4528510
      1.8702500              0.4550060              0.2560420
SP   3   1.00
      2.6158400             -0.2503740             -0.0145110
      0.9221670              0.0669570              0.3102630
      0.3412870              1.0545100              0.7544830
SP   1   1.00
      0.1171670              1.0000000              1.0000000
D    1   1.00
      1.3000000              1.0000000
D    1   1.00
      0.3250000              1.0000000
F    1   1.00
      0.5500000              1.0000000
****
Cl     0
S    6   1.00
  25180.1000000              0.0018330
   3780.3500000              0.0140340
    860.4740000              0.0690970
    242.1450000              0.2374520
     77.3349000              0.4830340
     26.2470000              0.3398560
SP   6   1.00
    491.7650000             -0.0022974              0.0039894
    116.9840000             -0.0307140              0.0303180
     37.4153000             -0.1125280              0.1298800
     13.7834000              0.0450160              0.3279510
      5.4521500              0.5893530              0.4535270
      2.2258800              0.4652060              0.2521540
SP   3   1.00
      3.1864900             -0.2518300             -0.0142990
      1.1442700              0.0615890              0.3235720
      0.4203770              1.0601800              0.7435070
SP   1   1.00
      0.1426570              1.0000000              1.0000000
D    1   1.00
      1.5000000              1.0000000
D    1   1.00
      0.3750000              1.0000000
F    1   1.00
      0.7000000              1.0000000
****
}

set {
reference uhf
freeze_core true
e_convergence 10
d_convergence 10
dft_spherical_points 1202
dft_radial_points 99
}

e = energy('b3lyp')

print_out('Grab this energy {0}'.format(e))
--------------------------------------------------------------------------

    Molecular point group: c1

    Geometry (in Bohr), charge = 0, multiplicity = 2:

       Center              X                  Y                   Z               Mass
    ------------   -----------------  -----------------  -----------------  -----------------
         C           -0.323010762973     0.000003098141     0.003540197650    12.000000000000
         C            0.061544762627    -1.392034508059    -2.418735831050    12.000000000000
         C            0.060901013527     2.796298652241    -0.007664898950    12.000000000000
         C            0.060501310627    -1.404262706459     2.424585729950    12.000000000000
         H            2.087338132127    -1.632019830059    -2.839092391850     1.007825032230
         H           -0.765681815273    -0.376287164059    -4.014581452650     1.007825032230
         H           -0.763092676773    -3.282893506759    -2.345221025750     1.007825032230
         H            2.086522399427     3.281484307941    -0.012572748050     1.007825032230
         H           -0.762708164273     3.681815270141     1.665220733750     1.007825032230
         H           -0.768221892673     3.666639647041    -1.686972321450     1.007825032230
         H            2.085992710827    -1.649576716059     2.844356067850     1.007825032230
         H           -0.767679903373    -3.294411080959     2.342739690350     1.007825032230
         H           -0.764754593073    -0.394804934959     4.025581815550     1.007825032230

  Charge       = 0
  Multiplicity = 2
  Basis Set: ANONYMOUSB83B6E15
    Blend: 6-31G_2DFP_
  Basis Set: (ANONYMOUSB83B6E15 AUX)
    Blend: DEF2-UNIVERSAL-JKFIT

    Orbital Energies [Eh]
    ---------------------

    Alpha Occupied:

       1A    -10.179568     2A    -10.166925     3A    -10.166654
       4A    -10.166382     5A     -0.798819     6A     -0.686710
       7A     -0.686265     8A     -0.530775     9A     -0.441723
      10A     -0.435418    11A     -0.434886    12A     -0.382819
      13A     -0.382527    14A     -0.363492    15A     -0.338461
      16A     -0.337910    17A     -0.168636

    Alpha Virtual:

      18A      0.076043    19A      0.133953    20A      0.134435
      21A      0.142692    22A      0.142970    23A      0.154943
      24A      0.178730    25A      0.179179    26A      0.204638
      27A      0.215153    28A      0.276332    29A      0.276680
      30A      0.399023    31A      0.399314    32A      0.403208
      33A      0.423708    34A      0.423952    35A      0.457178
      36A      0.495209    37A      0.496018    38A      0.512509
      39A      0.514389    40A      0.579221    41A      0.579747
      42A      0.592174    43A      0.592192    44A      0.603037
      45A      0.625174    46A      0.632123    47A      0.636849
      48A      0.637289    49A      0.663671    50A      0.664104
      51A      0.684061    52A      0.684560    53A      0.734787
      54A      0.824424    55A      0.826068    56A      0.854915
      57A      0.915506    58A      0.916007    59A      0.943936
      60A      0.945389    61A      0.962085    62A      0.962626
      63A      1.004600    64A      1.127851    65A      1.130178
      66A      1.142564    67A      1.163543    68A      1.164522
      69A      1.224240    70A      1.274885    71A      1.275921
      72A      1.279869    73A      1.324602    74A      1.324775
      75A      1.356164    76A      1.367124    77A      1.368591
      78A      1.393930    79A      1.402983    80A      1.404625
      81A      1.417018    82A      1.417973    83A      1.429337
      84A      1.492656    85A      1.499644    86A      1.543195
      87A      1.543941    88A      1.573797    89A      1.577516
      90A      1.669760    91A      1.738969    92A      1.741083
      93A      1.769868    94A      1.832075    95A      1.833113
      96A      1.973113    97A      2.018710    98A      2.020590
      99A      2.021622   100A      2.054629   101A      2.059755
     102A      2.738798   103A      2.739362   104A      2.792075
     105A      2.814169   106A      2.890999   107A      2.891163
     108A      2.896458   109A      2.929500   110A      2.929859
     111A      2.959225   112A      2.963190   113A      2.964983
     114A      3.033970   115A      3.071235   116A      3.073237
     117A      3.085967   118A      3.168881   119A      3.170427
     120A      3.182459   121A      3.285109   122A      3.286499
     123A      3.326653   124A      3.328550   125A      3.374275
     126A      3.491420   127A      3.492383   128A      3.514808
     129A      3.527623   130A      3.567150   131A      3.569445
     132A      3.577455   133A      3.666232   134A      3.666465
     135A      3.681631   136A      3.695105   137A      3.696030
     138A      3.780392   139A      3.782044   140A      3.790018
     141A      3.912894   142A      3.915735   143A      4.036322
     144A      4.112843   145A      4.115570   146A      4.147231
     147A      4.150528   148A      4.174445   149A      4.203659
     150A      4.204146   151A      4.207082   152A      4.212546
     153A      4.317472   154A      4.317516   155A      4.361516
     156A      4.426325   157A      4.426612   158A      4.445978
     159A      4.519007   160A      4.520711   161A      4.580783
     162A      4.582889   163A      4.624893   164A      4.714228
     165A      4.779720   166A      4.782347   167A      4.840886
     168A      4.965927   169A      5.003599   170A      5.005554
     171A      5.229047   172A      5.248083   173A      5.248395
     174A      5.357415   175A      5.358832   176A      5.485095

    Beta Occupied:

       1A    -10.167683     2A    -10.167414     3A    -10.167145
       4A    -10.165772     5A     -0.782123     6A     -0.684496
       7A     -0.684044     8A     -0.511846     9A     -0.431779
      10A     -0.431230    11A     -0.422324    12A     -0.376877
      13A     -0.376565    14A     -0.362464    15A     -0.333592
      16A     -0.333033

    Beta Virtual:

      17A     -0.025712    18A      0.077063    19A      0.134827
      20A      0.135329    21A      0.144597    22A      0.144863
      23A      0.163447    24A      0.182418    25A      0.182886
      26A      0.215390    27A      0.219840    28A      0.282599
      29A      0.282971    30A      0.400281    31A      0.400520
      32A      0.419493    33A      0.426494    34A      0.426770
      35A      0.469444    36A      0.497481    37A      0.498298
      38A      0.514260    39A      0.556652    40A      0.584812
      41A      0.585274    42A      0.598274    43A      0.598324
      44A      0.610500    45A      0.628616    46A      0.632290
      47A      0.640191    48A      0.640664    49A      0.667166
      50A      0.667649    51A      0.686724    52A      0.687329
      53A      0.757131    54A      0.829600    55A      0.831263
      56A      0.856306    57A      0.923477    58A      0.924004
      59A      0.947253    60A      0.952763    61A      0.967362
      62A      0.968002    63A      1.009763    64A      1.131887
      65A      1.134200    66A      1.155949    67A      1.168588
      68A      1.169632    69A      1.233348    70A      1.280516
      71A      1.281559    72A      1.285556    73A      1.329575
      74A      1.329778    75A      1.365611    76A      1.372247
      77A      1.373926    78A      1.395001    79A      1.406465
      80A      1.408029    81A      1.422112    82A      1.423074
      83A      1.429643    84A      1.493706    85A      1.510152
      86A      1.547445    87A      1.548393    88A      1.581881
      89A      1.585311    90A      1.674613    91A      1.744739
      92A      1.746846    93A      1.780671    94A      1.835930
      95A      1.837004    96A      1.973979    97A      2.025072
      98A      2.028090    99A      2.042022   100A      2.061456
     101A      2.066411   102A      2.746992   103A      2.747648
     104A      2.814586   105A      2.817190   106A      2.903496
     107A      2.903575   108A      2.926225   109A      2.932259
     110A      2.932419   111A      2.960305   112A      2.967821
     113A      2.969552   114A      3.041992   115A      3.081077
     116A      3.083272   117A      3.087926   118A      3.184632
     119A      3.185944   120A      3.190085   121A      3.290153
     122A      3.291409   123A      3.330375   124A      3.332290
     125A      3.382076   126A      3.494144   127A      3.495098
     128A      3.513175   129A      3.530629   130A      3.576807
     131A      3.580778   132A      3.583023   133A      3.670854
     134A      3.671134   135A      3.694907   136A      3.726603
     137A      3.727435   138A      3.784997   139A      3.786688
     140A      3.818307   141A      3.922717   142A      3.925557
     143A      4.047145   144A      4.119381   145A      4.122095
     146A      4.154690   147A      4.157880   148A      4.188621
     149A      4.209606   150A      4.212114   151A      4.213032
     152A      4.217127   153A      4.324930   154A      4.325002
     155A      4.364858   156A      4.434637   157A      4.434898
     158A      4.448924   159A      4.527021   160A      4.528525
     161A      4.591324   162A      4.593589   163A      4.632067
     164A      4.724657   165A      4.786639   166A      4.789338
     167A      4.843803   168A      4.970743   169A      5.007679
     170A      5.009632   171A      5.234799   172A      5.249875
     173A      5.250197   174A      5.363932   175A      5.365386
     176A      5.487439

    Final Occupation by Irrep:
              A
    DOCC [    16 ]
    SOCC [     1 ]

  @DF-UKS Final Energy:  -157.81303431764371

   => Energetics <=

    Nuclear Repulsion Energy =            125.5763864464007469
    One-Electron Energy =                -459.1067240174046447
    Two-Electron Energy =                 196.0282571849063800
    DFT Exchange-Correlation Energy =     -20.3109539315461944
    Empirical Dispersion Energy =           0.0000000000000000
    VV10 Nonlocal Energy =                  0.0000000000000000
    Total Energy =                       -157.8130343176437123

  UHF NO Occupations:
  HONO-2 :   15  A 1.9995992
  HONO-1 :   16  A 1.9989874
  HONO-0 :   17  A 1.0000000
  LUNO+0 :   18  A 0.0010126
  LUNO+1 :   19  A 0.0004008
  LUNO+2 :   20  A 0.0001957
  LUNO+3 :   21  A 0.0001950

Computation Completed

Properties will be evaluated at   0.000000,   0.000000,   0.000000 [a0]

Properties computed using the SCF density matrix

  Nuclear Dipole Moment: [e a0]
     X:     0.8273      Y:    -0.0000      Z:    -0.0102

  Electronic Dipole Moment: [e a0]
     X:    -0.7503      Y:     0.0000      Z:     0.0109

  Dipole Moment: [e a0]
     X:     0.0770      Y:    -0.0000      Z:     0.0008     Total:     0.0770

  Dipole Moment: [D]
     X:     0.1958      Y:    -0.0000      Z:     0.0019     Total:     0.1958

*** tstop() called on n082 at Fri Nov  5 15:49:39 2021
Module time:
	user time   =     498.38 seconds =       8.31 minutes
	system time =       4.62 seconds =       0.08 minutes
	total time  =        127 seconds =       2.12 minutes
Total time:
	user time   =     498.38 seconds =       8.31 minutes
	system time =       4.62 seconds =       0.08 minutes
	total time  =        127 seconds =       2.12 minutes
Grab this energy -157.8130343176437
    Psi4 stopped on: Friday, 05 November 2021 03:49PM
    Psi4 wall time for execution: 0:02:06.47

*** Psi4 exiting successfully. Buy a developer a beer!
