                               Psi4 1.4a2.dev629

  ==> Input File <==

--------------------------------------------------------------------------
import os
memory 14 GB

molecule {
 C   -0.3233383621   -0.0053447159   -0.0002257428
 C    0.0609204850   -1.4005320793   -2.4243416257
 C    0.0611682368    2.8017046471   -0.0004826226
 C    0.0612108025   -1.4029135233    2.4275031650
 H    2.0869834432   -1.6435737932   -2.8480795919
 H   -0.7645705689   -0.3881145034   -4.0265882424
 H   -0.7661229612   -3.2912496023   -2.3487366631
 H    2.0865610372    3.2887073605    0.0001859182
 H   -0.7656405303    3.6810731497    1.6762031603
 H   -0.7657622854    3.6810979173   -1.6760168289
 H    2.0871230308   -1.6428232089    2.8471452425
 H   -0.7664044420   -3.2908324392    2.3476698779
 H   -0.7647357624   -0.3872235229    4.0257639535
units bohr
0 2
}

basis {

assign 6-31g_2dfp_

[ 6-31g_2dfp_ ]

spherical

!----------------------------------------------------------------------
! Basis Set Exchange
! Version v0.8.13
! https://www.basissetexchange.org
!----------------------------------------------------------------------
!   Basis set: 6-31G(2df,p)
! Description: 6-31G(2df,p)
!        Role: orbital
!     Version: 0  (Data from the original Basis Set Exchange)
!----------------------------------------------------------------------

****
H     0
S    3   1.00
     18.7311370              0.03349460
      2.8253937              0.23472695
      0.6401217              0.81375733
S    1   1.00
      0.1612778              1.00000000
P    1   1.00
      1.5000000              1.0000000
P    1   1.00
      0.3750000              1.0000000
****
B     0
S    6   1.00
   2068.8823000              0.0018663
    310.6495700              0.0142515
     70.6830330              0.0695516
     19.8610800              0.2325729
      6.2993048              0.4670787
      2.1270270              0.3634314
SP   3   1.00
      4.7279710             -0.1303938              0.0745976
      1.1903377             -0.1307889              0.3078467
      0.3594117              1.1309444              0.7434568
SP   1   1.00
      0.1267512              1.0000000              1.0000000
D    1   1.00
      0.8020000              1.0000000
D    1   1.00
      0.2005000              1.0000000
F    1   1.00
      0.5000000              1.0000000
****
C     0
S    6   1.00
   3047.5249000              0.0018347
    457.3695100              0.0140373
    103.9486900              0.0688426
     29.2101550              0.2321844
      9.2866630              0.4679413
      3.1639270              0.3623120
SP   3   1.00
      7.8682724             -0.1193324              0.0689991
      1.8812885             -0.1608542              0.3164240
      0.5442493              1.1434564              0.7443083
SP   1   1.00
      0.1687144              1.0000000              1.0000000
D    1   1.00
      1.2520000              1.0000000
D    1   1.00
      0.3130000              1.0000000
F    1   1.00
      0.8000000              1.0000000
****
N     0
S    6   1.00
   4173.5110000              0.0018348
    627.4579000              0.0139950
    142.9021000              0.0685870
     40.2343300              0.2322410
     12.8202100              0.4690700
      4.3904370              0.3604550
SP   3   1.00
     11.6263580             -0.1149610              0.0675800
      2.7162800             -0.1691180              0.3239070
      0.7722180              1.1458520              0.7408950
SP   1   1.00
      0.2120313              1.0000000              1.0000000
D    1   1.00
      1.8260000              1.0000000
D    1   1.00
      0.4565000              1.0000000
F    1   1.00
      1.0000000              1.0000000
****
O     0
S    6   1.00
   5484.6717000              0.0018311
    825.2349500              0.0139501
    188.0469600              0.0684451
     52.9645000              0.2327143
     16.8975700              0.4701930
      5.7996353              0.3585209
SP   3   1.00
     15.5396160             -0.1107775              0.0708743
      3.5999336             -0.1480263              0.3397528
      1.0137618              1.1307670              0.7271586
SP   1   1.00
      0.2700058              1.0000000              1.0000000
D    1   1.00
      2.5840000              1.0000000
D    1   1.00
      0.6460000              1.0000000
F    1   1.00
      1.4000000              1.0000000
****
F     0
S    6   1.00
   7001.7130900              0.0018196169
   1051.3660900              0.0139160796
    239.2856900              0.0684053245
     67.3974453              0.233185760
     21.5199573              0.471267439
      7.40310130             0.356618546
SP   3   1.00
     20.8479528             -0.108506975            0.0716287243
      4.80830834            -0.146451658            0.3459121030
      1.34406986             1.128688580            0.7224699570
SP   1   1.00
      0.358151393            1.0000000              1.0000000
D    1   1.00
      3.5000000              1.0000000
D    1   1.00
      0.8750000              1.0000000
F    1   1.00
      1.8500000              1.0000000
****
Al     0
S    6   1.00
  13983.1000000              0.00194267
   2098.7500000              0.0148599
    477.7050000              0.0728494
    134.3600000              0.2468300
     42.8709000              0.4872580
     14.5189000              0.3234960
SP   6   1.00
    239.6680000             -0.00292619             0.00460285
     57.4419000             -0.0374080              0.0331990
     18.2859000             -0.1144870              0.1362820
      6.5991400              0.1156350              0.3304760
      2.4904900              0.6125950              0.4491460
      0.9445400              0.3937990              0.2657040
SP   3   1.00
      1.2779000             -0.2276060             -0.0175130
      0.3975900              0.00144583             0.2445330
      0.1600950              1.0927900              0.8049340
SP   1   1.00
      0.0556577              1.0000000              1.0000000
D    1   1.00
      0.6500000              1.0000000
D    1   1.00
      0.1625000              1.0000000
F    1   1.00
      0.2500000              1.0000000
****
Si     0
S    6   1.00
  16115.9000000              0.00195948
   2425.5800000              0.01492880
    553.8670000              0.07284780
    156.3400000              0.24613000
     50.0683000              0.48591400
     17.0178000              0.32500200
SP   6   1.00
    292.7180000             -0.00278094             0.00443826
     69.8731000             -0.03571460             0.03266790
     22.3363000             -0.11498500             0.13472100
      8.1503900              0.09356340             0.32867800
      3.1345800              0.60301700             0.44964000
      1.2254300              0.41895900             0.26137200
SP   3   1.00
      1.7273800             -0.24463000            -0.01779510
      0.5729220              0.00431572             0.25353900
      0.2221920              1.09818000             0.80066900
SP   1   1.00
      0.0778369              1.00000000             1.00000000
D    1   1.00
      0.9000000              1.0000000
D    1   1.00
      0.2250000              1.0000000
F    1   1.00
      0.3200000              1.0000000
****
P     0
S    6   1.00
  19413.3000000              0.0018516
   2909.4200000              0.0142062
    661.3640000              0.0699995
    185.7590000              0.2400790
     59.1943000              0.4847620
     20.0310000              0.3352000
SP   6   1.00
    339.4780000             -0.00278217             0.00456462
     81.0101000             -0.0360499              0.03369360
     25.8780000             -0.1166310              0.13975500
      9.4522100              0.0968328              0.33936200
      3.6656600              0.6144180              0.45092100
      1.4674600              0.4037980              0.23858600
SP   3   1.00
      2.1562300             -0.2529230             -0.01776530
      0.7489970              0.0328517              0.27405800
      0.2831450              1.0812500              0.78542100
SP   1   1.00
      0.0998317              1.0000000              1.00000000
D    1   1.00
      1.1000000              1.0000000
D    1   1.00
      0.2750000              1.0000000
F    1   1.00
      0.4500000              1.0000000
****
S     0
S    6   1.00
  21917.1000000              0.0018690
   3301.4900000              0.0142300
    754.1460000              0.0696960
    212.7110000              0.2384870
     67.9896000              0.4833070
     23.0515000              0.3380740
SP   6   1.00
    423.7350000             -0.0023767              0.0040610
    100.7100000             -0.0316930              0.0306810
     32.1599000             -0.1133170              0.1304520
     11.8079000              0.0560900              0.3272050
      4.6311000              0.5922550              0.4528510
      1.8702500              0.4550060              0.2560420
SP   3   1.00
      2.6158400             -0.2503740             -0.0145110
      0.9221670              0.0669570              0.3102630
      0.3412870              1.0545100              0.7544830
SP   1   1.00
      0.1171670              1.0000000              1.0000000
D    1   1.00
      1.3000000              1.0000000
D    1   1.00
      0.3250000              1.0000000
F    1   1.00
      0.5500000              1.0000000
****
Cl     0
S    6   1.00
  25180.1000000              0.0018330
   3780.3500000              0.0140340
    860.4740000              0.0690970
    242.1450000              0.2374520
     77.3349000              0.4830340
     26.2470000              0.3398560
SP   6   1.00
    491.7650000             -0.0022974              0.0039894
    116.9840000             -0.0307140              0.0303180
     37.4153000             -0.1125280              0.1298800
     13.7834000              0.0450160              0.3279510
      5.4521500              0.5893530              0.4535270
      2.2258800              0.4652060              0.2521540
SP   3   1.00
      3.1864900             -0.2518300             -0.0142990
      1.1442700              0.0615890              0.3235720
      0.4203770              1.0601800              0.7435070
SP   1   1.00
      0.1426570              1.0000000              1.0000000
D    1   1.00
      1.5000000              1.0000000
D    1   1.00
      0.3750000              1.0000000
F    1   1.00
      0.7000000              1.0000000
****
}

set {
reference uhf
freeze_core true
e_convergence 10
d_convergence 10
dft_spherical_points 1202
dft_radial_points 99
}

e = energy('b3lyp')

print_out('Grab this energy {0}'.format(e))
--------------------------------------------------------------------------

    Molecular point group: c1

    Geometry (in Bohr), charge = 0, multiplicity = 2:

       Center              X                  Y                   Z               Mass
    ------------   -----------------  -----------------  -----------------  -----------------
         C           -0.323338583027    -0.003979535188    -0.000698241762    12.000000000000
         C            0.060920264073    -1.399166898588    -2.424814124662    12.000000000000
         C            0.061168015873     2.803069827812    -0.000955121562    12.000000000000
         C            0.061210581573    -1.401548342588     2.427030666038    12.000000000000
         H            2.086983222273    -1.642208612488    -2.848552090862     1.007825032230
         H           -0.764570789827    -0.386749322688    -4.027060741362     1.007825032230
         H           -0.766123182127    -3.289884421588    -2.349209162062     1.007825032230
         H            2.086560816273     3.290072541212    -0.000286580762     1.007825032230
         H           -0.765640751227     3.682438330412     1.675730661338     1.007825032230
         H           -0.765762506327     3.682463098012    -1.676489327862     1.007825032230
         H            2.087122809873    -1.641458028188     2.846672743538     1.007825032230
         H           -0.766404662927    -3.289467258488     2.347197378938     1.007825032230
         H           -0.764735983327    -0.385858342188     4.025291454538     1.007825032230

  Charge       = 0
  Multiplicity = 2
  Basis Set: ANONYMOUSE96A18FF
    Blend: 6-31G_2DFP_
  Basis Set: (ANONYMOUSE96A18FF AUX)
    Blend: DEF2-UNIVERSAL-JKFIT

    Orbital Energies [Eh]
    ---------------------

    Alpha Occupied:

       1A    -10.180341     2A    -10.167058     3A    -10.167031
       4A    -10.166955     5A     -0.797769     6A     -0.686377
       7A     -0.685996     8A     -0.530776     9A     -0.441131
      10A     -0.434894    11A     -0.434443    12A     -0.382748
      13A     -0.382453    14A     -0.363610    15A     -0.338557
      16A     -0.337437    17A     -0.168960

    Alpha Virtual:

      18A      0.076072    19A      0.134132    20A      0.134177
      21A      0.142440    22A      0.142814    23A      0.154880
      24A      0.178696    25A      0.178861    26A      0.203542
      27A      0.214803    28A      0.275620    29A      0.276351
      30A      0.399102    31A      0.399353    32A      0.403346
      33A      0.424053    34A      0.424142    35A      0.456593
      36A      0.495336    37A      0.495442    38A      0.512160
      39A      0.513978    40A      0.578611    41A      0.579012
      42A      0.591584    43A      0.591703    44A      0.602576
      45A      0.624751    46A      0.631771    47A      0.636034
      48A      0.636479    49A      0.663321    50A      0.663503
      51A      0.683799    52A      0.683905    53A      0.734994
      54A      0.825288    55A      0.825527    56A      0.853916
      57A      0.914909    58A      0.915135    59A      0.944126
      60A      0.944619    61A      0.961122    62A      0.961463
      63A      1.003452    64A      1.127802    65A      1.128372
      66A      1.142269    67A      1.162776    68A      1.163760
      69A      1.223328    70A      1.273920    71A      1.275051
      72A      1.279366    73A      1.324241    74A      1.324472
      75A      1.355993    76A      1.365752    77A      1.366365
      78A      1.392435    79A      1.403860    80A      1.404225
      81A      1.416762    82A      1.417462    83A      1.427937
      84A      1.491488    85A      1.499080    86A      1.542762
      87A      1.542901    88A      1.574252    89A      1.574639
      90A      1.669819    91A      1.739181    92A      1.739670
      93A      1.768312    94A      1.830826    95A      1.831964
      96A      1.971733    97A      2.018108    98A      2.018437
      99A      2.019852   100A      2.051779   101A      2.053523
     102A      2.738219   103A      2.738753   104A      2.790925
     105A      2.811423   106A      2.889384   107A      2.890510
     108A      2.894945   109A      2.929096   110A      2.929896
     111A      2.958989   112A      2.964216   113A      2.964542
     114A      3.034001   115A      3.070777   116A      3.071803
     117A      3.084350   118A      3.168586   119A      3.168903
     120A      3.180677   121A      3.285014   122A      3.285611
     123A      3.326734   124A      3.327576   125A      3.375602
     126A      3.489525   127A      3.490757   128A      3.514024
     129A      3.525338   130A      3.568141   131A      3.568642
     132A      3.575146   133A      3.665618   134A      3.667120
     135A      3.679672   136A      3.693981   137A      3.694258
     138A      3.776001   139A      3.777577   140A      3.789171
     141A      3.911351   142A      3.913104   143A      4.034434
     144A      4.111008   145A      4.111724   146A      4.147105
     147A      4.149129   148A      4.173264   149A      4.202072
     150A      4.202761   151A      4.203963   152A      4.210888
     153A      4.315032   154A      4.316884   155A      4.358984
     156A      4.423501   157A      4.425300   158A      4.443542
     159A      4.516180   160A      4.517504   161A      4.578090
     162A      4.578150   163A      4.617843   164A      4.709464
     165A      4.773947   166A      4.775232   167A      4.836910
     168A      4.962791   169A      5.002207   170A      5.003791
     171A      5.228041   172A      5.246621   173A      5.247017
     174A      5.354935   175A      5.356072   176A      5.479346

    Beta Occupied:

       1A    -10.167811     2A    -10.167794     3A    -10.167719
       4A    -10.166519     5A     -0.781094     6A     -0.684169
       7A     -0.683810     8A     -0.511747     9A     -0.431273
      10A     -0.430816    11A     -0.421818    12A     -0.376819
      13A     -0.376552    14A     -0.362593    15A     -0.333690
      16A     -0.332551

    Beta Virtual:

      17A     -0.025743    18A      0.077081    19A      0.135040
      20A      0.135049    21A      0.144326    22A      0.144670
      23A      0.163339    24A      0.182378    25A      0.182522
      26A      0.215032    27A      0.218925    28A      0.282000
      29A      0.282666    30A      0.400275    31A      0.400521
      32A      0.419792    33A      0.426862    34A      0.426955
      35A      0.468501    36A      0.497591    37A      0.497708
      38A      0.513895    39A      0.556321    40A      0.584140
      41A      0.584588    42A      0.597762    43A      0.597881
      44A      0.610001    45A      0.628124    46A      0.631928
      47A      0.639314    48A      0.639771    49A      0.666885
      50A      0.667067    51A      0.686436    52A      0.686538
      53A      0.757516    54A      0.830457    55A      0.830695
      56A      0.855269    57A      0.922853    58A      0.923132
      59A      0.945963    60A      0.953547    61A      0.966421
      62A      0.966776    63A      1.008693    64A      1.131876
      65A      1.132377    66A      1.155623    67A      1.167842
      68A      1.168841    69A      1.232301    70A      1.279560
      71A      1.280606    72A      1.285119    73A      1.329248
      74A      1.329444    75A      1.365408    76A      1.371052
      77A      1.371554    78A      1.393495    79A      1.407348
      80A      1.407664    81A      1.421823    82A      1.422493
      83A      1.428214    84A      1.492536    85A      1.509523
      86A      1.547161    87A      1.547317    88A      1.582119
      89A      1.582516    90A      1.674666    91A      1.744937
      92A      1.745436    93A      1.779092    94A      1.834683
      95A      1.835817    96A      1.972592    97A      2.024672
      98A      2.026228    99A      2.039664   100A      2.058502
     101A      2.060242   102A      2.746536   103A      2.747107
     104A      2.811835   105A      2.816060   106A      2.902162
     107A      2.903114   108A      2.924642   109A      2.931526
     110A      2.932434   111A      2.960054   112A      2.968753
     113A      2.969092   114A      3.041936   115A      3.080758
     116A      3.081638   117A      3.086170   118A      3.184297
     119A      3.184522   120A      3.188529   121A      3.289853
     122A      3.290369   123A      3.330539   124A      3.331380
     125A      3.383421   126A      3.492233   127A      3.493504
     128A      3.512395   129A      3.528383   130A      3.574992
     131A      3.581522   132A      3.581957   133A      3.670369
     134A      3.671865   135A      3.692967   136A      3.725550
     137A      3.725952   138A      3.780546   139A      3.782105
     140A      3.817687   141A      3.921215   142A      3.922879
     143A      4.045321   144A      4.117806   145A      4.118558
     146A      4.154360   147A      4.156293   148A      4.187321
     149A      4.208342   150A      4.209313   151A      4.210976
     152A      4.215369   153A      4.322408   154A      4.324386
     155A      4.362348   156A      4.431748   157A      4.433445
     158A      4.446466   159A      4.523965   160A      4.525299
     161A      4.588682   162A      4.588736   163A      4.625059
     164A      4.719811   165A      4.780877   166A      4.782208
     167A      4.839828   168A      4.967584   169A      5.006265
     170A      5.007814   171A      5.233757   172A      5.248413
     173A      5.248793   174A      5.361388   175A      5.362581
     176A      5.481668

    Final Occupation by Irrep:
              A
    DOCC [    16 ]
    SOCC [     1 ]

  @DF-UKS Final Energy:  -157.81306304298411

   => Energetics <=

    Nuclear Repulsion Energy =            125.3946842593485940
    One-Electron Energy =                -458.7490132188379448
    Two-Electron Energy =                 195.8484119123068297
    DFT Exchange-Correlation Energy =     -20.3071459958015907
    Empirical Dispersion Energy =           0.0000000000000000
    VV10 Nonlocal Energy =                  0.0000000000000000
    Total Energy =                       -157.8130630429841119

  UHF NO Occupations:
  HONO-2 :   15  A 1.9996008
  HONO-1 :   16  A 1.9989804
  HONO-0 :   17  A 1.0000000
  LUNO+0 :   18  A 0.0010196
  LUNO+1 :   19  A 0.0003992
  LUNO+2 :   20  A 0.0001987
  LUNO+3 :   21  A 0.0001964

Computation Completed

Properties will be evaluated at   0.000000,   0.000000,   0.000000 [a0]

Properties computed using the SCF density matrix

  Nuclear Dipole Moment: [e a0]
     X:     0.8272      Y:     0.0096      Z:    -0.0033

  Electronic Dipole Moment: [e a0]
     X:    -0.7493      Y:    -0.0108      Z:     0.0034

  Dipole Moment: [e a0]
     X:     0.0779      Y:    -0.0012      Z:     0.0001     Total:     0.0779

  Dipole Moment: [D]
     X:     0.1980      Y:    -0.0031      Z:     0.0002     Total:     0.1981

*** tstop() called on n091 at Fri Nov  5 13:07:53 2021
Module time:
	user time   =     497.96 seconds =       8.30 minutes
	system time =       4.45 seconds =       0.07 minutes
	total time  =        126 seconds =       2.10 minutes
Total time:
	user time   =     497.96 seconds =       8.30 minutes
	system time =       4.45 seconds =       0.07 minutes
	total time  =        126 seconds =       2.10 minutes
Grab this energy -157.8130630429841
    Psi4 stopped on: Friday, 05 November 2021 01:07PM
    Psi4 wall time for execution: 0:02:06.39

*** Psi4 exiting successfully. Buy a developer a beer!
