                               Psi4 1.4a2.dev629

  ==> Input File <==

--------------------------------------------------------------------------
import os
memory 14 GB

molecule {
 C   -0.3233401488   -0.0004361304   -0.0004974612
 C    0.0601031492   -1.4017680889   -2.4259028935
 C    0.0607108292    2.8018648978   -0.0003825254
 C    0.0624875177   -1.4020194269    2.4255631253
 H    2.0900524344   -1.6464322350   -2.8456065775
 H   -0.7690625814   -0.3887670797   -4.0257664109
 H   -0.7648690856   -3.2880977471   -2.3505646697
 H    2.0877105824    3.2880915668   -0.0001805898
 H   -0.7671936725    3.6808644256    1.6758877214
 H   -0.7647977892    3.6799368888   -1.6752801151
 H    2.0829105404   -1.6470089116    2.8462494436
 H   -0.7603674069   -3.2922518494    2.3475337886
 H   -0.7669522457   -0.3840006237    4.0289471642
units bohr
0 2
}

basis {

assign 6-31g_2dfp_

[ 6-31g_2dfp_ ]

spherical

!----------------------------------------------------------------------
! Basis Set Exchange
! Version v0.8.13
! https://www.basissetexchange.org
!----------------------------------------------------------------------
!   Basis set: 6-31G(2df,p)
! Description: 6-31G(2df,p)
!        Role: orbital
!     Version: 0  (Data from the original Basis Set Exchange)
!----------------------------------------------------------------------

****
H     0
S    3   1.00
     18.7311370              0.03349460
      2.8253937              0.23472695
      0.6401217              0.81375733
S    1   1.00
      0.1612778              1.00000000
P    1   1.00
      1.5000000              1.0000000
P    1   1.00
      0.3750000              1.0000000
****
B     0
S    6   1.00
   2068.8823000              0.0018663
    310.6495700              0.0142515
     70.6830330              0.0695516
     19.8610800              0.2325729
      6.2993048              0.4670787
      2.1270270              0.3634314
SP   3   1.00
      4.7279710             -0.1303938              0.0745976
      1.1903377             -0.1307889              0.3078467
      0.3594117              1.1309444              0.7434568
SP   1   1.00
      0.1267512              1.0000000              1.0000000
D    1   1.00
      0.8020000              1.0000000
D    1   1.00
      0.2005000              1.0000000
F    1   1.00
      0.5000000              1.0000000
****
C     0
S    6   1.00
   3047.5249000              0.0018347
    457.3695100              0.0140373
    103.9486900              0.0688426
     29.2101550              0.2321844
      9.2866630              0.4679413
      3.1639270              0.3623120
SP   3   1.00
      7.8682724             -0.1193324              0.0689991
      1.8812885             -0.1608542              0.3164240
      0.5442493              1.1434564              0.7443083
SP   1   1.00
      0.1687144              1.0000000              1.0000000
D    1   1.00
      1.2520000              1.0000000
D    1   1.00
      0.3130000              1.0000000
F    1   1.00
      0.8000000              1.0000000
****
N     0
S    6   1.00
   4173.5110000              0.0018348
    627.4579000              0.0139950
    142.9021000              0.0685870
     40.2343300              0.2322410
     12.8202100              0.4690700
      4.3904370              0.3604550
SP   3   1.00
     11.6263580             -0.1149610              0.0675800
      2.7162800             -0.1691180              0.3239070
      0.7722180              1.1458520              0.7408950
SP   1   1.00
      0.2120313              1.0000000              1.0000000
D    1   1.00
      1.8260000              1.0000000
D    1   1.00
      0.4565000              1.0000000
F    1   1.00
      1.0000000              1.0000000
****
O     0
S    6   1.00
   5484.6717000              0.0018311
    825.2349500              0.0139501
    188.0469600              0.0684451
     52.9645000              0.2327143
     16.8975700              0.4701930
      5.7996353              0.3585209
SP   3   1.00
     15.5396160             -0.1107775              0.0708743
      3.5999336             -0.1480263              0.3397528
      1.0137618              1.1307670              0.7271586
SP   1   1.00
      0.2700058              1.0000000              1.0000000
D    1   1.00
      2.5840000              1.0000000
D    1   1.00
      0.6460000              1.0000000
F    1   1.00
      1.4000000              1.0000000
****
F     0
S    6   1.00
   7001.7130900              0.0018196169
   1051.3660900              0.0139160796
    239.2856900              0.0684053245
     67.3974453              0.233185760
     21.5199573              0.471267439
      7.40310130             0.356618546
SP   3   1.00
     20.8479528             -0.108506975            0.0716287243
      4.80830834            -0.146451658            0.3459121030
      1.34406986             1.128688580            0.7224699570
SP   1   1.00
      0.358151393            1.0000000              1.0000000
D    1   1.00
      3.5000000              1.0000000
D    1   1.00
      0.8750000              1.0000000
F    1   1.00
      1.8500000              1.0000000
****
Al     0
S    6   1.00
  13983.1000000              0.00194267
   2098.7500000              0.0148599
    477.7050000              0.0728494
    134.3600000              0.2468300
     42.8709000              0.4872580
     14.5189000              0.3234960
SP   6   1.00
    239.6680000             -0.00292619             0.00460285
     57.4419000             -0.0374080              0.0331990
     18.2859000             -0.1144870              0.1362820
      6.5991400              0.1156350              0.3304760
      2.4904900              0.6125950              0.4491460
      0.9445400              0.3937990              0.2657040
SP   3   1.00
      1.2779000             -0.2276060             -0.0175130
      0.3975900              0.00144583             0.2445330
      0.1600950              1.0927900              0.8049340
SP   1   1.00
      0.0556577              1.0000000              1.0000000
D    1   1.00
      0.6500000              1.0000000
D    1   1.00
      0.1625000              1.0000000
F    1   1.00
      0.2500000              1.0000000
****
Si     0
S    6   1.00
  16115.9000000              0.00195948
   2425.5800000              0.01492880
    553.8670000              0.07284780
    156.3400000              0.24613000
     50.0683000              0.48591400
     17.0178000              0.32500200
SP   6   1.00
    292.7180000             -0.00278094             0.00443826
     69.8731000             -0.03571460             0.03266790
     22.3363000             -0.11498500             0.13472100
      8.1503900              0.09356340             0.32867800
      3.1345800              0.60301700             0.44964000
      1.2254300              0.41895900             0.26137200
SP   3   1.00
      1.7273800             -0.24463000            -0.01779510
      0.5729220              0.00431572             0.25353900
      0.2221920              1.09818000             0.80066900
SP   1   1.00
      0.0778369              1.00000000             1.00000000
D    1   1.00
      0.9000000              1.0000000
D    1   1.00
      0.2250000              1.0000000
F    1   1.00
      0.3200000              1.0000000
****
P     0
S    6   1.00
  19413.3000000              0.0018516
   2909.4200000              0.0142062
    661.3640000              0.0699995
    185.7590000              0.2400790
     59.1943000              0.4847620
     20.0310000              0.3352000
SP   6   1.00
    339.4780000             -0.00278217             0.00456462
     81.0101000             -0.0360499              0.03369360
     25.8780000             -0.1166310              0.13975500
      9.4522100              0.0968328              0.33936200
      3.6656600              0.6144180              0.45092100
      1.4674600              0.4037980              0.23858600
SP   3   1.00
      2.1562300             -0.2529230             -0.01776530
      0.7489970              0.0328517              0.27405800
      0.2831450              1.0812500              0.78542100
SP   1   1.00
      0.0998317              1.0000000              1.00000000
D    1   1.00
      1.1000000              1.0000000
D    1   1.00
      0.2750000              1.0000000
F    1   1.00
      0.4500000              1.0000000
****
S     0
S    6   1.00
  21917.1000000              0.0018690
   3301.4900000              0.0142300
    754.1460000              0.0696960
    212.7110000              0.2384870
     67.9896000              0.4833070
     23.0515000              0.3380740
SP   6   1.00
    423.7350000             -0.0023767              0.0040610
    100.7100000             -0.0316930              0.0306810
     32.1599000             -0.1133170              0.1304520
     11.8079000              0.0560900              0.3272050
      4.6311000              0.5922550              0.4528510
      1.8702500              0.4550060              0.2560420
SP   3   1.00
      2.6158400             -0.2503740             -0.0145110
      0.9221670              0.0669570              0.3102630
      0.3412870              1.0545100              0.7544830
SP   1   1.00
      0.1171670              1.0000000              1.0000000
D    1   1.00
      1.3000000              1.0000000
D    1   1.00
      0.3250000              1.0000000
F    1   1.00
      0.5500000              1.0000000
****
Cl     0
S    6   1.00
  25180.1000000              0.0018330
   3780.3500000              0.0140340
    860.4740000              0.0690970
    242.1450000              0.2374520
     77.3349000              0.4830340
     26.2470000              0.3398560
SP   6   1.00
    491.7650000             -0.0022974              0.0039894
    116.9840000             -0.0307140              0.0303180
     37.4153000             -0.1125280              0.1298800
     13.7834000              0.0450160              0.3279510
      5.4521500              0.5893530              0.4535270
      2.2258800              0.4652060              0.2521540
SP   3   1.00
      3.1864900             -0.2518300             -0.0142990
      1.1442700              0.0615890              0.3235720
      0.4203770              1.0601800              0.7435070
SP   1   1.00
      0.1426570              1.0000000              1.0000000
D    1   1.00
      1.5000000              1.0000000
D    1   1.00
      0.3750000              1.0000000
F    1   1.00
      0.7000000              1.0000000
****
}

set {
reference uhf
freeze_core true
e_convergence 10
d_convergence 10
dft_spherical_points 1202
dft_radial_points 99
}

e = energy('b3lyp')

print_out('Grab this energy {0}'.format(e))
--------------------------------------------------------------------------

    Molecular point group: c1

    Geometry (in Bohr), charge = 0, multiplicity = 2:

       Center              X                  Y                   Z               Mass
    ------------   -----------------  -----------------  -----------------  -----------------
         C           -0.323340405379     0.000018610894    -0.000262527640    12.000000000000
         C            0.060102892621    -1.401313347606    -2.425667959940    12.000000000000
         C            0.060710572621     2.802319639094    -0.000147591840    12.000000000000
         C            0.062487261121    -1.401564685606     2.425798058860    12.000000000000
         H            2.090052177821    -1.645977493706    -2.845371643940     1.007825032230
         H           -0.769062837979    -0.388312338406    -4.025531477340     1.007825032230
         H           -0.764869342179    -3.287643005806    -2.350329736140     1.007825032230
         H            2.087710325821     3.288546308094     0.000054343760     1.007825032230
         H           -0.767193929079     3.681319166894     1.676122654960     1.007825032230
         H           -0.764798045779     3.680391630094    -1.675045181540     1.007825032230
         H            2.082910283821    -1.646554170306     2.846484377160     1.007825032230
         H           -0.760367663479    -3.291797108106     2.347768722160     1.007825032230
         H           -0.766952502279    -0.383545882406     4.029182097760     1.007825032230

  Charge       = 0
  Multiplicity = 2
  Basis Set: ANONYMOUS902F937E
    Blend: 6-31G_2DFP_
  Basis Set: (ANONYMOUS902F937E AUX)
    Blend: DEF2-UNIVERSAL-JKFIT

    Orbital Energies [Eh]
    ---------------------

    Alpha Occupied:

       1A    -10.180342     2A    -10.167048     3A    -10.167018
       4A    -10.166978     5A     -0.797767     6A     -0.686248
       7A     -0.686130     8A     -0.530780     9A     -0.441128
      10A     -0.434858    11A     -0.434480    12A     -0.382630
      13A     -0.382567    14A     -0.363612    15A     -0.338164
      16A     -0.337832    17A     -0.168961

    Alpha Virtual:

      18A      0.076069    19A      0.133949    20A      0.134355
      21A      0.142412    22A      0.142839    23A      0.154884
      24A      0.178654    25A      0.178904    26A      0.203548
      27A      0.214804    28A      0.275853    29A      0.276119
      30A      0.398982    31A      0.399472    32A      0.403345
      33A      0.423914    34A      0.424280    35A      0.456592
      36A      0.495235    37A      0.495542    38A      0.512161
      39A      0.513981    40A      0.578630    41A      0.579001
      42A      0.591428    43A      0.591828    44A      0.602581
      45A      0.624716    46A      0.631749    47A      0.636015
      48A      0.636551    49A      0.662986    50A      0.663851
      51A      0.683602    52A      0.684123    53A      0.734995
      54A      0.825150    55A      0.825655    56A      0.853921
      57A      0.914720    58A      0.915329    59A      0.944125
      60A      0.944605    61A      0.961144    62A      0.961451
      63A      1.003454    64A      1.127832    65A      1.128391
      66A      1.142213    67A      1.163141    68A      1.163404
      69A      1.223324    70A      1.274204    71A      1.274754
      72A      1.279374    73A      1.324135    74A      1.324568
      75A      1.355956    76A      1.365754    77A      1.366344
      78A      1.392445    79A      1.403593    80A      1.404520
      81A      1.416241    82A      1.417993    83A      1.427903
      84A      1.491494    85A      1.499069    86A      1.542374
      87A      1.543317    88A      1.574187    89A      1.574709
      90A      1.669826    91A      1.738682    92A      1.740106
      93A      1.768360    94A      1.830263    95A      1.832515
      96A      1.971741    97A      2.017355    98A      2.019233
      99A      2.019801   100A      2.051569   101A      2.053758
     102A      2.738036   103A      2.738932   104A      2.790925
     105A      2.811425   106A      2.889803   107A      2.890074
     108A      2.894967   109A      2.929470   110A      2.929527
     111A      2.958964   112A      2.964064   113A      2.964729
     114A      3.034018   115A      3.070663   116A      3.071838
     117A      3.084447   118A      3.168308   119A      3.169250
     120A      3.180604   121A      3.284947   122A      3.285675
     123A      3.326721   124A      3.327601   125A      3.375635
     126A      3.489831   127A      3.490489   128A      3.514017
     129A      3.525325   130A      3.567936   131A      3.568846
     132A      3.575134   133A      3.665529   134A      3.667276
     135A      3.679636   136A      3.693850   137A      3.694434
     138A      3.776666   139A      3.776919   140A      3.789136
     141A      3.911643   142A      3.912810   143A      4.034426
     144A      4.110641   145A      4.112004   146A      4.147483
     147A      4.148629   148A      4.173324   149A      4.201442
     150A      4.203050   151A      4.204213   152A      4.211029
     153A      4.314929   154A      4.317064   155A      4.358980
     156A      4.423844   157A      4.425091   158A      4.443447
     159A      4.515581   160A      4.518113   161A      4.578152
     162A      4.578371   163A      4.617573   164A      4.709431
     165A      4.773529   166A      4.775691   167A      4.836904
     168A      4.962869   169A      5.002128   170A      5.003782
     171A      5.227543   172A      5.244989   173A      5.249035
     174A      5.353801   175A      5.357304   176A      5.479440

    Beta Occupied:

       1A    -10.167805     2A    -10.167771     3A    -10.167747
       4A    -10.166520     5A     -0.781092     6A     -0.684053
       7A     -0.683931     8A     -0.511751     9A     -0.431234
      10A     -0.430854    11A     -0.421818    12A     -0.376732
      13A     -0.376635    14A     -0.362596    15A     -0.333282
      16A     -0.332961

    Beta Virtual:

      17A     -0.025743    18A      0.077078    19A      0.134834
      20A      0.135253    21A      0.144261    22A      0.144731
      23A      0.163339    24A      0.182312    25A      0.182589
      26A      0.215034    27A      0.218930    28A      0.282200
      29A      0.282468    30A      0.400147    31A      0.400647
      32A      0.419790    33A      0.426726    34A      0.427091
      35A      0.468500    36A      0.497488    37A      0.497812
      38A      0.513896    39A      0.556325    40A      0.584195
      41A      0.584535    42A      0.597574    43A      0.598042
      44A      0.610002    45A      0.628095    46A      0.631916
      47A      0.639309    48A      0.639815    49A      0.666585
      50A      0.667382    51A      0.686265    52A      0.686729
      53A      0.757518    54A      0.830329    55A      0.830812
      56A      0.855275    57A      0.922714    58A      0.923277
      59A      0.945962    60A      0.953531    61A      0.966417
      62A      0.966791    63A      1.008695    64A      1.131868
      65A      1.132412    66A      1.155588    67A      1.168187
      68A      1.168509    69A      1.232296    70A      1.279779
      71A      1.280369    72A      1.285131    73A      1.329125
      74A      1.329555    75A      1.365367    76A      1.371060
      77A      1.371527    78A      1.393506    79A      1.407013
      80A      1.408032    81A      1.421319    82A      1.423016
      83A      1.428172    84A      1.492544    85A      1.509512
      86A      1.546795    87A      1.547712    88A      1.582067
      89A      1.582571    90A      1.674673    91A      1.744434
      92A      1.745888    93A      1.779130    94A      1.834110
      95A      1.836379    96A      1.972603    97A      2.024663
      98A      2.026196    99A      2.039687   100A      2.058318
     101A      2.060458   102A      2.746376   103A      2.747265
     104A      2.811837   105A      2.816060   106A      2.902441
     107A      2.902836   108A      2.924649   109A      2.931934
     110A      2.932021   111A      2.960040   112A      2.968587
     113A      2.969286   114A      3.041950   115A      3.080441
     116A      3.081752   117A      3.086393   118A      3.184006
     119A      3.185032   120A      3.188307   121A      3.289732
     122A      3.290488   123A      3.330484   124A      3.331447
     125A      3.383452   126A      3.492591   127A      3.493191
     128A      3.512383   129A      3.528371   130A      3.574973
     131A      3.581188   132A      3.582292   133A      3.670298
     134A      3.672004   135A      3.692943   136A      3.725591
     137A      3.725939   138A      3.781164   139A      3.781486
     140A      3.817671   141A      3.921390   142A      3.922695
     143A      4.045314   144A      4.117298   145A      4.118981
     146A      4.154597   147A      4.155955   148A      4.187348
     149A      4.207625   150A      4.210049   151A      4.210882
     152A      4.215512   153A      4.322395   154A      4.324479
     155A      4.362342   156A      4.432075   157A      4.433285
     158A      4.446333   159A      4.523363   160A      4.525910
     161A      4.588739   162A      4.588984   163A      4.624768
     164A      4.719775   165A      4.780507   166A      4.782621
     167A      4.839821   168A      4.967663   169A      5.006185
     170A      5.007804   171A      5.233144   172A      5.246861
     173A      5.250850   174A      5.360280   175A      5.363779
     176A      5.481763

    Final Occupation by Irrep:
              A
    DOCC [    16 ]
    SOCC [     1 ]

  @DF-UKS Final Energy:  -157.81305034797808

   => Energetics <=

    Nuclear Repulsion Energy =            125.3946720143022162
    One-Electron Energy =                -458.7489498367499436
    Two-Electron Energy =                 195.8483766334575193
    DFT Exchange-Correlation Energy =     -20.3071491589878796
    Empirical Dispersion Energy =           0.0000000000000000
    VV10 Nonlocal Energy =                  0.0000000000000000
    Total Energy =                       -157.8130503479780771

  UHF NO Occupations:
  HONO-2 :   15  A 1.9996009
  HONO-1 :   16  A 1.9989804
  HONO-0 :   17  A 1.0000000
  LUNO+0 :   18  A 0.0010196
  LUNO+1 :   19  A 0.0003991
  LUNO+2 :   20  A 0.0001976
  LUNO+3 :   21  A 0.0001975

Computation Completed

Properties will be evaluated at   0.000000,   0.000000,   0.000000 [a0]

Properties computed using the SCF density matrix

  Nuclear Dipole Moment: [e a0]
     X:     0.8272      Y:     0.0032      Z:     0.0017

  Electronic Dipole Moment: [e a0]
     X:    -0.7493      Y:    -0.0049      Z:    -0.0023

  Dipole Moment: [e a0]
     X:     0.0779      Y:    -0.0017      Z:    -0.0007     Total:     0.0779

  Dipole Moment: [D]
     X:     0.1980      Y:    -0.0044      Z:    -0.0017     Total:     0.1981

*** tstop() called on n031 at Fri Nov  5 14:04:51 2021
Module time:
	user time   =     772.77 seconds =      12.88 minutes
	system time =      15.06 seconds =       0.25 minutes
	total time  =        198 seconds =       3.30 minutes
Total time:
	user time   =     772.77 seconds =      12.88 minutes
	system time =      15.06 seconds =       0.25 minutes
	total time  =        198 seconds =       3.30 minutes
Grab this energy -157.81305034797808
    Psi4 stopped on: Friday, 05 November 2021 02:04PM
    Psi4 wall time for execution: 0:03:17.92

*** Psi4 exiting successfully. Buy a developer a beer!
