                               Psi4 1.4a2.dev629

  ==> Input File <==

--------------------------------------------------------------------------
import os
memory 14 GB

molecule {
 C   -0.3251422881   -0.0000022108   -0.0000000000
 C    0.0604889779   -1.4006770326   -2.4260332159
 C    0.0603692512    2.8013583604   -0.0000000000
 C    0.0604889779   -1.4006770326    2.4260332159
 H    2.0904087138   -1.6408959750   -2.8418949902
 H   -0.7665154433   -0.3880089135   -4.0295663719
 H   -0.7666784187   -3.2956439476   -2.3508471759
 H    2.0902699344    3.2816993282    0.0000000000
 H   -0.7667562168    3.6836859729    1.6787262310
 H   -0.7667562168    3.6836859729   -1.6787262310
 H    2.0904087138   -1.6408959750    2.8418949902
 H   -0.7666784187   -3.2956439476    2.3508471759
 H   -0.7665154433   -0.3880089135    4.0295663719
units bohr
0 2
}

basis {

assign 6-31g_2dfp_

[ 6-31g_2dfp_ ]

spherical

!----------------------------------------------------------------------
! Basis Set Exchange
! Version v0.8.13
! https://www.basissetexchange.org
!----------------------------------------------------------------------
!   Basis set: 6-31G(2df,p)
! Description: 6-31G(2df,p)
!        Role: orbital
!     Version: 0  (Data from the original Basis Set Exchange)
!----------------------------------------------------------------------

****
H     0
S    3   1.00
     18.7311370              0.03349460
      2.8253937              0.23472695
      0.6401217              0.81375733
S    1   1.00
      0.1612778              1.00000000
P    1   1.00
      1.5000000              1.0000000
P    1   1.00
      0.3750000              1.0000000
****
B     0
S    6   1.00
   2068.8823000              0.0018663
    310.6495700              0.0142515
     70.6830330              0.0695516
     19.8610800              0.2325729
      6.2993048              0.4670787
      2.1270270              0.3634314
SP   3   1.00
      4.7279710             -0.1303938              0.0745976
      1.1903377             -0.1307889              0.3078467
      0.3594117              1.1309444              0.7434568
SP   1   1.00
      0.1267512              1.0000000              1.0000000
D    1   1.00
      0.8020000              1.0000000
D    1   1.00
      0.2005000              1.0000000
F    1   1.00
      0.5000000              1.0000000
****
C     0
S    6   1.00
   3047.5249000              0.0018347
    457.3695100              0.0140373
    103.9486900              0.0688426
     29.2101550              0.2321844
      9.2866630              0.4679413
      3.1639270              0.3623120
SP   3   1.00
      7.8682724             -0.1193324              0.0689991
      1.8812885             -0.1608542              0.3164240
      0.5442493              1.1434564              0.7443083
SP   1   1.00
      0.1687144              1.0000000              1.0000000
D    1   1.00
      1.2520000              1.0000000
D    1   1.00
      0.3130000              1.0000000
F    1   1.00
      0.8000000              1.0000000
****
N     0
S    6   1.00
   4173.5110000              0.0018348
    627.4579000              0.0139950
    142.9021000              0.0685870
     40.2343300              0.2322410
     12.8202100              0.4690700
      4.3904370              0.3604550
SP   3   1.00
     11.6263580             -0.1149610              0.0675800
      2.7162800             -0.1691180              0.3239070
      0.7722180              1.1458520              0.7408950
SP   1   1.00
      0.2120313              1.0000000              1.0000000
D    1   1.00
      1.8260000              1.0000000
D    1   1.00
      0.4565000              1.0000000
F    1   1.00
      1.0000000              1.0000000
****
O     0
S    6   1.00
   5484.6717000              0.0018311
    825.2349500              0.0139501
    188.0469600              0.0684451
     52.9645000              0.2327143
     16.8975700              0.4701930
      5.7996353              0.3585209
SP   3   1.00
     15.5396160             -0.1107775              0.0708743
      3.5999336             -0.1480263              0.3397528
      1.0137618              1.1307670              0.7271586
SP   1   1.00
      0.2700058              1.0000000              1.0000000
D    1   1.00
      2.5840000              1.0000000
D    1   1.00
      0.6460000              1.0000000
F    1   1.00
      1.4000000              1.0000000
****
F     0
S    6   1.00
   7001.7130900              0.0018196169
   1051.3660900              0.0139160796
    239.2856900              0.0684053245
     67.3974453              0.233185760
     21.5199573              0.471267439
      7.40310130             0.356618546
SP   3   1.00
     20.8479528             -0.108506975            0.0716287243
      4.80830834            -0.146451658            0.3459121030
      1.34406986             1.128688580            0.7224699570
SP   1   1.00
      0.358151393            1.0000000              1.0000000
D    1   1.00
      3.5000000              1.0000000
D    1   1.00
      0.8750000              1.0000000
F    1   1.00
      1.8500000              1.0000000
****
Al     0
S    6   1.00
  13983.1000000              0.00194267
   2098.7500000              0.0148599
    477.7050000              0.0728494
    134.3600000              0.2468300
     42.8709000              0.4872580
     14.5189000              0.3234960
SP   6   1.00
    239.6680000             -0.00292619             0.00460285
     57.4419000             -0.0374080              0.0331990
     18.2859000             -0.1144870              0.1362820
      6.5991400              0.1156350              0.3304760
      2.4904900              0.6125950              0.4491460
      0.9445400              0.3937990              0.2657040
SP   3   1.00
      1.2779000             -0.2276060             -0.0175130
      0.3975900              0.00144583             0.2445330
      0.1600950              1.0927900              0.8049340
SP   1   1.00
      0.0556577              1.0000000              1.0000000
D    1   1.00
      0.6500000              1.0000000
D    1   1.00
      0.1625000              1.0000000
F    1   1.00
      0.2500000              1.0000000
****
Si     0
S    6   1.00
  16115.9000000              0.00195948
   2425.5800000              0.01492880
    553.8670000              0.07284780
    156.3400000              0.24613000
     50.0683000              0.48591400
     17.0178000              0.32500200
SP   6   1.00
    292.7180000             -0.00278094             0.00443826
     69.8731000             -0.03571460             0.03266790
     22.3363000             -0.11498500             0.13472100
      8.1503900              0.09356340             0.32867800
      3.1345800              0.60301700             0.44964000
      1.2254300              0.41895900             0.26137200
SP   3   1.00
      1.7273800             -0.24463000            -0.01779510
      0.5729220              0.00431572             0.25353900
      0.2221920              1.09818000             0.80066900
SP   1   1.00
      0.0778369              1.00000000             1.00000000
D    1   1.00
      0.9000000              1.0000000
D    1   1.00
      0.2250000              1.0000000
F    1   1.00
      0.3200000              1.0000000
****
P     0
S    6   1.00
  19413.3000000              0.0018516
   2909.4200000              0.0142062
    661.3640000              0.0699995
    185.7590000              0.2400790
     59.1943000              0.4847620
     20.0310000              0.3352000
SP   6   1.00
    339.4780000             -0.00278217             0.00456462
     81.0101000             -0.0360499              0.03369360
     25.8780000             -0.1166310              0.13975500
      9.4522100              0.0968328              0.33936200
      3.6656600              0.6144180              0.45092100
      1.4674600              0.4037980              0.23858600
SP   3   1.00
      2.1562300             -0.2529230             -0.01776530
      0.7489970              0.0328517              0.27405800
      0.2831450              1.0812500              0.78542100
SP   1   1.00
      0.0998317              1.0000000              1.00000000
D    1   1.00
      1.1000000              1.0000000
D    1   1.00
      0.2750000              1.0000000
F    1   1.00
      0.4500000              1.0000000
****
S     0
S    6   1.00
  21917.1000000              0.0018690
   3301.4900000              0.0142300
    754.1460000              0.0696960
    212.7110000              0.2384870
     67.9896000              0.4833070
     23.0515000              0.3380740
SP   6   1.00
    423.7350000             -0.0023767              0.0040610
    100.7100000             -0.0316930              0.0306810
     32.1599000             -0.1133170              0.1304520
     11.8079000              0.0560900              0.3272050
      4.6311000              0.5922550              0.4528510
      1.8702500              0.4550060              0.2560420
SP   3   1.00
      2.6158400             -0.2503740             -0.0145110
      0.9221670              0.0669570              0.3102630
      0.3412870              1.0545100              0.7544830
SP   1   1.00
      0.1171670              1.0000000              1.0000000
D    1   1.00
      1.3000000              1.0000000
D    1   1.00
      0.3250000              1.0000000
F    1   1.00
      0.5500000              1.0000000
****
Cl     0
S    6   1.00
  25180.1000000              0.0018330
   3780.3500000              0.0140340
    860.4740000              0.0690970
    242.1450000              0.2374520
     77.3349000              0.4830340
     26.2470000              0.3398560
SP   6   1.00
    491.7650000             -0.0022974              0.0039894
    116.9840000             -0.0307140              0.0303180
     37.4153000             -0.1125280              0.1298800
     13.7834000              0.0450160              0.3279510
      5.4521500              0.5893530              0.4535270
      2.2258800              0.4652060              0.2521540
SP   3   1.00
      3.1864900             -0.2518300             -0.0142990
      1.1442700              0.0615890              0.3235720
      0.4203770              1.0601800              0.7435070
SP   1   1.00
      0.1426570              1.0000000              1.0000000
D    1   1.00
      1.5000000              1.0000000
D    1   1.00
      0.3750000              1.0000000
F    1   1.00
      0.7000000              1.0000000
****
}

set {
reference uhf
freeze_core true
e_convergence 10
d_convergence 10
dft_spherical_points 1202
dft_radial_points 99
}

e = energy('b3lyp')

print_out('Grab this energy {0}'.format(e))
--------------------------------------------------------------------------

    Molecular point group: cs

    Geometry (in Bohr), charge = 0, multiplicity = 2:

       Center              X                  Y                   Z               Mass
    ------------   -----------------  -----------------  -----------------  -----------------
         C           -0.324419029515    -0.000002182905     0.000000000000    12.000000000000
         C            0.061212236485    -1.400677004705    -2.426033215900    12.000000000000
         C            0.061092509785     2.801358388295     0.000000000000    12.000000000000
         C            0.061212236485    -1.400677004705     2.426033215900    12.000000000000
         H            2.091131972385    -1.640895947105    -2.841894990200     1.007825032230
         H           -0.765792184715    -0.388008885605    -4.029566371900     1.007825032230
         H           -0.765955160115    -3.295643919705    -2.350847175900     1.007825032230
         H            2.090993192985     3.281699356095     0.000000000000     1.007825032230
         H           -0.766032958215     3.683686000795     1.678726231000     1.007825032230
         H           -0.766032958215     3.683686000795    -1.678726231000     1.007825032230
         H            2.091131972385    -1.640895947105     2.841894990200     1.007825032230
         H           -0.765955160115    -3.295643919705     2.350847175900     1.007825032230
         H           -0.765792184715    -0.388008885605     4.029566371900     1.007825032230

  Charge       = 0
  Multiplicity = 2
  Basis Set: ANONYMOUS757665AF
    Blend: 6-31G_2DFP_
  Basis Set: (ANONYMOUS757665AF AUX)
    Blend: DEF2-UNIVERSAL-JKFIT

    Orbital Energies [Eh]
    ---------------------

    Alpha Occupied:

       1Ap   -10.180423     2Ap   -10.167612     1App  -10.167612
       3Ap   -10.167566     4Ap    -0.797742     5Ap    -0.685790
       2App   -0.685790     6Ap    -0.530453     7Ap    -0.441193
       3App   -0.434322     8Ap    -0.434321     9Ap    -0.382494
       4App   -0.382492     5App   -0.363158     6App   -0.337970
      10Ap    -0.337970    11Ap    -0.168933

    Alpha Virtual:

      12Ap     0.075704    13Ap     0.133836     7App    0.133837
      14Ap     0.142150     8App    0.142150    15Ap     0.154374
      16Ap     0.178309     9App    0.178309    17Ap     0.203525
      10App    0.214126    11App    0.275922    18Ap     0.275924
      19Ap     0.399055    12App    0.399059    20Ap     0.403210
      13App    0.423975    21Ap     0.423976    22Ap     0.456224
      23Ap     0.495188    14App    0.495189    15App    0.512081
      24Ap     0.513790    25Ap     0.578316    16App    0.578324
      17App    0.591231    26Ap     0.591233    27Ap     0.602152
      28Ap     0.623728    18App    0.630827    19App    0.635592
      29Ap     0.635596    30Ap     0.662801    20App    0.662801
      31Ap     0.683391    21App    0.683392    32Ap     0.734599
      22App    0.824687    33Ap     0.824690    23App    0.853058
      24App    0.914170    34Ap     0.914176    25App    0.943278
      35Ap     0.944620    26App    0.960909    36Ap     0.960925
      37Ap     1.002623    38Ap     1.127229    27App    1.127242
      39Ap     1.141943    40Ap     1.162457    28App    1.162470
      41Ap     1.222962    42Ap     1.273978    29App    1.273981
      43Ap     1.279588    30App    1.323362    44Ap     1.323364
      45Ap     1.355554    31App    1.365227    46Ap     1.365231
      32App    1.392061    47Ap     1.403291    33App    1.403293
      34App    1.416320    48Ap     1.416326    35App    1.426540
      36App    1.490007    49Ap     1.498034    37App    1.542244
      50Ap     1.542247    51Ap     1.574912    38App    1.574915
      52Ap     1.667601    53Ap     1.738119    39App    1.738131
      54Ap     1.766953    40App    1.828643    55Ap     1.828643
      41App    1.970002    56Ap     2.016999    42App    2.017002
      57Ap     2.017431    58Ap     2.051078    43App    2.051078
      44App    2.737926    59Ap     2.737927    60Ap     2.790484
      45App    2.810405    61Ap     2.889225    46App    2.889231
      62Ap     2.894618    63Ap     2.928655    47App    2.928663
      48App    2.958316    64Ap     2.963672    49App    2.963686
      65Ap     3.032623    50App    3.070806    66Ap     3.070820
      51App    3.083786    67Ap     3.169514    52App    3.169521
      68Ap     3.180136    53App    3.285753    69Ap     3.285754
      70Ap     3.326563    54App    3.326569    71Ap     3.376593
      55App    3.491626    72Ap     3.491646    56App    3.514044
      73Ap     3.525788    57App    3.567677    74Ap     3.567698
      58App    3.575999    75Ap     3.665695    59App    3.665704
      76Ap     3.676732    60App    3.693796    77Ap     3.693812
      78Ap     3.775093    61App    3.775119    79Ap     3.789864
      80Ap     3.911183    62App    3.911189    81Ap     4.033220
      82Ap     4.108763    63App    4.108767    83Ap     4.145059
      64App    4.145068    84Ap     4.170346    65App    4.200872
      85Ap     4.200875    86Ap     4.201651    66App    4.206672
      87Ap     4.313415    67App    4.313435    68App    4.355389
      88Ap     4.422382    69App    4.422385    70App    4.440414
      71App    4.513582    89Ap     4.513584    72App    4.575827
      90Ap     4.575840    91Ap     4.616284    92Ap     4.707168
      93Ap     4.772445    73App    4.772453    74App    4.835556
      94Ap     4.961577    75App    5.001971    95Ap     5.001983
      96Ap     5.222399    97Ap     5.241574    76App    5.241574
      98Ap     5.350329    77App    5.350342    78App    5.475866

    Beta Occupied:

       1Ap   -10.168368     1App  -10.168367     2Ap   -10.168337
       3Ap   -10.166609     4Ap    -0.781036     5Ap    -0.683597
       2App   -0.683596     6Ap    -0.511486     3App   -0.430692
       7Ap    -0.430692     8Ap    -0.421849     9Ap    -0.376580
       4App   -0.376579     5App   -0.362145     6App   -0.333099
      10Ap    -0.333099

    Beta Virtual:

      11Ap    -0.025809    12Ap     0.076721    13Ap     0.134703
       7App    0.134704    14Ap     0.144037     8App    0.144038
      15Ap     0.162848    16Ap     0.181996     9App    0.181997
      10App    0.214355    17Ap     0.218927    11App    0.282272
      18Ap     0.282274    19Ap     0.400224    12App    0.400228
      20Ap     0.419621    13App    0.426790    21Ap     0.426791
      22Ap     0.468072    23Ap     0.497435    14App    0.497436
      15App    0.513816    24Ap     0.556162    25Ap     0.583829
      16App    0.583837    17App    0.597415    26Ap     0.597416
      27Ap     0.609570    28Ap     0.627113    18App    0.630984
      19App    0.638907    29Ap     0.638911    30Ap     0.666337
      20App    0.666337    31Ap     0.686081    21App    0.686082
      32Ap     0.757134    22App    0.829843    33Ap     0.829845
      23App    0.854432    24App    0.922110    34Ap     0.922116
      25App    0.945116    35Ap     0.953445    26App    0.966249
      36Ap     0.966265    37Ap     1.007823    38Ap     1.131270
      27App    1.131281    39Ap     1.155551    40Ap     1.167508
      28App    1.167520    41Ap     1.231848    42Ap     1.279568
      29App    1.279572    43Ap     1.285288    30App    1.328287
      44Ap     1.328288    45Ap     1.365007    31App    1.370478
      46Ap     1.370482    32App    1.393107    47Ap     1.406744
      33App    1.406747    34App    1.421423    48Ap     1.421430
      35App    1.426816    36App    1.491061    49Ap     1.508500
      37App    1.546787    50Ap     1.546788    51Ap     1.582669
      38App    1.582669    52Ap     1.672373    53Ap     1.743872
      39App    1.743884    54Ap     1.777775    40App    1.832530
      55Ap     1.832531    41App    1.970857    56Ap     2.023389
      42App    2.023393    57Ap     2.038810    58Ap     2.057808
      43App    2.057809    44App    2.746239    59Ap     2.746240
      45App    2.810809    60Ap     2.815589    61Ap     2.901934
      46App    2.901939    62Ap     2.924305    63Ap     2.931169
      47App    2.931178    48App    2.959369    64Ap     2.968139
      49App    2.968153    65Ap     3.040647    50App    3.080672
      66Ap     3.080684    51App    3.085595    67Ap     3.185324
      52App    3.185329    68Ap     3.187737    69Ap     3.290631
      53App    3.290631    70Ap     3.330384    54App    3.330389
      71Ap     3.384415    55App    3.494244    72Ap     3.494263
      56App    3.512394    73Ap     3.528854    57App    3.575878
      58App    3.581054    74Ap     3.581075    75Ap     3.670261
      59App    3.670272    76Ap     3.690023    60App    3.725425
      77Ap     3.725441    78Ap     3.779570    61App    3.779595
      79Ap     3.818356    80Ap     3.921060    62App    3.921067
      81Ap     4.043930    82Ap     4.115412    63App    4.115414
      83Ap     4.152381    64App    4.152391    84Ap     4.184583
      65App    4.206849    85Ap     4.206853    86Ap     4.209651
      66App    4.211138    87Ap     4.320921    67App    4.320941
      68App    4.358738    88Ap     4.430622    69App    4.430625
      70App    4.443334    71App    4.521397    89Ap     4.521398
      72App    4.586440    90Ap     4.586452    91Ap     4.623564
      92Ap     4.717409    93Ap     4.779416    73App    4.779424
      74App    4.838464    94Ap     4.966401    75App    5.006014
      95Ap     5.006026    96Ap     5.228155    76App    5.243360
      97Ap     5.243360    98Ap     5.356835    77App    5.356849
      78App    5.478194

    Final Occupation by Irrep:
             Ap   App
    DOCC [    10,    6 ]
    SOCC [     1,    0 ]

  @DF-UKS Final Energy:  -157.81308189830241

   => Energetics <=

    Nuclear Repulsion Energy =            125.3456860893938511
    One-Electron Energy =                -458.6554442945511028
    Two-Electron Energy =                 195.7994536708132784
    DFT Exchange-Correlation Energy =     -20.3027773639584126
    Empirical Dispersion Energy =           0.0000000000000000
    VV10 Nonlocal Energy =                  0.0000000000000000
    Total Energy =                       -157.8130818983024142

  UHF NO Occupations:
  HONO-2 :    9 Ap 1.9995997
  HONO-1 :   10 Ap 1.9989792
  HONO-0 :   11 Ap 1.0000000
  LUNO+0 :   12 Ap 0.0010208
  LUNO+1 :   13 Ap 0.0004003
  LUNO+2 :    7App 0.0001975
  LUNO+3 :   14 Ap 0.0001975

Computation Completed

Properties will be evaluated at   0.000000,   0.000000,   0.000000 [a0]

Properties computed using the SCF density matrix

  Nuclear Dipole Moment: [e a0]
     X:     0.8323      Y:    -0.0000      Z:     0.0000

  Electronic Dipole Moment: [e a0]
     X:    -0.7546      Y:     0.0000      Z:     0.0000

  Dipole Moment: [e a0]
     X:     0.0777      Y:     0.0000      Z:     0.0000     Total:     0.0777

  Dipole Moment: [D]
     X:     0.1975      Y:     0.0000      Z:     0.0000     Total:     0.1975

*** tstop() called on n079 at Fri Nov  5 14:59:18 2021
Module time:
	user time   =     596.40 seconds =       9.94 minutes
	system time =       5.60 seconds =       0.09 minutes
	total time  =        151 seconds =       2.52 minutes
Total time:
	user time   =     596.40 seconds =       9.94 minutes
	system time =       5.60 seconds =       0.09 minutes
	total time  =        151 seconds =       2.52 minutes
Grab this energy -157.8130818983024
    Psi4 stopped on: Friday, 05 November 2021 02:59PM
    Psi4 wall time for execution: 0:02:31.32

*** Psi4 exiting successfully. Buy a developer a beer!
