                               Psi4 1.4a2.dev629

  ==> Input File <==

--------------------------------------------------------------------------
import os
memory 14 GB

molecule {
 C   -0.3233411218   -0.0000028334    0.0007537723
 C    0.0641080927   -1.4006660997   -2.4263963458
 C    0.0610208932    2.8017584504   -0.0003841874
 C    0.0581726359   -1.4010901487    2.4263619871
 H    2.0831924225   -1.6444887841   -2.8477029105
 H   -0.7649777207   -0.3860745102   -4.0269480970
 H   -0.7638042421   -3.2939741658   -2.3474862580
 H    2.0867999241    3.2880999979    0.0004174123
 H   -0.7643107559    3.6797442932    1.6763638505
 H   -0.7669800363    3.6807625308   -1.6766365161
 H    2.0906847128   -1.6436981868    2.8471672913
 H   -0.7673337492   -3.2900254765    2.3504816844
 H   -0.7658389319   -0.3903693808    4.0240083169
units bohr
0 2
}

basis {

assign 6-31g_2dfp_

[ 6-31g_2dfp_ ]

spherical

!----------------------------------------------------------------------
! Basis Set Exchange
! Version v0.8.13
! https://www.basissetexchange.org
!----------------------------------------------------------------------
!   Basis set: 6-31G(2df,p)
! Description: 6-31G(2df,p)
!        Role: orbital
!     Version: 0  (Data from the original Basis Set Exchange)
!----------------------------------------------------------------------

****
H     0
S    3   1.00
     18.7311370              0.03349460
      2.8253937              0.23472695
      0.6401217              0.81375733
S    1   1.00
      0.1612778              1.00000000
P    1   1.00
      1.5000000              1.0000000
P    1   1.00
      0.3750000              1.0000000
****
B     0
S    6   1.00
   2068.8823000              0.0018663
    310.6495700              0.0142515
     70.6830330              0.0695516
     19.8610800              0.2325729
      6.2993048              0.4670787
      2.1270270              0.3634314
SP   3   1.00
      4.7279710             -0.1303938              0.0745976
      1.1903377             -0.1307889              0.3078467
      0.3594117              1.1309444              0.7434568
SP   1   1.00
      0.1267512              1.0000000              1.0000000
D    1   1.00
      0.8020000              1.0000000
D    1   1.00
      0.2005000              1.0000000
F    1   1.00
      0.5000000              1.0000000
****
C     0
S    6   1.00
   3047.5249000              0.0018347
    457.3695100              0.0140373
    103.9486900              0.0688426
     29.2101550              0.2321844
      9.2866630              0.4679413
      3.1639270              0.3623120
SP   3   1.00
      7.8682724             -0.1193324              0.0689991
      1.8812885             -0.1608542              0.3164240
      0.5442493              1.1434564              0.7443083
SP   1   1.00
      0.1687144              1.0000000              1.0000000
D    1   1.00
      1.2520000              1.0000000
D    1   1.00
      0.3130000              1.0000000
F    1   1.00
      0.8000000              1.0000000
****
N     0
S    6   1.00
   4173.5110000              0.0018348
    627.4579000              0.0139950
    142.9021000              0.0685870
     40.2343300              0.2322410
     12.8202100              0.4690700
      4.3904370              0.3604550
SP   3   1.00
     11.6263580             -0.1149610              0.0675800
      2.7162800             -0.1691180              0.3239070
      0.7722180              1.1458520              0.7408950
SP   1   1.00
      0.2120313              1.0000000              1.0000000
D    1   1.00
      1.8260000              1.0000000
D    1   1.00
      0.4565000              1.0000000
F    1   1.00
      1.0000000              1.0000000
****
O     0
S    6   1.00
   5484.6717000              0.0018311
    825.2349500              0.0139501
    188.0469600              0.0684451
     52.9645000              0.2327143
     16.8975700              0.4701930
      5.7996353              0.3585209
SP   3   1.00
     15.5396160             -0.1107775              0.0708743
      3.5999336             -0.1480263              0.3397528
      1.0137618              1.1307670              0.7271586
SP   1   1.00
      0.2700058              1.0000000              1.0000000
D    1   1.00
      2.5840000              1.0000000
D    1   1.00
      0.6460000              1.0000000
F    1   1.00
      1.4000000              1.0000000
****
F     0
S    6   1.00
   7001.7130900              0.0018196169
   1051.3660900              0.0139160796
    239.2856900              0.0684053245
     67.3974453              0.233185760
     21.5199573              0.471267439
      7.40310130             0.356618546
SP   3   1.00
     20.8479528             -0.108506975            0.0716287243
      4.80830834            -0.146451658            0.3459121030
      1.34406986             1.128688580            0.7224699570
SP   1   1.00
      0.358151393            1.0000000              1.0000000
D    1   1.00
      3.5000000              1.0000000
D    1   1.00
      0.8750000              1.0000000
F    1   1.00
      1.8500000              1.0000000
****
Al     0
S    6   1.00
  13983.1000000              0.00194267
   2098.7500000              0.0148599
    477.7050000              0.0728494
    134.3600000              0.2468300
     42.8709000              0.4872580
     14.5189000              0.3234960
SP   6   1.00
    239.6680000             -0.00292619             0.00460285
     57.4419000             -0.0374080              0.0331990
     18.2859000             -0.1144870              0.1362820
      6.5991400              0.1156350              0.3304760
      2.4904900              0.6125950              0.4491460
      0.9445400              0.3937990              0.2657040
SP   3   1.00
      1.2779000             -0.2276060             -0.0175130
      0.3975900              0.00144583             0.2445330
      0.1600950              1.0927900              0.8049340
SP   1   1.00
      0.0556577              1.0000000              1.0000000
D    1   1.00
      0.6500000              1.0000000
D    1   1.00
      0.1625000              1.0000000
F    1   1.00
      0.2500000              1.0000000
****
Si     0
S    6   1.00
  16115.9000000              0.00195948
   2425.5800000              0.01492880
    553.8670000              0.07284780
    156.3400000              0.24613000
     50.0683000              0.48591400
     17.0178000              0.32500200
SP   6   1.00
    292.7180000             -0.00278094             0.00443826
     69.8731000             -0.03571460             0.03266790
     22.3363000             -0.11498500             0.13472100
      8.1503900              0.09356340             0.32867800
      3.1345800              0.60301700             0.44964000
      1.2254300              0.41895900             0.26137200
SP   3   1.00
      1.7273800             -0.24463000            -0.01779510
      0.5729220              0.00431572             0.25353900
      0.2221920              1.09818000             0.80066900
SP   1   1.00
      0.0778369              1.00000000             1.00000000
D    1   1.00
      0.9000000              1.0000000
D    1   1.00
      0.2250000              1.0000000
F    1   1.00
      0.3200000              1.0000000
****
P     0
S    6   1.00
  19413.3000000              0.0018516
   2909.4200000              0.0142062
    661.3640000              0.0699995
    185.7590000              0.2400790
     59.1943000              0.4847620
     20.0310000              0.3352000
SP   6   1.00
    339.4780000             -0.00278217             0.00456462
     81.0101000             -0.0360499              0.03369360
     25.8780000             -0.1166310              0.13975500
      9.4522100              0.0968328              0.33936200
      3.6656600              0.6144180              0.45092100
      1.4674600              0.4037980              0.23858600
SP   3   1.00
      2.1562300             -0.2529230             -0.01776530
      0.7489970              0.0328517              0.27405800
      0.2831450              1.0812500              0.78542100
SP   1   1.00
      0.0998317              1.0000000              1.00000000
D    1   1.00
      1.1000000              1.0000000
D    1   1.00
      0.2750000              1.0000000
F    1   1.00
      0.4500000              1.0000000
****
S     0
S    6   1.00
  21917.1000000              0.0018690
   3301.4900000              0.0142300
    754.1460000              0.0696960
    212.7110000              0.2384870
     67.9896000              0.4833070
     23.0515000              0.3380740
SP   6   1.00
    423.7350000             -0.0023767              0.0040610
    100.7100000             -0.0316930              0.0306810
     32.1599000             -0.1133170              0.1304520
     11.8079000              0.0560900              0.3272050
      4.6311000              0.5922550              0.4528510
      1.8702500              0.4550060              0.2560420
SP   3   1.00
      2.6158400             -0.2503740             -0.0145110
      0.9221670              0.0669570              0.3102630
      0.3412870              1.0545100              0.7544830
SP   1   1.00
      0.1171670              1.0000000              1.0000000
D    1   1.00
      1.3000000              1.0000000
D    1   1.00
      0.3250000              1.0000000
F    1   1.00
      0.5500000              1.0000000
****
Cl     0
S    6   1.00
  25180.1000000              0.0018330
   3780.3500000              0.0140340
    860.4740000              0.0690970
    242.1450000              0.2374520
     77.3349000              0.4830340
     26.2470000              0.3398560
SP   6   1.00
    491.7650000             -0.0022974              0.0039894
    116.9840000             -0.0307140              0.0303180
     37.4153000             -0.1125280              0.1298800
     13.7834000              0.0450160              0.3279510
      5.4521500              0.5893530              0.4535270
      2.2258800              0.4652060              0.2521540
SP   3   1.00
      3.1864900             -0.2518300             -0.0142990
      1.1442700              0.0615890              0.3235720
      0.4203770              1.0601800              0.7435070
SP   1   1.00
      0.1426570              1.0000000              1.0000000
D    1   1.00
      1.5000000              1.0000000
D    1   1.00
      0.3750000              1.0000000
F    1   1.00
      0.7000000              1.0000000
****
}

set {
reference uhf
freeze_core true
e_convergence 10
d_convergence 10
dft_spherical_points 1202
dft_radial_points 99
}

e = energy('b3lyp')

print_out('Grab this energy {0}'.format(e))
--------------------------------------------------------------------------

    Molecular point group: c1

    Geometry (in Bohr), charge = 0, multiplicity = 2:

       Center              X                  Y                   Z               Mass
    ------------   -----------------  -----------------  -----------------  -----------------
         C           -0.323341215185    -0.000002282424     0.000689205319    12.000000000000
         C            0.064107999315    -1.400665548724    -2.426460912781    12.000000000000
         C            0.061020799815     2.801759001376    -0.000448754381    12.000000000000
         C            0.058172542515    -1.401089597724     2.426297420119    12.000000000000
         H            2.083192329115    -1.644488233124    -2.847767477481     1.007825032230
         H           -0.764977814085    -0.386073959224    -4.027012663981     1.007825032230
         H           -0.763804335485    -3.293973614824    -2.347550824981     1.007825032230
         H            2.086799830715     3.288100548876     0.000352845319     1.007825032230
         H           -0.764310849285     3.679744844176     1.676299283519     1.007825032230
         H           -0.766980129685     3.680763081776    -1.676701083081     1.007825032230
         H            2.090684619415    -1.643697635824     2.847102724319     1.007825032230
         H           -0.767333842585    -3.290024925524     2.350417117419     1.007825032230
         H           -0.765839025285    -0.390368829824     4.023943749919     1.007825032230

  Charge       = 0
  Multiplicity = 2
  Basis Set: ANONYMOUS59E4389D
    Blend: 6-31G_2DFP_
  Basis Set: (ANONYMOUS59E4389D AUX)
    Blend: DEF2-UNIVERSAL-JKFIT

    Orbital Energies [Eh]
    ---------------------

    Alpha Occupied:

       1A    -10.180343     2A    -10.167071     3A    -10.167018
       4A    -10.166957     5A     -0.797766     6A     -0.686221
       7A     -0.686156     8A     -0.530779     9A     -0.441133
      10A     -0.434791    11A     -0.434545    12A     -0.382772
      13A     -0.382424    14A     -0.363612    15A     -0.338116
      16A     -0.337882    17A     -0.168961

    Alpha Virtual:

      18A      0.076070    19A      0.133953    20A      0.134353
      21A      0.142500    22A      0.142748    23A      0.154882
      24A      0.178582    25A      0.178980    26A      0.203549
      27A      0.214803    28A      0.275855    29A      0.276117
      30A      0.399034    31A      0.399415    32A      0.403348
      33A      0.424060    34A      0.424134    35A      0.456591
      36A      0.495216    37A      0.495562    38A      0.512161
      39A      0.513981    40A      0.578554    41A      0.579075
      42A      0.591355    43A      0.591892    44A      0.602590
      45A      0.624761    46A      0.631745    47A      0.636050
      48A      0.636473    49A      0.662884    50A      0.663967
      51A      0.683531    52A      0.684178    53A      0.734997
      54A      0.825371    55A      0.825436    56A      0.853919
      57A      0.914791    58A      0.915260    59A      0.944126
      60A      0.944610    61A      0.961088    62A      0.961501
      63A      1.003454    64A      1.127958    65A      1.128265
      66A      1.142207    67A      1.163054    68A      1.163494
      69A      1.223324    70A      1.274183    71A      1.274761
      72A      1.279393    73A      1.324055    74A      1.324652
      75A      1.355981    76A      1.365770    77A      1.366330
      78A      1.392443    79A      1.403482    80A      1.404641
      81A      1.416870    82A      1.417341    83A      1.427913
      84A      1.491486    85A      1.499066    86A      1.542339
      87A      1.543347    88A      1.574134    89A      1.574757
      90A      1.669826    91A      1.738823    92A      1.739938
      93A      1.768392    94A      1.830395    95A      1.832393
      96A      1.971714    97A      2.017637    98A      2.018544
      99A      2.020219   100A      2.051342   101A      2.053977
     102A      2.738037   103A      2.738935   104A      2.790928
     105A      2.811425   106A      2.889650   107A      2.890212
     108A      2.894989   109A      2.929477   110A      2.929520
     111A      2.958998   112A      2.963945   113A      2.964808
     114A      3.034020   115A      3.071167   116A      3.071366
     117A      3.084386   118A      3.168674   119A      3.168873
     120A      3.180618   121A      3.285028   122A      3.285610
     123A      3.327114   124A      3.327217   125A      3.375619
     126A      3.489681   127A      3.490621   128A      3.514020
     129A      3.525325   130A      3.568376   131A      3.568390
     132A      3.575163   133A      3.665384   134A      3.667409
     135A      3.679634   136A      3.693974   137A      3.694300
     138A      3.776767   139A      3.776826   140A      3.789129
     141A      3.912041   142A      3.912409   143A      4.034441
     144A      4.110999   145A      4.111719   146A      4.147455
     147A      4.148716   148A      4.173226   149A      4.202201
     150A      4.202783   151A      4.203720   152A      4.210937
     153A      4.315579   154A      4.316419   155A      4.359008
     156A      4.424017   157A      4.424912   158A      4.443418
     159A      4.515114   160A      4.518615   161A      4.577940
     162A      4.578604   163A      4.617567   164A      4.709444
     165A      4.773630   166A      4.775560   167A      4.836922
     168A      4.962864   169A      5.001726   170A      5.004123
     171A      5.228063   172A      5.244719   173A      5.248899
     174A      5.354596   175A      5.356498   176A      5.479383

    Beta Occupied:

       1A    -10.167830     2A    -10.167776     3A    -10.167718
       4A    -10.166520     5A     -0.781092     6A     -0.684028
       7A     -0.683954     8A     -0.511750     9A     -0.431168
      10A     -0.430925    11A     -0.421816    12A     -0.376887
      13A     -0.376478    14A     -0.362596    15A     -0.333233
      16A     -0.333010

    Beta Virtual:

      17A     -0.025743    18A      0.077079    19A      0.134863
      20A      0.135225    21A      0.144402    22A      0.144590
      23A      0.163336    24A      0.182233    25A      0.182672
      26A      0.215032    27A      0.218931    28A      0.282203
      29A      0.282465    30A      0.400206    31A      0.400587
      32A      0.419788    33A      0.426876    34A      0.426943
      35A      0.468499    36A      0.497473    37A      0.497827
      38A      0.513896    39A      0.556325    40A      0.584125
      41A      0.584605    42A      0.597510    43A      0.598102
      44A      0.610009    45A      0.628136    46A      0.631915
      47A      0.639327    48A      0.639752    49A      0.666496
      50A      0.667485    51A      0.686182    52A      0.686797
      53A      0.757519    54A      0.830540    55A      0.830605
      56A      0.855273    57A      0.922777    58A      0.923216
      59A      0.945963    60A      0.953540    61A      0.966358
      62A      0.966841    63A      1.008694    64A      1.132008
      65A      1.132271    66A      1.155582    67A      1.168141
      68A      1.168557    69A      1.232296    70A      1.279764
      71A      1.280375    72A      1.285146    73A      1.329036
      74A      1.329649    75A      1.365395    76A      1.370966
      77A      1.371624    78A      1.393505    79A      1.406889
      80A      1.408161    81A      1.421887    82A      1.422425
      83A      1.428181    84A      1.492534    85A      1.509507
      86A      1.546828    87A      1.547668    88A      1.582076
      89A      1.582564    90A      1.674672    91A      1.744599
      92A      1.745699    93A      1.779158    94A      1.834243
      95A      1.836257    96A      1.972575    97A      2.024324
      98A      2.026544    99A      2.039703   100A      2.058128
     101A      2.060624   102A      2.746387   103A      2.747257
     104A      2.811837   105A      2.816063   106A      2.902314
     107A      2.902962   108A      2.924657   109A      2.931966
     110A      2.931990   111A      2.960060   112A      2.968484
     113A      2.969365   114A      3.041953   115A      3.081103
     116A      3.081189   117A      3.086264   118A      3.184271
     119A      3.184732   120A      3.188346   121A      3.289806
     122A      3.290428   123A      3.330909   124A      3.331031
     125A      3.383437   126A      3.492451   127A      3.493312
     128A      3.512386   129A      3.528372   130A      3.574981
     131A      3.581628   132A      3.581858   133A      3.670137
     134A      3.672147   135A      3.692935   136A      3.725753
     137A      3.725782   138A      3.781243   139A      3.781409
     140A      3.817666   141A      3.921819   142A      3.922263
     143A      4.045327   144A      4.117784   145A      4.118568
     146A      4.154675   147A      4.155920   148A      4.187276
     149A      4.208289   150A      4.209515   151A      4.210757
     152A      4.215410   153A      4.323039   154A      4.323832
     155A      4.362374   156A      4.432241   157A      4.433115
     158A      4.446302   159A      4.522906   160A      4.526403
     161A      4.588543   162A      4.589202   163A      4.624762
     164A      4.719788   165A      4.780601   166A      4.782495
     167A      4.839839   168A      4.967660   169A      5.005802
     170A      5.008126   171A      5.233777   172A      5.246514
     173A      5.250672   174A      5.361065   175A      5.362989
     176A      5.481704

    Final Occupation by Irrep:
              A
    DOCC [    16 ]
    SOCC [     1 ]

  @DF-UKS Final Energy:  -157.81305539168801

   => Energetics <=

    Nuclear Repulsion Energy =            125.3946660606504935
    One-Electron Energy =                -458.7489477725008555
    Two-Electron Energy =                 195.8483745741193900
    DFT Exchange-Correlation Energy =     -20.3071482539570312
    Empirical Dispersion Energy =           0.0000000000000000
    VV10 Nonlocal Energy =                  0.0000000000000000
    Total Energy =                       -157.8130553916880103

  UHF NO Occupations:
  HONO-2 :   15  A 1.9996008
  HONO-1 :   16  A 1.9989804
  HONO-0 :   17  A 1.0000000
  LUNO+0 :   18  A 0.0010196
  LUNO+1 :   19  A 0.0003992
  LUNO+2 :   20  A 0.0001976
  LUNO+3 :   21  A 0.0001974

Computation Completed

Properties will be evaluated at   0.000000,   0.000000,   0.000000 [a0]

Properties computed using the SCF density matrix

  Nuclear Dipole Moment: [e a0]
     X:     0.8272      Y:    -0.0000      Z:    -0.0005

  Electronic Dipole Moment: [e a0]
     X:    -0.7493      Y:     0.0000      Z:     0.0012

  Dipole Moment: [e a0]
     X:     0.0779      Y:     0.0000      Z:     0.0008     Total:     0.0779

  Dipole Moment: [D]
     X:     0.1980      Y:     0.0000      Z:     0.0019     Total:     0.1980

*** tstop() called on n080 at Fri Nov  5 12:16:52 2021
Module time:
	user time   =     494.45 seconds =       8.24 minutes
	system time =       4.54 seconds =       0.08 minutes
	total time  =        125 seconds =       2.08 minutes
Total time:
	user time   =     494.45 seconds =       8.24 minutes
	system time =       4.54 seconds =       0.08 minutes
	total time  =        125 seconds =       2.08 minutes
Grab this energy -157.813055391688
    Psi4 stopped on: Friday, 05 November 2021 12:16PM
    Psi4 wall time for execution: 0:02:05.48

*** Psi4 exiting successfully. Buy a developer a beer!
