                               Psi4 1.4a2.dev629

  ==> Input File <==

--------------------------------------------------------------------------
import os
memory 14 GB

molecule {
 C   -0.3223169243   -0.0000031307    0.0024279191
 C    0.0628893452   -1.4018859282   -2.4268753959
 C    0.0620791675    2.8016044699    0.0012513720
 C    0.0615091220   -1.3997163352    2.4256204732
 H    2.0858502461   -1.6420891288   -2.8472982058
 H   -0.7653999342   -0.3884613833   -4.0268460320
 H   -0.7612063976   -3.2973972648   -2.3507209989
 H    2.0834812466    3.2876792162   -0.0033433081
 H   -0.7603226146    3.6834042813    1.6821838512
 H   -0.7690528633    3.6776088614   -1.6755042332
 H    2.0813971377   -1.6456810550    2.8468533809
 H   -0.7680175939   -3.2909227882    2.3453449594
 H   -0.7634978140   -0.3841641281    4.0269062180
units bohr
0 2
}

basis {

assign 6-31g_2dfp_

[ 6-31g_2dfp_ ]

spherical

!----------------------------------------------------------------------
! Basis Set Exchange
! Version v0.8.13
! https://www.basissetexchange.org
!----------------------------------------------------------------------
!   Basis set: 6-31G(2df,p)
! Description: 6-31G(2df,p)
!        Role: orbital
!     Version: 0  (Data from the original Basis Set Exchange)
!----------------------------------------------------------------------

****
H     0
S    3   1.00
     18.7311370              0.03349460
      2.8253937              0.23472695
      0.6401217              0.81375733
S    1   1.00
      0.1612778              1.00000000
P    1   1.00
      1.5000000              1.0000000
P    1   1.00
      0.3750000              1.0000000
****
B     0
S    6   1.00
   2068.8823000              0.0018663
    310.6495700              0.0142515
     70.6830330              0.0695516
     19.8610800              0.2325729
      6.2993048              0.4670787
      2.1270270              0.3634314
SP   3   1.00
      4.7279710             -0.1303938              0.0745976
      1.1903377             -0.1307889              0.3078467
      0.3594117              1.1309444              0.7434568
SP   1   1.00
      0.1267512              1.0000000              1.0000000
D    1   1.00
      0.8020000              1.0000000
D    1   1.00
      0.2005000              1.0000000
F    1   1.00
      0.5000000              1.0000000
****
C     0
S    6   1.00
   3047.5249000              0.0018347
    457.3695100              0.0140373
    103.9486900              0.0688426
     29.2101550              0.2321844
      9.2866630              0.4679413
      3.1639270              0.3623120
SP   3   1.00
      7.8682724             -0.1193324              0.0689991
      1.8812885             -0.1608542              0.3164240
      0.5442493              1.1434564              0.7443083
SP   1   1.00
      0.1687144              1.0000000              1.0000000
D    1   1.00
      1.2520000              1.0000000
D    1   1.00
      0.3130000              1.0000000
F    1   1.00
      0.8000000              1.0000000
****
N     0
S    6   1.00
   4173.5110000              0.0018348
    627.4579000              0.0139950
    142.9021000              0.0685870
     40.2343300              0.2322410
     12.8202100              0.4690700
      4.3904370              0.3604550
SP   3   1.00
     11.6263580             -0.1149610              0.0675800
      2.7162800             -0.1691180              0.3239070
      0.7722180              1.1458520              0.7408950
SP   1   1.00
      0.2120313              1.0000000              1.0000000
D    1   1.00
      1.8260000              1.0000000
D    1   1.00
      0.4565000              1.0000000
F    1   1.00
      1.0000000              1.0000000
****
O     0
S    6   1.00
   5484.6717000              0.0018311
    825.2349500              0.0139501
    188.0469600              0.0684451
     52.9645000              0.2327143
     16.8975700              0.4701930
      5.7996353              0.3585209
SP   3   1.00
     15.5396160             -0.1107775              0.0708743
      3.5999336             -0.1480263              0.3397528
      1.0137618              1.1307670              0.7271586
SP   1   1.00
      0.2700058              1.0000000              1.0000000
D    1   1.00
      2.5840000              1.0000000
D    1   1.00
      0.6460000              1.0000000
F    1   1.00
      1.4000000              1.0000000
****
F     0
S    6   1.00
   7001.7130900              0.0018196169
   1051.3660900              0.0139160796
    239.2856900              0.0684053245
     67.3974453              0.233185760
     21.5199573              0.471267439
      7.40310130             0.356618546
SP   3   1.00
     20.8479528             -0.108506975            0.0716287243
      4.80830834            -0.146451658            0.3459121030
      1.34406986             1.128688580            0.7224699570
SP   1   1.00
      0.358151393            1.0000000              1.0000000
D    1   1.00
      3.5000000              1.0000000
D    1   1.00
      0.8750000              1.0000000
F    1   1.00
      1.8500000              1.0000000
****
Al     0
S    6   1.00
  13983.1000000              0.00194267
   2098.7500000              0.0148599
    477.7050000              0.0728494
    134.3600000              0.2468300
     42.8709000              0.4872580
     14.5189000              0.3234960
SP   6   1.00
    239.6680000             -0.00292619             0.00460285
     57.4419000             -0.0374080              0.0331990
     18.2859000             -0.1144870              0.1362820
      6.5991400              0.1156350              0.3304760
      2.4904900              0.6125950              0.4491460
      0.9445400              0.3937990              0.2657040
SP   3   1.00
      1.2779000             -0.2276060             -0.0175130
      0.3975900              0.00144583             0.2445330
      0.1600950              1.0927900              0.8049340
SP   1   1.00
      0.0556577              1.0000000              1.0000000
D    1   1.00
      0.6500000              1.0000000
D    1   1.00
      0.1625000              1.0000000
F    1   1.00
      0.2500000              1.0000000
****
Si     0
S    6   1.00
  16115.9000000              0.00195948
   2425.5800000              0.01492880
    553.8670000              0.07284780
    156.3400000              0.24613000
     50.0683000              0.48591400
     17.0178000              0.32500200
SP   6   1.00
    292.7180000             -0.00278094             0.00443826
     69.8731000             -0.03571460             0.03266790
     22.3363000             -0.11498500             0.13472100
      8.1503900              0.09356340             0.32867800
      3.1345800              0.60301700             0.44964000
      1.2254300              0.41895900             0.26137200
SP   3   1.00
      1.7273800             -0.24463000            -0.01779510
      0.5729220              0.00431572             0.25353900
      0.2221920              1.09818000             0.80066900
SP   1   1.00
      0.0778369              1.00000000             1.00000000
D    1   1.00
      0.9000000              1.0000000
D    1   1.00
      0.2250000              1.0000000
F    1   1.00
      0.3200000              1.0000000
****
P     0
S    6   1.00
  19413.3000000              0.0018516
   2909.4200000              0.0142062
    661.3640000              0.0699995
    185.7590000              0.2400790
     59.1943000              0.4847620
     20.0310000              0.3352000
SP   6   1.00
    339.4780000             -0.00278217             0.00456462
     81.0101000             -0.0360499              0.03369360
     25.8780000             -0.1166310              0.13975500
      9.4522100              0.0968328              0.33936200
      3.6656600              0.6144180              0.45092100
      1.4674600              0.4037980              0.23858600
SP   3   1.00
      2.1562300             -0.2529230             -0.01776530
      0.7489970              0.0328517              0.27405800
      0.2831450              1.0812500              0.78542100
SP   1   1.00
      0.0998317              1.0000000              1.00000000
D    1   1.00
      1.1000000              1.0000000
D    1   1.00
      0.2750000              1.0000000
F    1   1.00
      0.4500000              1.0000000
****
S     0
S    6   1.00
  21917.1000000              0.0018690
   3301.4900000              0.0142300
    754.1460000              0.0696960
    212.7110000              0.2384870
     67.9896000              0.4833070
     23.0515000              0.3380740
SP   6   1.00
    423.7350000             -0.0023767              0.0040610
    100.7100000             -0.0316930              0.0306810
     32.1599000             -0.1133170              0.1304520
     11.8079000              0.0560900              0.3272050
      4.6311000              0.5922550              0.4528510
      1.8702500              0.4550060              0.2560420
SP   3   1.00
      2.6158400             -0.2503740             -0.0145110
      0.9221670              0.0669570              0.3102630
      0.3412870              1.0545100              0.7544830
SP   1   1.00
      0.1171670              1.0000000              1.0000000
D    1   1.00
      1.3000000              1.0000000
D    1   1.00
      0.3250000              1.0000000
F    1   1.00
      0.5500000              1.0000000
****
Cl     0
S    6   1.00
  25180.1000000              0.0018330
   3780.3500000              0.0140340
    860.4740000              0.0690970
    242.1450000              0.2374520
     77.3349000              0.4830340
     26.2470000              0.3398560
SP   6   1.00
    491.7650000             -0.0022974              0.0039894
    116.9840000             -0.0307140              0.0303180
     37.4153000             -0.1125280              0.1298800
     13.7834000              0.0450160              0.3279510
      5.4521500              0.5893530              0.4535270
      2.2258800              0.4652060              0.2521540
SP   3   1.00
      3.1864900             -0.2518300             -0.0142990
      1.1442700              0.0615890              0.3235720
      0.4203770              1.0601800              0.7435070
SP   1   1.00
      0.1426570              1.0000000              1.0000000
D    1   1.00
      1.5000000              1.0000000
D    1   1.00
      0.3750000              1.0000000
F    1   1.00
      0.7000000              1.0000000
****
}

set {
reference uhf
freeze_core true
e_convergence 10
d_convergence 10
dft_spherical_points 1202
dft_radial_points 99
}

e = energy('b3lyp')

print_out('Grab this energy {0}'.format(e))
--------------------------------------------------------------------------

    Molecular point group: c1

    Geometry (in Bohr), charge = 0, multiplicity = 2:

       Center              X                  Y                   Z               Mass
    ------------   -----------------  -----------------  -----------------  -----------------
         C           -0.323126008458    -0.000002523332     0.001960968286    12.000000000000
         C            0.062080261042    -1.401885320832    -2.427342346714    12.000000000000
         C            0.061270083342     2.801605077268     0.000784421186    12.000000000000
         C            0.060700037842    -1.399715727832     2.425153522386    12.000000000000
         H            2.085041161942    -1.642088521432    -2.847765156614     1.007825032230
         H           -0.766209018358    -0.388460775932    -4.027312982814     1.007825032230
         H           -0.762015481758    -3.297396657432    -2.351187949714     1.007825032230
         H            2.082672162442     3.287679823568    -0.003810258914     1.007825032230
         H           -0.761131698758     3.683404888668     1.681716900386     1.007825032230
         H           -0.769861947458     3.677609468768    -1.675971184014     1.007825032230
         H            2.080588053542    -1.645680447632     2.846386430086     1.007825032230
         H           -0.768826678058    -3.290922180832     2.344878008586     1.007825032230
         H           -0.764306898158    -0.384163520732     4.026439267186     1.007825032230

  Charge       = 0
  Multiplicity = 2
  Basis Set: ANONYMOUS753B583A
    Blend: 6-31G_2DFP_
  Basis Set: (ANONYMOUS753B583A AUX)
    Blend: DEF2-UNIVERSAL-JKFIT

    Orbital Energies [Eh]
    ---------------------

    Alpha Occupied:

       1A    -10.180284     2A    -10.167200     3A    -10.167012
       4A    -10.166822     5A     -0.797805     6A     -0.686337
       7A     -0.686050     8A     -0.530787     9A     -0.441221
      10A     -0.434699    11A     -0.434558    12A     -0.382778
      13A     -0.382691    14A     -0.363432    15A     -0.338094
      16A     -0.337796    17A     -0.168924

    Alpha Virtual:

      18A      0.075986    19A      0.134084    20A      0.134212
      21A      0.142548    22A      0.142576    23A      0.155045
      24A      0.178953    25A      0.178958    26A      0.203589
      27A      0.214528    28A      0.275675    29A      0.276346
      30A      0.399335    31A      0.399349    32A      0.403439
      33A      0.423875    34A      0.423944    35A      0.456671
      36A      0.495160    37A      0.495261    38A      0.512279
      39A      0.514132    40A      0.578782    41A      0.579173
      42A      0.591687    43A      0.592125    44A      0.603325
      45A      0.624260    46A      0.631384    47A      0.635787
      48A      0.635971    49A      0.663704    50A      0.664113
      51A      0.683584    52A      0.683625    53A      0.734933
      54A      0.825409    55A      0.825468    56A      0.854196
      57A      0.915116    58A      0.915382    59A      0.943837
      60A      0.944469    61A      0.961352    62A      0.961437
      63A      1.003640    64A      1.127803    65A      1.127898
      66A      1.142929    67A      1.162900    68A      1.163131
      69A      1.222913    70A      1.274550    71A      1.274912
      72A      1.279522    73A      1.324444    74A      1.324686
      75A      1.355457    76A      1.365819    77A      1.366407
      78A      1.392492    79A      1.404730    80A      1.405412
      81A      1.415894    82A      1.416398    83A      1.428131
      84A      1.491513    85A      1.500035    86A      1.543071
      87A      1.543337    88A      1.573851    89A      1.574294
      90A      1.668565    91A      1.739998    92A      1.740542
      93A      1.770166    94A      1.829589    95A      1.830403
      96A      1.970710    97A      2.018247    98A      2.018934
      99A      2.019086   100A      2.053004   101A      2.055036
     102A      2.738112   103A      2.738217   104A      2.791322
     105A      2.810965   106A      2.889887   107A      2.890719
     108A      2.895331   109A      2.929120   110A      2.929463
     111A      2.959132   112A      2.964537   113A      2.965070
     114A      3.034709   115A      3.071023   116A      3.071611
     117A      3.082952   118A      3.168850   119A      3.168941
     120A      3.180669   121A      3.285368   122A      3.285458
     123A      3.326088   124A      3.326975   125A      3.375439
     126A      3.490150   127A      3.490642   128A      3.515216
     129A      3.524130   130A      3.567960   131A      3.569635
     132A      3.575978   133A      3.666531   134A      3.666956
     135A      3.679068   136A      3.693585   137A      3.694295
     138A      3.775032   139A      3.777703   140A      3.789950
     141A      3.911180   142A      3.912167   143A      4.033980
     144A      4.110377   145A      4.112428   146A      4.148130
     147A      4.149254   148A      4.174917   149A      4.201725
     150A      4.202511   151A      4.203035   152A      4.212002
     153A      4.315903   154A      4.316958   155A      4.357768
     156A      4.424678   157A      4.425687   158A      4.443210
     159A      4.516745   160A      4.518249   161A      4.576911
     162A      4.578246   163A      4.617625   164A      4.710006
     165A      4.773908   166A      4.775104   167A      4.835548
     168A      4.962546   169A      5.003634   170A      5.004890
     171A      5.230781   172A      5.243688   173A      5.243940
     174A      5.356547   175A      5.358459   176A      5.477403

    Beta Occupied:

       1A    -10.167955     2A    -10.167770     3A    -10.167584
       4A    -10.166455     5A     -0.781123     6A     -0.684116
       7A     -0.683852     8A     -0.511709     9A     -0.431053
      10A     -0.430897    11A     -0.421977    12A     -0.376878
      13A     -0.376813    14A     -0.362407    15A     -0.333220
      16A     -0.332922

    Beta Virtual:

      17A     -0.025615    18A      0.076980    19A      0.134904
      20A      0.135038    21A      0.144431    22A      0.144478
      23A      0.163483    24A      0.182650    25A      0.182661
      26A      0.214765    27A      0.218973    28A      0.282029
      29A      0.282679    30A      0.400512    31A      0.400515
      32A      0.419781    33A      0.426673    34A      0.426769
      35A      0.468679    36A      0.497419    37A      0.497506
      38A      0.514006    39A      0.556515    40A      0.584293
      41A      0.584707    42A      0.597895    43A      0.598292
      44A      0.610609    45A      0.627778    46A      0.631543
      47A      0.639089    48A      0.639317    49A      0.667249
      50A      0.667635    51A      0.686244    52A      0.686260
      53A      0.757459    54A      0.830584    55A      0.830588
      56A      0.855540    57A      0.923066    58A      0.923338
      59A      0.945682    60A      0.953348    61A      0.966663
      62A      0.966808    63A      1.008920    64A      1.131743
      65A      1.131944    66A      1.156222    67A      1.168061
      68A      1.168167    69A      1.231902    70A      1.280162
      71A      1.280535    72A      1.285336    73A      1.329399
      74A      1.329616    75A      1.364893    76A      1.371032
      77A      1.371543    78A      1.393534    79A      1.408215
      80A      1.408954    81A      1.420993    82A      1.421477
      83A      1.428394    84A      1.492587    85A      1.510471
      86A      1.547477    87A      1.547681    88A      1.581785
      89A      1.582141    90A      1.673362    91A      1.745751
      92A      1.746323    93A      1.780958    94A      1.833436
      95A      1.834264    96A      1.971583    97A      2.025443
      98A      2.025503    99A      2.039781   100A      2.059628
     101A      2.061603   102A      2.746413   103A      2.746571
     104A      2.811375   105A      2.816494   106A      2.902682
     107A      2.903400   108A      2.925166   109A      2.931611
     110A      2.931951   111A      2.960197   112A      2.969133
     113A      2.969634   114A      3.042432   115A      3.080986
     116A      3.081493   117A      3.084769   118A      3.184481
     119A      3.184724   120A      3.188420   121A      3.290132
     122A      3.290229   123A      3.329937   124A      3.330808
     125A      3.383283   126A      3.492899   127A      3.493433
     128A      3.513586   129A      3.527191   130A      3.575830
     131A      3.581163   132A      3.582770   133A      3.671524
     134A      3.671678   135A      3.692367   136A      3.725374
     137A      3.725760   138A      3.779680   139A      3.782262
     140A      3.818448   141A      3.920985   142A      3.921884
     143A      4.044806   144A      4.117193   145A      4.119235
     146A      4.155412   147A      4.156405   148A      4.188948
     149A      4.207584   150A      4.208482   151A      4.210888
     152A      4.216354   153A      4.323373   154A      4.324488
     155A      4.361174   156A      4.432914   157A      4.433877
     158A      4.446149   159A      4.524512   160A      4.525990
     161A      4.587549   162A      4.588892   163A      4.624915
     164A      4.720233   165A      4.780953   166A      4.782067
     167A      4.838476   168A      4.967329   169A      5.007630
     170A      5.008922   171A      5.236531   172A      5.245475
     173A      5.245750   174A      5.363033   175A      5.364988
     176A      5.479737

    Final Occupation by Irrep:
              A
    DOCC [    16 ]
    SOCC [     1 ]

  @DF-UKS Final Energy:  -157.81305520712883

   => Energetics <=

    Nuclear Repulsion Energy =            125.4000378635017938
    One-Electron Energy =                -458.7597216571116974
    Two-Electron Energy =                 195.8538872720573636
    DFT Exchange-Correlation Energy =     -20.3072586855762829
    Empirical Dispersion Energy =           0.0000000000000000
    VV10 Nonlocal Energy =                  0.0000000000000000
    Total Energy =                       -157.8130552071288264

  UHF NO Occupations:
  HONO-2 :   15  A 1.9996032
  HONO-1 :   16  A 1.9989813
  HONO-0 :   17  A 1.0000000
  LUNO+0 :   18  A 0.0010187
  LUNO+1 :   19  A 0.0003968
  LUNO+2 :   20  A 0.0001981
  LUNO+3 :   21  A 0.0001970

Computation Completed

Properties will be evaluated at   0.000000,   0.000000,   0.000000 [a0]

Properties computed using the SCF density matrix

  Nuclear Dipole Moment: [e a0]
     X:     0.8215      Y:    -0.0000      Z:    -0.0033

  Electronic Dipole Moment: [e a0]
     X:    -0.7404      Y:     0.0000      Z:     0.0033

  Dipole Moment: [e a0]
     X:     0.0811      Y:     0.0000      Z:    -0.0000     Total:     0.0811

  Dipole Moment: [D]
     X:     0.2061      Y:     0.0000      Z:    -0.0001     Total:     0.2061

*** tstop() called on n082 at Fri Nov  5 14:52:23 2021
Module time:
	user time   =     493.76 seconds =       8.23 minutes
	system time =       4.43 seconds =       0.07 minutes
	total time  =        126 seconds =       2.10 minutes
Total time:
	user time   =     493.76 seconds =       8.23 minutes
	system time =       4.43 seconds =       0.07 minutes
	total time  =        126 seconds =       2.10 minutes
Grab this energy -157.81305520712883
    Psi4 stopped on: Friday, 05 November 2021 02:52PM
    Psi4 wall time for execution: 0:02:05.28

*** Psi4 exiting successfully. Buy a developer a beer!
