                               Psi4 1.4a2.dev629

  ==> Input File <==

--------------------------------------------------------------------------
import os
memory 14 GB

molecule {
 C   -0.3233318742   -0.0050084331   -0.0000000000
 C    0.0608386058   -1.3981829825   -2.4324917460
 C    0.0616265169    2.7938391930    0.0000000000
 C    0.0608386058   -1.3981829825    2.4324917460
 H    2.0865459806   -1.6380237033   -2.8562153871
 H   -0.7683270255   -0.3797591287   -4.0273321334
 H   -0.7637102075   -3.2902543573   -2.3621364507
 H    2.0875788762    3.2789413577    0.0000000000
 H   -0.7645880513    3.6723219562    1.6763047342
 H   -0.7645880513    3.6723219562   -1.6763047342
 H    2.0865459806   -1.6380237033    2.8562153871
 H   -0.7637102075   -3.2902543573    2.3621364507
 H   -0.7683270255   -0.3797591287    4.0273321334
units bohr
0 2
}

basis {

assign 6-31g_2dfp_

[ 6-31g_2dfp_ ]

spherical

!----------------------------------------------------------------------
! Basis Set Exchange
! Version v0.8.13
! https://www.basissetexchange.org
!----------------------------------------------------------------------
!   Basis set: 6-31G(2df,p)
! Description: 6-31G(2df,p)
!        Role: orbital
!     Version: 0  (Data from the original Basis Set Exchange)
!----------------------------------------------------------------------

****
H     0
S    3   1.00
     18.7311370              0.03349460
      2.8253937              0.23472695
      0.6401217              0.81375733
S    1   1.00
      0.1612778              1.00000000
P    1   1.00
      1.5000000              1.0000000
P    1   1.00
      0.3750000              1.0000000
****
B     0
S    6   1.00
   2068.8823000              0.0018663
    310.6495700              0.0142515
     70.6830330              0.0695516
     19.8610800              0.2325729
      6.2993048              0.4670787
      2.1270270              0.3634314
SP   3   1.00
      4.7279710             -0.1303938              0.0745976
      1.1903377             -0.1307889              0.3078467
      0.3594117              1.1309444              0.7434568
SP   1   1.00
      0.1267512              1.0000000              1.0000000
D    1   1.00
      0.8020000              1.0000000
D    1   1.00
      0.2005000              1.0000000
F    1   1.00
      0.5000000              1.0000000
****
C     0
S    6   1.00
   3047.5249000              0.0018347
    457.3695100              0.0140373
    103.9486900              0.0688426
     29.2101550              0.2321844
      9.2866630              0.4679413
      3.1639270              0.3623120
SP   3   1.00
      7.8682724             -0.1193324              0.0689991
      1.8812885             -0.1608542              0.3164240
      0.5442493              1.1434564              0.7443083
SP   1   1.00
      0.1687144              1.0000000              1.0000000
D    1   1.00
      1.2520000              1.0000000
D    1   1.00
      0.3130000              1.0000000
F    1   1.00
      0.8000000              1.0000000
****
N     0
S    6   1.00
   4173.5110000              0.0018348
    627.4579000              0.0139950
    142.9021000              0.0685870
     40.2343300              0.2322410
     12.8202100              0.4690700
      4.3904370              0.3604550
SP   3   1.00
     11.6263580             -0.1149610              0.0675800
      2.7162800             -0.1691180              0.3239070
      0.7722180              1.1458520              0.7408950
SP   1   1.00
      0.2120313              1.0000000              1.0000000
D    1   1.00
      1.8260000              1.0000000
D    1   1.00
      0.4565000              1.0000000
F    1   1.00
      1.0000000              1.0000000
****
O     0
S    6   1.00
   5484.6717000              0.0018311
    825.2349500              0.0139501
    188.0469600              0.0684451
     52.9645000              0.2327143
     16.8975700              0.4701930
      5.7996353              0.3585209
SP   3   1.00
     15.5396160             -0.1107775              0.0708743
      3.5999336             -0.1480263              0.3397528
      1.0137618              1.1307670              0.7271586
SP   1   1.00
      0.2700058              1.0000000              1.0000000
D    1   1.00
      2.5840000              1.0000000
D    1   1.00
      0.6460000              1.0000000
F    1   1.00
      1.4000000              1.0000000
****
F     0
S    6   1.00
   7001.7130900              0.0018196169
   1051.3660900              0.0139160796
    239.2856900              0.0684053245
     67.3974453              0.233185760
     21.5199573              0.471267439
      7.40310130             0.356618546
SP   3   1.00
     20.8479528             -0.108506975            0.0716287243
      4.80830834            -0.146451658            0.3459121030
      1.34406986             1.128688580            0.7224699570
SP   1   1.00
      0.358151393            1.0000000              1.0000000
D    1   1.00
      3.5000000              1.0000000
D    1   1.00
      0.8750000              1.0000000
F    1   1.00
      1.8500000              1.0000000
****
Al     0
S    6   1.00
  13983.1000000              0.00194267
   2098.7500000              0.0148599
    477.7050000              0.0728494
    134.3600000              0.2468300
     42.8709000              0.4872580
     14.5189000              0.3234960
SP   6   1.00
    239.6680000             -0.00292619             0.00460285
     57.4419000             -0.0374080              0.0331990
     18.2859000             -0.1144870              0.1362820
      6.5991400              0.1156350              0.3304760
      2.4904900              0.6125950              0.4491460
      0.9445400              0.3937990              0.2657040
SP   3   1.00
      1.2779000             -0.2276060             -0.0175130
      0.3975900              0.00144583             0.2445330
      0.1600950              1.0927900              0.8049340
SP   1   1.00
      0.0556577              1.0000000              1.0000000
D    1   1.00
      0.6500000              1.0000000
D    1   1.00
      0.1625000              1.0000000
F    1   1.00
      0.2500000              1.0000000
****
Si     0
S    6   1.00
  16115.9000000              0.00195948
   2425.5800000              0.01492880
    553.8670000              0.07284780
    156.3400000              0.24613000
     50.0683000              0.48591400
     17.0178000              0.32500200
SP   6   1.00
    292.7180000             -0.00278094             0.00443826
     69.8731000             -0.03571460             0.03266790
     22.3363000             -0.11498500             0.13472100
      8.1503900              0.09356340             0.32867800
      3.1345800              0.60301700             0.44964000
      1.2254300              0.41895900             0.26137200
SP   3   1.00
      1.7273800             -0.24463000            -0.01779510
      0.5729220              0.00431572             0.25353900
      0.2221920              1.09818000             0.80066900
SP   1   1.00
      0.0778369              1.00000000             1.00000000
D    1   1.00
      0.9000000              1.0000000
D    1   1.00
      0.2250000              1.0000000
F    1   1.00
      0.3200000              1.0000000
****
P     0
S    6   1.00
  19413.3000000              0.0018516
   2909.4200000              0.0142062
    661.3640000              0.0699995
    185.7590000              0.2400790
     59.1943000              0.4847620
     20.0310000              0.3352000
SP   6   1.00
    339.4780000             -0.00278217             0.00456462
     81.0101000             -0.0360499              0.03369360
     25.8780000             -0.1166310              0.13975500
      9.4522100              0.0968328              0.33936200
      3.6656600              0.6144180              0.45092100
      1.4674600              0.4037980              0.23858600
SP   3   1.00
      2.1562300             -0.2529230             -0.01776530
      0.7489970              0.0328517              0.27405800
      0.2831450              1.0812500              0.78542100
SP   1   1.00
      0.0998317              1.0000000              1.00000000
D    1   1.00
      1.1000000              1.0000000
D    1   1.00
      0.2750000              1.0000000
F    1   1.00
      0.4500000              1.0000000
****
S     0
S    6   1.00
  21917.1000000              0.0018690
   3301.4900000              0.0142300
    754.1460000              0.0696960
    212.7110000              0.2384870
     67.9896000              0.4833070
     23.0515000              0.3380740
SP   6   1.00
    423.7350000             -0.0023767              0.0040610
    100.7100000             -0.0316930              0.0306810
     32.1599000             -0.1133170              0.1304520
     11.8079000              0.0560900              0.3272050
      4.6311000              0.5922550              0.4528510
      1.8702500              0.4550060              0.2560420
SP   3   1.00
      2.6158400             -0.2503740             -0.0145110
      0.9221670              0.0669570              0.3102630
      0.3412870              1.0545100              0.7544830
SP   1   1.00
      0.1171670              1.0000000              1.0000000
D    1   1.00
      1.3000000              1.0000000
D    1   1.00
      0.3250000              1.0000000
F    1   1.00
      0.5500000              1.0000000
****
Cl     0
S    6   1.00
  25180.1000000              0.0018330
   3780.3500000              0.0140340
    860.4740000              0.0690970
    242.1450000              0.2374520
     77.3349000              0.4830340
     26.2470000              0.3398560
SP   6   1.00
    491.7650000             -0.0022974              0.0039894
    116.9840000             -0.0307140              0.0303180
     37.4153000             -0.1125280              0.1298800
     13.7834000              0.0450160              0.3279510
      5.4521500              0.5893530              0.4535270
      2.2258800              0.4652060              0.2521540
SP   3   1.00
      3.1864900             -0.2518300             -0.0142990
      1.1442700              0.0615890              0.3235720
      0.4203770              1.0601800              0.7435070
SP   1   1.00
      0.1426570              1.0000000              1.0000000
D    1   1.00
      1.5000000              1.0000000
D    1   1.00
      0.3750000              1.0000000
F    1   1.00
      0.7000000              1.0000000
****
}

set {
reference uhf
freeze_core true
e_convergence 10
d_convergence 10
dft_spherical_points 1202
dft_radial_points 99
}

e = energy('b3lyp')

print_out('Grab this energy {0}'.format(e))
--------------------------------------------------------------------------

    Molecular point group: cs

    Geometry (in Bohr), charge = 0, multiplicity = 2:

       Center              X                  Y                   Z               Mass
    ------------   -----------------  -----------------  -----------------  -----------------
         C           -0.323334154501    -0.003556668963     0.000000000000    12.000000000000
         C            0.060836325499    -1.396731218363    -2.432491746000    12.000000000000
         C            0.061624236599     2.795290957137     0.000000000000    12.000000000000
         C            0.060836325499    -1.396731218363     2.432491746000    12.000000000000
         H            2.086543700299    -1.636571939163    -2.856215387100     1.007825032230
         H           -0.768329305801    -0.378307364563    -4.027332133400     1.007825032230
         H           -0.763712487801    -3.288802593163    -2.362136450700     1.007825032230
         H            2.087576595899     3.280393121837     0.000000000000     1.007825032230
         H           -0.764590331601     3.673773720337     1.676304734200     1.007825032230
         H           -0.764590331601     3.673773720337    -1.676304734200     1.007825032230
         H            2.086543700299    -1.636571939163     2.856215387100     1.007825032230
         H           -0.763712487801    -3.288802593163     2.362136450700     1.007825032230
         H           -0.768329305801    -0.378307364563     4.027332133400     1.007825032230

  Charge       = 0
  Multiplicity = 2
  Basis Set: ANONYMOUS0433A39C
    Blend: 6-31G_2DFP_
  Basis Set: (ANONYMOUS0433A39C AUX)
    Blend: DEF2-UNIVERSAL-JKFIT

    Orbital Energies [Eh]
    ---------------------

    Alpha Occupied:

       1Ap   -10.180341     1App  -10.167186     2Ap   -10.167157
       3Ap   -10.166702     4Ap    -0.797769     2App   -0.686405
       5Ap    -0.685966     6Ap    -0.530776     7Ap    -0.441126
       3App   -0.434936     8Ap    -0.434406     4App   -0.382742
       9Ap    -0.382455     5App   -0.363611     6App   -0.338268
      10Ap    -0.337727    11Ap    -0.168961

    Alpha Virtual:

      12Ap     0.076072     7App    0.133917    13Ap     0.134395
       8App    0.142491    14Ap     0.142765    15Ap     0.154880
       9App    0.178556    16Ap     0.179002    17Ap     0.203544
      10App    0.214807    11App    0.275816    18Ap     0.276156
      12App    0.399093    19Ap     0.399297    20Ap     0.403416
      13App    0.423967    21Ap     0.424237    22Ap     0.456595
      14App    0.494986    23Ap     0.495785    15App    0.512172
      24Ap     0.513987    16App    0.578564    25Ap     0.579045
      17App    0.591619    26Ap     0.591657    27Ap     0.602573
      28Ap     0.624768    18App    0.631769    29Ap     0.636030
      19App    0.636468    20App    0.663197    30Ap     0.663630
      21App    0.683615    31Ap     0.684094    32Ap     0.734993
      22App    0.824578    33Ap     0.826224    23App    0.853915
      24App    0.914792    34Ap     0.915263    25App    0.944055
      35Ap     0.944516    36Ap     0.961143    26App    0.961646
      37Ap     1.003470    27App    1.126972    38Ap     1.129269
      39Ap     1.142215    28App    1.162786    40Ap     1.163745
      41Ap     1.223332    29App    1.273977    42Ap     1.275016
      43Ap     1.279354    44Ap     1.324276    30App    1.324434
      45Ap     1.355993    31App    1.365266    46Ap     1.366790
      32App    1.392428    33App    1.403305    47Ap     1.404877
      34App    1.416614    48Ap     1.417619    35App    1.427927
      36App    1.491434    49Ap     1.499063    37App    1.542498
      50Ap     1.543172    38App    1.572666    51Ap     1.576332
      52Ap     1.669820    39App    1.738361    53Ap     1.740437
      54Ap     1.768349    40App    1.830891    55Ap     1.831911
      41App    1.971723    42App    2.017630    56Ap     2.018271
      57Ap     2.020456    43App    2.050143    58Ap     2.055228
      44App    2.738220    59Ap     2.738750    60Ap     2.790920
      45App    2.811439    61Ap     2.889843    46App    2.890056
      62Ap     2.894944    47App    2.929321    63Ap     2.929663
      48App    2.958985    49App    2.963513    64Ap     2.965270
      65Ap     3.034011    50App    3.070256    66Ap     3.072289
      51App    3.084379    52App    3.168054    67Ap     3.169551
      68Ap     3.180557    69Ap     3.284597    53App    3.286017
      54App    3.326223    70Ap     3.328109    71Ap     3.375665
      55App    3.489617    72Ap     3.490632    56App    3.514035
      73Ap     3.525308    57App    3.567093    74Ap     3.569585
      58App    3.575333    59App    3.666289    75Ap     3.666497
      76Ap     3.679655    77Ap     3.693648    60App    3.694561
      78Ap     3.775872    61App    3.777648    79Ap     3.789280
      62App    3.910808    80Ap     3.913646    81Ap     4.034476
      63App    4.110017    82Ap     4.112752    64App    4.146458
      83Ap     4.149751    84Ap     4.173231    65App    4.201340
      85Ap     4.202648    86Ap     4.204785    66App    4.210937
      87Ap     4.315927    67App    4.315971    68App    4.358998
      69App    4.424221    88Ap     4.424574    70App    4.443540
      71App    4.516055    89Ap     4.517650    72App    4.577196
      90Ap     4.579340    91Ap     4.617534    92Ap     4.709442
      73App    4.773264    93Ap     4.775929    74App    4.836937
      94Ap     4.962861    75App    5.001959    95Ap     5.003958
      96Ap     5.228025    97Ap     5.246667    76App    5.246973
      77App    5.354798    98Ap     5.356203    78App    5.479330

    Beta Occupied:

       1App  -10.167938     1Ap   -10.167920     2Ap   -10.167467
       3Ap   -10.166518     4Ap    -0.781094     2App   -0.684212
       5Ap    -0.683764     6Ap    -0.511747     3App   -0.431315
       7Ap    -0.430770     8Ap    -0.421823     4App   -0.376837
       9Ap    -0.376530     5App   -0.362595     6App   -0.333396
      10Ap    -0.332846

    Beta Virtual:

      11Ap    -0.025743    12Ap     0.077081     7App    0.134796
      13Ap     0.135295     8App    0.144367    14Ap     0.144630
      15Ap     0.163339     9App    0.182218    16Ap     0.182683
      10App    0.215037    17Ap     0.218926    11App    0.282152
      18Ap     0.282516    12App    0.400285    19Ap     0.400503
      20Ap     0.419800    13App    0.426762    21Ap     0.427064
      22Ap     0.468506    14App    0.497242    23Ap     0.498053
      15App    0.513907    24Ap     0.556328    16App    0.584143
      25Ap     0.584568    17App    0.597785    26Ap     0.597847
      27Ap     0.609994    28Ap     0.628149    18App    0.631926
      29Ap     0.639300    19App    0.639769    20App    0.666734
      30Ap     0.667218    21App    0.686199    31Ap     0.686781
      32Ap     0.757516    22App    0.829735    33Ap     0.831403
      23App    0.855268    24App    0.922751    34Ap     0.923245
      25App    0.945914    35Ap     0.953429    36Ap     0.966419
      26App    0.966981    37Ap     1.008707    27App    1.131007
      38Ap     1.133293    39Ap     1.155587    28App    1.167826
      40Ap     1.168856    41Ap     1.232302    29App    1.279569
      42Ap     1.280619    43Ap     1.285108    44Ap     1.329249
      30App    1.329440    45Ap     1.365410    31App    1.370402
      46Ap     1.372134    32App    1.393489    33App    1.406805
      47Ap     1.408315    34App    1.421657    48Ap     1.422668
      35App    1.428199    36App    1.492486    49Ap     1.509507
      37App    1.546807    50Ap     1.547675    38App    1.580678
      51Ap     1.584065    52Ap     1.674666    39App    1.744126
      53Ap     1.746197    54Ap     1.779127    40App    1.834728
      55Ap     1.835785    41App    1.972585    42App    2.023969
      56Ap     2.026917    57Ap     2.039642    43App    2.056945
      58Ap     2.061860    44App    2.746510    59Ap     2.747132
      45App    2.811851    60Ap     2.816055    61Ap     2.902569
      46App    2.902707    62Ap     2.924650    47App    2.931894
      63Ap     2.932056    48App    2.960054    49App    2.968082
      64Ap     2.969782    65Ap     3.041946    50App    3.079963
      66Ap     3.082307    51App    3.086300    52App    3.183911
      67Ap     3.185178    68Ap     3.188241    69Ap     3.289467
      53App    3.290749    54App    3.330020    70Ap     3.331923
      71Ap     3.383482    55App    3.492346    72Ap     3.493356
      56App    3.512411    73Ap     3.528362    57App    3.574722
      58App    3.580906    74Ap     3.582917    59App    3.671009
      75Ap     3.671265    76Ap     3.692953    77Ap     3.725321
      60App    3.726150    78Ap     3.780450    61App    3.782191
      79Ap     3.817755    62App    3.920626    80Ap     3.923462
      81Ap     4.045363    63App    4.116837    82Ap     4.119560
      64App    4.153722    83Ap     4.156907    84Ap     4.187292
      65App    4.207238    85Ap     4.210463    86Ap     4.210900
      66App    4.215425    87Ap     4.323348    67App    4.323430
      68App    4.362361    69App    4.432416    88Ap     4.432765
      70App    4.446470    71App    4.523938    89Ap     4.525340
      72App    4.587719    90Ap     4.590022    91Ap     4.624726
      92Ap     4.719788    73App    4.780178    93Ap     4.782919
      74App    4.839856    94Ap     4.967654    75App    5.005999
      95Ap     5.007998    96Ap     5.233738    97Ap     5.248449
      76App    5.248762    77App    5.361260    98Ap     5.362702
      78App    5.481651

    Final Occupation by Irrep:
             Ap   App
    DOCC [    10,    6 ]
    SOCC [     1,    0 ]

  @DF-UKS Final Energy:  -157.81306530718174

   => Energetics <=

    Nuclear Repulsion Energy =            125.3948289496055963
    One-Electron Energy =                -458.7493142248905542
    Two-Electron Energy =                 195.8485648016981884
    DFT Exchange-Correlation Energy =     -20.3071448335949789
    Empirical Dispersion Energy =           0.0000000000000000
    VV10 Nonlocal Energy =                  0.0000000000000000
    Total Energy =                       -157.8130653071817449

  UHF NO Occupations:
  HONO-2 :    9 Ap 1.9996009
  HONO-1 :   10 Ap 1.9989804
  HONO-0 :   11 Ap 1.0000000
  LUNO+0 :   12 Ap 0.0010196
  LUNO+1 :   13 Ap 0.0003991
  LUNO+2 :   14 Ap 0.0001979
  LUNO+3 :    7App 0.0001972

Computation Completed

Properties will be evaluated at   0.000000,   0.000000,   0.000000 [a0]

Properties computed using the SCF density matrix

  Nuclear Dipole Moment: [e a0]
     X:     0.8272      Y:     0.0102      Z:    -0.0000

  Electronic Dipole Moment: [e a0]
     X:    -0.7493      Y:    -0.0109      Z:     0.0000

  Dipole Moment: [e a0]
     X:     0.0779      Y:    -0.0007      Z:    -0.0000     Total:     0.0779

  Dipole Moment: [D]
     X:     0.1980      Y:    -0.0019      Z:    -0.0000     Total:     0.1980

*** tstop() called on n091 at Fri Nov  5 15:51:37 2021
Module time:
	user time   =     493.92 seconds =       8.23 minutes
	system time =       4.57 seconds =       0.08 minutes
	total time  =        125 seconds =       2.08 minutes
Total time:
	user time   =     493.92 seconds =       8.23 minutes
	system time =       4.57 seconds =       0.08 minutes
	total time  =        125 seconds =       2.08 minutes
Grab this energy -157.81306530718174
    Psi4 stopped on: Friday, 05 November 2021 03:51PM
    Psi4 wall time for execution: 0:02:05.35

*** Psi4 exiting successfully. Buy a developer a beer!
