                               Psi4 1.4a2.dev629

  ==> Input File <==

--------------------------------------------------------------------------
import os
memory 14 GB

molecule {
 C   -0.3233398913   -0.0000020506    0.0000000051
 C    0.0611406108   -1.4024052625   -2.4254982850
 C    0.0610207700    2.8017590945   -0.0017642773
 C    0.0611405248   -1.3993495517    2.4272625283
 H    2.0869356506   -1.6477234672   -2.8453529711
 H   -0.7684399457   -0.3856071227   -4.0224497668
 H   -0.7625329729   -3.2933037472   -2.3527595310
 H    2.0867969573    3.2881071266   -0.0041841397
 H   -0.7686810609    3.6763213519    1.6772480316
 H   -0.7626109457    3.6841728279   -1.6757432708
 H    2.0869361048   -1.6404761459    2.8495361070
 H   -0.7686035568   -3.2906808875    2.3452085863
 H   -0.7623701217   -0.3908364793    4.0284969835
units bohr
0 2
}

basis {

assign 6-31g_2dfp_

[ 6-31g_2dfp_ ]

spherical

!----------------------------------------------------------------------
! Basis Set Exchange
! Version v0.8.13
! https://www.basissetexchange.org
!----------------------------------------------------------------------
!   Basis set: 6-31G(2df,p)
! Description: 6-31G(2df,p)
!        Role: orbital
!     Version: 0  (Data from the original Basis Set Exchange)
!----------------------------------------------------------------------

****
H     0
S    3   1.00
     18.7311370              0.03349460
      2.8253937              0.23472695
      0.6401217              0.81375733
S    1   1.00
      0.1612778              1.00000000
P    1   1.00
      1.5000000              1.0000000
P    1   1.00
      0.3750000              1.0000000
****
B     0
S    6   1.00
   2068.8823000              0.0018663
    310.6495700              0.0142515
     70.6830330              0.0695516
     19.8610800              0.2325729
      6.2993048              0.4670787
      2.1270270              0.3634314
SP   3   1.00
      4.7279710             -0.1303938              0.0745976
      1.1903377             -0.1307889              0.3078467
      0.3594117              1.1309444              0.7434568
SP   1   1.00
      0.1267512              1.0000000              1.0000000
D    1   1.00
      0.8020000              1.0000000
D    1   1.00
      0.2005000              1.0000000
F    1   1.00
      0.5000000              1.0000000
****
C     0
S    6   1.00
   3047.5249000              0.0018347
    457.3695100              0.0140373
    103.9486900              0.0688426
     29.2101550              0.2321844
      9.2866630              0.4679413
      3.1639270              0.3623120
SP   3   1.00
      7.8682724             -0.1193324              0.0689991
      1.8812885             -0.1608542              0.3164240
      0.5442493              1.1434564              0.7443083
SP   1   1.00
      0.1687144              1.0000000              1.0000000
D    1   1.00
      1.2520000              1.0000000
D    1   1.00
      0.3130000              1.0000000
F    1   1.00
      0.8000000              1.0000000
****
N     0
S    6   1.00
   4173.5110000              0.0018348
    627.4579000              0.0139950
    142.9021000              0.0685870
     40.2343300              0.2322410
     12.8202100              0.4690700
      4.3904370              0.3604550
SP   3   1.00
     11.6263580             -0.1149610              0.0675800
      2.7162800             -0.1691180              0.3239070
      0.7722180              1.1458520              0.7408950
SP   1   1.00
      0.2120313              1.0000000              1.0000000
D    1   1.00
      1.8260000              1.0000000
D    1   1.00
      0.4565000              1.0000000
F    1   1.00
      1.0000000              1.0000000
****
O     0
S    6   1.00
   5484.6717000              0.0018311
    825.2349500              0.0139501
    188.0469600              0.0684451
     52.9645000              0.2327143
     16.8975700              0.4701930
      5.7996353              0.3585209
SP   3   1.00
     15.5396160             -0.1107775              0.0708743
      3.5999336             -0.1480263              0.3397528
      1.0137618              1.1307670              0.7271586
SP   1   1.00
      0.2700058              1.0000000              1.0000000
D    1   1.00
      2.5840000              1.0000000
D    1   1.00
      0.6460000              1.0000000
F    1   1.00
      1.4000000              1.0000000
****
F     0
S    6   1.00
   7001.7130900              0.0018196169
   1051.3660900              0.0139160796
    239.2856900              0.0684053245
     67.3974453              0.233185760
     21.5199573              0.471267439
      7.40310130             0.356618546
SP   3   1.00
     20.8479528             -0.108506975            0.0716287243
      4.80830834            -0.146451658            0.3459121030
      1.34406986             1.128688580            0.7224699570
SP   1   1.00
      0.358151393            1.0000000              1.0000000
D    1   1.00
      3.5000000              1.0000000
D    1   1.00
      0.8750000              1.0000000
F    1   1.00
      1.8500000              1.0000000
****
Al     0
S    6   1.00
  13983.1000000              0.00194267
   2098.7500000              0.0148599
    477.7050000              0.0728494
    134.3600000              0.2468300
     42.8709000              0.4872580
     14.5189000              0.3234960
SP   6   1.00
    239.6680000             -0.00292619             0.00460285
     57.4419000             -0.0374080              0.0331990
     18.2859000             -0.1144870              0.1362820
      6.5991400              0.1156350              0.3304760
      2.4904900              0.6125950              0.4491460
      0.9445400              0.3937990              0.2657040
SP   3   1.00
      1.2779000             -0.2276060             -0.0175130
      0.3975900              0.00144583             0.2445330
      0.1600950              1.0927900              0.8049340
SP   1   1.00
      0.0556577              1.0000000              1.0000000
D    1   1.00
      0.6500000              1.0000000
D    1   1.00
      0.1625000              1.0000000
F    1   1.00
      0.2500000              1.0000000
****
Si     0
S    6   1.00
  16115.9000000              0.00195948
   2425.5800000              0.01492880
    553.8670000              0.07284780
    156.3400000              0.24613000
     50.0683000              0.48591400
     17.0178000              0.32500200
SP   6   1.00
    292.7180000             -0.00278094             0.00443826
     69.8731000             -0.03571460             0.03266790
     22.3363000             -0.11498500             0.13472100
      8.1503900              0.09356340             0.32867800
      3.1345800              0.60301700             0.44964000
      1.2254300              0.41895900             0.26137200
SP   3   1.00
      1.7273800             -0.24463000            -0.01779510
      0.5729220              0.00431572             0.25353900
      0.2221920              1.09818000             0.80066900
SP   1   1.00
      0.0778369              1.00000000             1.00000000
D    1   1.00
      0.9000000              1.0000000
D    1   1.00
      0.2250000              1.0000000
F    1   1.00
      0.3200000              1.0000000
****
P     0
S    6   1.00
  19413.3000000              0.0018516
   2909.4200000              0.0142062
    661.3640000              0.0699995
    185.7590000              0.2400790
     59.1943000              0.4847620
     20.0310000              0.3352000
SP   6   1.00
    339.4780000             -0.00278217             0.00456462
     81.0101000             -0.0360499              0.03369360
     25.8780000             -0.1166310              0.13975500
      9.4522100              0.0968328              0.33936200
      3.6656600              0.6144180              0.45092100
      1.4674600              0.4037980              0.23858600
SP   3   1.00
      2.1562300             -0.2529230             -0.01776530
      0.7489970              0.0328517              0.27405800
      0.2831450              1.0812500              0.78542100
SP   1   1.00
      0.0998317              1.0000000              1.00000000
D    1   1.00
      1.1000000              1.0000000
D    1   1.00
      0.2750000              1.0000000
F    1   1.00
      0.4500000              1.0000000
****
S     0
S    6   1.00
  21917.1000000              0.0018690
   3301.4900000              0.0142300
    754.1460000              0.0696960
    212.7110000              0.2384870
     67.9896000              0.4833070
     23.0515000              0.3380740
SP   6   1.00
    423.7350000             -0.0023767              0.0040610
    100.7100000             -0.0316930              0.0306810
     32.1599000             -0.1133170              0.1304520
     11.8079000              0.0560900              0.3272050
      4.6311000              0.5922550              0.4528510
      1.8702500              0.4550060              0.2560420
SP   3   1.00
      2.6158400             -0.2503740             -0.0145110
      0.9221670              0.0669570              0.3102630
      0.3412870              1.0545100              0.7544830
SP   1   1.00
      0.1171670              1.0000000              1.0000000
D    1   1.00
      1.3000000              1.0000000
D    1   1.00
      0.3250000              1.0000000
F    1   1.00
      0.5500000              1.0000000
****
Cl     0
S    6   1.00
  25180.1000000              0.0018330
   3780.3500000              0.0140340
    860.4740000              0.0690970
    242.1450000              0.2374520
     77.3349000              0.4830340
     26.2470000              0.3398560
SP   6   1.00
    491.7650000             -0.0022974              0.0039894
    116.9840000             -0.0307140              0.0303180
     37.4153000             -0.1125280              0.1298800
     13.7834000              0.0450160              0.3279510
      5.4521500              0.5893530              0.4535270
      2.2258800              0.4652060              0.2521540
SP   3   1.00
      3.1864900             -0.2518300             -0.0142990
      1.1442700              0.0615890              0.3235720
      0.4203770              1.0601800              0.7435070
SP   1   1.00
      0.1426570              1.0000000              1.0000000
D    1   1.00
      1.5000000              1.0000000
D    1   1.00
      0.3750000              1.0000000
F    1   1.00
      0.7000000              1.0000000
****
}

set {
reference uhf
freeze_core true
e_convergence 10
d_convergence 10
dft_spherical_points 1202
dft_radial_points 99
}

e = energy('b3lyp')

print_out('Grab this energy {0}'.format(e))
--------------------------------------------------------------------------

    Molecular point group: c1

    Geometry (in Bohr), charge = 0, multiplicity = 2:

       Center              X                  Y                   Z               Mass
    ------------   -----------------  -----------------  -----------------  -----------------
         C           -0.323340276350    -0.000002050693     0.000000010665    12.000000000000
         C            0.061140225750    -1.402405262593    -2.425498279435    12.000000000000
         C            0.061020384950     2.801759094407    -0.001764271735    12.000000000000
         C            0.061140139750    -1.399349551793     2.427262533865    12.000000000000
         H            2.086935265550    -1.647723467293    -2.845352965535     1.007825032230
         H           -0.768440330750    -0.385607122793    -4.022449761235     1.007825032230
         H           -0.762533357950    -3.293303747293    -2.352759525435     1.007825032230
         H            2.086796572250     3.288107126507    -0.004184134135     1.007825032230
         H           -0.768681445950     3.676321351807     1.677248037165     1.007825032230
         H           -0.762611330750     3.684172827807    -1.675743265235     1.007825032230
         H            2.086935719750    -1.640476145993     2.849536112565     1.007825032230
         H           -0.768603941850    -3.290680887593     2.345208591865     1.007825032230
         H           -0.762370506750    -0.390836479393     4.028496989065     1.007825032230

  Charge       = 0
  Multiplicity = 2
  Basis Set: ANONYMOUSD1BF10FC
    Blend: 6-31G_2DFP_
  Basis Set: (ANONYMOUSD1BF10FC AUX)
    Blend: DEF2-UNIVERSAL-JKFIT

    Orbital Energies [Eh]
    ---------------------

    Alpha Occupied:

       1A    -10.180342     2A    -10.167030     3A    -10.167030
       4A    -10.166984     5A     -0.797766     6A     -0.686187
       7A     -0.686187     8A     -0.530778     9A     -0.441123
      10A     -0.434674    11A     -0.434674    12A     -0.382598
      13A     -0.382596    14A     -0.363608    15A     -0.337997
      16A     -0.337997    17A     -0.168961

    Alpha Virtual:

      18A      0.076072    19A      0.134152    20A      0.134153
      21A      0.142630    22A      0.142630    23A      0.154879
      24A      0.178779    25A      0.178779    26A      0.203518
      27A      0.214831    28A      0.275984    29A      0.275986
      30A      0.399228    31A      0.399232    32A      0.403343
      33A      0.424098    34A      0.424098    35A      0.456590
      36A      0.495390    37A      0.495391    38A      0.512157
      39A      0.513982    40A      0.578814    41A      0.578822
      42A      0.591634    43A      0.591635    44A      0.602569
      45A      0.624761    46A      0.631784    47A      0.636241
      48A      0.636245    49A      0.663411    50A      0.663412
      51A      0.683855    52A      0.683856    53A      0.734993
      54A      0.825405    55A      0.825408    56A      0.853913
      57A      0.915024    58A      0.915030    59A      0.944094
      60A      0.944638    61A      0.961281    62A      0.961298
      63A      1.003459    64A      1.128102    65A      1.128114
      66A      1.142208    67A      1.163258    68A      1.163271
      69A      1.223320    70A      1.274502    71A      1.274505
      72A      1.279343    73A      1.324351    74A      1.324353
      75A      1.355983    76A      1.366050    77A      1.366054
      78A      1.392485    79A      1.404021    80A      1.404023
      81A      1.417136    82A      1.417142    83A      1.427924
      84A      1.491452    85A      1.499114    86A      1.542830
      87A      1.542832    88A      1.574446    89A      1.574448
      90A      1.669832    91A      1.739419    92A      1.739430
      93A      1.768314    94A      1.831399    95A      1.831399
      96A      1.971727    97A      2.018314    98A      2.019040
      99A      2.019044   100A      2.052641   101A      2.052641
     102A      2.738484   103A      2.738485   104A      2.790916
     105A      2.811434   106A      2.889949   107A      2.889955
     108A      2.894936   109A      2.929491   110A      2.929499
     111A      2.958989   112A      2.964374   113A      2.964388
     114A      3.034004   115A      3.071287   116A      3.071301
     117A      3.084363   118A      3.168777   119A      3.168784
     120A      3.180595   121A      3.285316   122A      3.285316
     123A      3.327153   124A      3.327159   125A      3.375597
     126A      3.490148   127A      3.490169   128A      3.513971
     129A      3.525365   130A      3.568388   131A      3.568409
     132A      3.575165   133A      3.666368   134A      3.666376
     135A      3.679656   136A      3.694103   137A      3.694120
     138A      3.776786   139A      3.776812   140A      3.789114
     141A      3.912253   142A      3.912259   143A      4.034451
     144A      4.111316   145A      4.111320   146A      4.148173
     147A      4.148181   148A      4.173041   149A      4.202583
     150A      4.203094   151A      4.203097   152A      4.211127
     153A      4.315948   154A      4.315967   155A      4.358970
     156A      4.424447   157A      4.424450   158A      4.443432
     159A      4.516845   160A      4.516846   161A      4.578273
     162A      4.578285   163A      4.617503   164A      4.709386
     165A      4.774582   166A      4.774589   167A      4.836985
     168A      4.962872   169A      5.002952   170A      5.002964
     171A      5.228021   172A      5.246756   173A      5.246756
     174A      5.355536   175A      5.355549   176A      5.479359

    Beta Occupied:

       1A    -10.167783     2A    -10.167783     3A    -10.167758
       4A    -10.166520     5A     -0.781091     6A     -0.683990
       7A     -0.683989     8A     -0.511750     9A     -0.431045
      10A     -0.431044    11A     -0.421822    12A     -0.376683
      13A     -0.376682    14A     -0.362592    15A     -0.333121
      16A     -0.333120

    Beta Virtual:

      17A     -0.025742    18A      0.077081    19A      0.135042
      20A      0.135043    21A      0.144500    22A      0.144500
      23A      0.163338    24A      0.182449    25A      0.182450
      26A      0.214948    27A      0.219014    28A      0.282332
      29A      0.282334    30A      0.400397    31A      0.400401
      32A      0.419791    33A      0.426909    34A      0.426909
      35A      0.468497    36A      0.497650    37A      0.497651
      38A      0.513897    39A      0.556324    40A      0.584364
      41A      0.584372    42A      0.597813    43A      0.597814
      44A      0.609994    45A      0.628131    46A      0.631944
      47A      0.639527    48A      0.639531    49A      0.666976
      50A      0.666976    51A      0.686489    52A      0.686491
      53A      0.757516    54A      0.830574    55A      0.830576
      56A      0.855267    57A      0.922995    58A      0.923002
      59A      0.945955    60A      0.953542    61A      0.966587
      62A      0.966603    63A      1.008699    64A      1.132129
      65A      1.132141    66A      1.155587    67A      1.168334
      68A      1.168346    69A      1.232293    70A      1.280098
      71A      1.280101    72A      1.285094    73A      1.329340
      74A      1.329342    75A      1.365399    76A      1.371291
      77A      1.371296    78A      1.393542    79A      1.407491
      80A      1.407494    81A      1.422183    82A      1.422189
      83A      1.428193    84A      1.492521    85A      1.509537
      86A      1.547240    87A      1.547240    88A      1.582317
      89A      1.582318    90A      1.674679    91A      1.745180
      92A      1.745191    93A      1.779095    94A      1.835254
      95A      1.835254    96A      1.972592    97A      2.025444
      98A      2.025447    99A      2.039684   100A      2.059354
     101A      2.059354   102A      2.746820   103A      2.746821
     104A      2.811819   105A      2.816078   106A      2.902636
     107A      2.902641   108A      2.924641   109A      2.931970
     110A      2.931979   111A      2.960060   112A      2.968919
     113A      2.968934   114A      3.041932   115A      3.081199
     116A      3.081210   117A      3.086184   118A      3.184533
     119A      3.184537   120A      3.188267   121A      3.290115
     122A      3.290115   123A      3.330957   124A      3.330963
     125A      3.383415   126A      3.492880   127A      3.492900
     128A      3.512344   129A      3.528400   130A      3.575029
     131A      3.581724   132A      3.581746   133A      3.671111
     134A      3.671122   135A      3.692947   136A      3.725742
     137A      3.725758   138A      3.781309   139A      3.781335
     140A      3.817660   141A      3.922069   142A      3.922076
     143A      4.045340   144A      4.118127   145A      4.118129
     146A      4.155390   147A      4.155399   148A      4.187031
     149A      4.209029   150A      4.209032   151A      4.210504
     152A      4.215715   153A      4.323388   154A      4.323408
     155A      4.362333   156A      4.432665   157A      4.432667
     158A      4.446312   159A      4.524635   160A      4.524636
     161A      4.588874   162A      4.588886   163A      4.624696
     164A      4.719726   165A      4.781535   166A      4.781543
     167A      4.839906   168A      4.967666   169A      5.006991
     170A      5.007003   171A      5.233737   172A      5.248542
     173A      5.248542   174A      5.362014   175A      5.362027
     176A      5.481681

    Final Occupation by Irrep:
              A
    DOCC [    16 ]
    SOCC [     1 ]

  @DF-UKS Final Energy:  -157.81306488250996

   => Energetics <=

    Nuclear Repulsion Energy =            125.3946090035880871
    One-Electron Energy =                -458.7488767994182126
    Two-Electron Energy =                 195.8483442942046793
    DFT Exchange-Correlation Energy =     -20.3071413808845129
    Empirical Dispersion Energy =           0.0000000000000000
    VV10 Nonlocal Energy =                  0.0000000000000000
    Total Energy =                       -157.8130648825099627

  UHF NO Occupations:
  HONO-2 :   15  A 1.9996009
  HONO-1 :   16  A 1.9989805
  HONO-0 :   17  A 1.0000000
  LUNO+0 :   18  A 0.0010195
  LUNO+1 :   19  A 0.0003991
  LUNO+2 :   20  A 0.0001975
  LUNO+3 :   21  A 0.0001975

Computation Completed

Properties will be evaluated at   0.000000,   0.000000,   0.000000 [a0]

Properties computed using the SCF density matrix

  Nuclear Dipole Moment: [e a0]
     X:     0.8272      Y:    -0.0000      Z:     0.0000

  Electronic Dipole Moment: [e a0]
     X:    -0.7493      Y:     0.0000      Z:    -0.0000

  Dipole Moment: [e a0]
     X:     0.0779      Y:     0.0000      Z:    -0.0000     Total:     0.0779

  Dipole Moment: [D]
     X:     0.1980      Y:     0.0000      Z:    -0.0000     Total:     0.1980

*** tstop() called on n079 at Fri Nov  5 14:43:01 2021
Module time:
	user time   =     466.87 seconds =       7.78 minutes
	system time =       4.47 seconds =       0.07 minutes
	total time  =        119 seconds =       1.98 minutes
Total time:
	user time   =     466.87 seconds =       7.78 minutes
	system time =       4.47 seconds =       0.07 minutes
	total time  =        119 seconds =       1.98 minutes
Grab this energy -157.81306488250996
    Psi4 stopped on: Friday, 05 November 2021 02:43PM
    Psi4 wall time for execution: 0:01:58.56

*** Psi4 exiting successfully. Buy a developer a beer!
