                               Psi4 1.4a2.dev629

  ==> Input File <==

--------------------------------------------------------------------------
import os
memory 14 GB

molecule {
 C   -0.3247918154   -0.0000023386    0.0004937733
 C    0.0619133477   -1.4004762183   -2.4256444901
 C    0.0618765805    2.8016633313    0.0000406379
 C    0.0620797059   -1.4011835259    2.4269508463
 H    2.0905110285   -1.6438914387   -2.8471103442
 H   -0.7674058678   -0.3854439991   -4.0278866374
 H   -0.7676610003   -3.2949395860   -2.3475202131
 H    2.0867494815    3.2881443484   -0.0000273470
 H   -0.7658994294    3.6797560520    1.6761158727
 H   -0.7657170967    3.6807453638   -1.6767721427
 H    2.0832664240   -1.6443449726    2.8478419761
 H   -0.7638006685   -3.2889592385    2.3505038299
 H   -0.7637285667   -0.3910920915    4.0230142383
units bohr
0 2
}

basis {

assign 6-31g_2dfp_

[ 6-31g_2dfp_ ]

spherical

!----------------------------------------------------------------------
! Basis Set Exchange
! Version v0.8.13
! https://www.basissetexchange.org
!----------------------------------------------------------------------
!   Basis set: 6-31G(2df,p)
! Description: 6-31G(2df,p)
!        Role: orbital
!     Version: 0  (Data from the original Basis Set Exchange)
!----------------------------------------------------------------------

****
H     0
S    3   1.00
     18.7311370              0.03349460
      2.8253937              0.23472695
      0.6401217              0.81375733
S    1   1.00
      0.1612778              1.00000000
P    1   1.00
      1.5000000              1.0000000
P    1   1.00
      0.3750000              1.0000000
****
B     0
S    6   1.00
   2068.8823000              0.0018663
    310.6495700              0.0142515
     70.6830330              0.0695516
     19.8610800              0.2325729
      6.2993048              0.4670787
      2.1270270              0.3634314
SP   3   1.00
      4.7279710             -0.1303938              0.0745976
      1.1903377             -0.1307889              0.3078467
      0.3594117              1.1309444              0.7434568
SP   1   1.00
      0.1267512              1.0000000              1.0000000
D    1   1.00
      0.8020000              1.0000000
D    1   1.00
      0.2005000              1.0000000
F    1   1.00
      0.5000000              1.0000000
****
C     0
S    6   1.00
   3047.5249000              0.0018347
    457.3695100              0.0140373
    103.9486900              0.0688426
     29.2101550              0.2321844
      9.2866630              0.4679413
      3.1639270              0.3623120
SP   3   1.00
      7.8682724             -0.1193324              0.0689991
      1.8812885             -0.1608542              0.3164240
      0.5442493              1.1434564              0.7443083
SP   1   1.00
      0.1687144              1.0000000              1.0000000
D    1   1.00
      1.2520000              1.0000000
D    1   1.00
      0.3130000              1.0000000
F    1   1.00
      0.8000000              1.0000000
****
N     0
S    6   1.00
   4173.5110000              0.0018348
    627.4579000              0.0139950
    142.9021000              0.0685870
     40.2343300              0.2322410
     12.8202100              0.4690700
      4.3904370              0.3604550
SP   3   1.00
     11.6263580             -0.1149610              0.0675800
      2.7162800             -0.1691180              0.3239070
      0.7722180              1.1458520              0.7408950
SP   1   1.00
      0.2120313              1.0000000              1.0000000
D    1   1.00
      1.8260000              1.0000000
D    1   1.00
      0.4565000              1.0000000
F    1   1.00
      1.0000000              1.0000000
****
O     0
S    6   1.00
   5484.6717000              0.0018311
    825.2349500              0.0139501
    188.0469600              0.0684451
     52.9645000              0.2327143
     16.8975700              0.4701930
      5.7996353              0.3585209
SP   3   1.00
     15.5396160             -0.1107775              0.0708743
      3.5999336             -0.1480263              0.3397528
      1.0137618              1.1307670              0.7271586
SP   1   1.00
      0.2700058              1.0000000              1.0000000
D    1   1.00
      2.5840000              1.0000000
D    1   1.00
      0.6460000              1.0000000
F    1   1.00
      1.4000000              1.0000000
****
F     0
S    6   1.00
   7001.7130900              0.0018196169
   1051.3660900              0.0139160796
    239.2856900              0.0684053245
     67.3974453              0.233185760
     21.5199573              0.471267439
      7.40310130             0.356618546
SP   3   1.00
     20.8479528             -0.108506975            0.0716287243
      4.80830834            -0.146451658            0.3459121030
      1.34406986             1.128688580            0.7224699570
SP   1   1.00
      0.358151393            1.0000000              1.0000000
D    1   1.00
      3.5000000              1.0000000
D    1   1.00
      0.8750000              1.0000000
F    1   1.00
      1.8500000              1.0000000
****
Al     0
S    6   1.00
  13983.1000000              0.00194267
   2098.7500000              0.0148599
    477.7050000              0.0728494
    134.3600000              0.2468300
     42.8709000              0.4872580
     14.5189000              0.3234960
SP   6   1.00
    239.6680000             -0.00292619             0.00460285
     57.4419000             -0.0374080              0.0331990
     18.2859000             -0.1144870              0.1362820
      6.5991400              0.1156350              0.3304760
      2.4904900              0.6125950              0.4491460
      0.9445400              0.3937990              0.2657040
SP   3   1.00
      1.2779000             -0.2276060             -0.0175130
      0.3975900              0.00144583             0.2445330
      0.1600950              1.0927900              0.8049340
SP   1   1.00
      0.0556577              1.0000000              1.0000000
D    1   1.00
      0.6500000              1.0000000
D    1   1.00
      0.1625000              1.0000000
F    1   1.00
      0.2500000              1.0000000
****
Si     0
S    6   1.00
  16115.9000000              0.00195948
   2425.5800000              0.01492880
    553.8670000              0.07284780
    156.3400000              0.24613000
     50.0683000              0.48591400
     17.0178000              0.32500200
SP   6   1.00
    292.7180000             -0.00278094             0.00443826
     69.8731000             -0.03571460             0.03266790
     22.3363000             -0.11498500             0.13472100
      8.1503900              0.09356340             0.32867800
      3.1345800              0.60301700             0.44964000
      1.2254300              0.41895900             0.26137200
SP   3   1.00
      1.7273800             -0.24463000            -0.01779510
      0.5729220              0.00431572             0.25353900
      0.2221920              1.09818000             0.80066900
SP   1   1.00
      0.0778369              1.00000000             1.00000000
D    1   1.00
      0.9000000              1.0000000
D    1   1.00
      0.2250000              1.0000000
F    1   1.00
      0.3200000              1.0000000
****
P     0
S    6   1.00
  19413.3000000              0.0018516
   2909.4200000              0.0142062
    661.3640000              0.0699995
    185.7590000              0.2400790
     59.1943000              0.4847620
     20.0310000              0.3352000
SP   6   1.00
    339.4780000             -0.00278217             0.00456462
     81.0101000             -0.0360499              0.03369360
     25.8780000             -0.1166310              0.13975500
      9.4522100              0.0968328              0.33936200
      3.6656600              0.6144180              0.45092100
      1.4674600              0.4037980              0.23858600
SP   3   1.00
      2.1562300             -0.2529230             -0.01776530
      0.7489970              0.0328517              0.27405800
      0.2831450              1.0812500              0.78542100
SP   1   1.00
      0.0998317              1.0000000              1.00000000
D    1   1.00
      1.1000000              1.0000000
D    1   1.00
      0.2750000              1.0000000
F    1   1.00
      0.4500000              1.0000000
****
S     0
S    6   1.00
  21917.1000000              0.0018690
   3301.4900000              0.0142300
    754.1460000              0.0696960
    212.7110000              0.2384870
     67.9896000              0.4833070
     23.0515000              0.3380740
SP   6   1.00
    423.7350000             -0.0023767              0.0040610
    100.7100000             -0.0316930              0.0306810
     32.1599000             -0.1133170              0.1304520
     11.8079000              0.0560900              0.3272050
      4.6311000              0.5922550              0.4528510
      1.8702500              0.4550060              0.2560420
SP   3   1.00
      2.6158400             -0.2503740             -0.0145110
      0.9221670              0.0669570              0.3102630
      0.3412870              1.0545100              0.7544830
SP   1   1.00
      0.1171670              1.0000000              1.0000000
D    1   1.00
      1.3000000              1.0000000
D    1   1.00
      0.3250000              1.0000000
F    1   1.00
      0.5500000              1.0000000
****
Cl     0
S    6   1.00
  25180.1000000              0.0018330
   3780.3500000              0.0140340
    860.4740000              0.0690970
    242.1450000              0.2374520
     77.3349000              0.4830340
     26.2470000              0.3398560
SP   6   1.00
    491.7650000             -0.0022974              0.0039894
    116.9840000             -0.0307140              0.0303180
     37.4153000             -0.1125280              0.1298800
     13.7834000              0.0450160              0.3279510
      5.4521500              0.5893530              0.4535270
      2.2258800              0.4652060              0.2521540
SP   3   1.00
      3.1864900             -0.2518300             -0.0142990
      1.1442700              0.0615890              0.3235720
      0.4203770              1.0601800              0.7435070
SP   1   1.00
      0.1426570              1.0000000              1.0000000
D    1   1.00
      1.5000000              1.0000000
D    1   1.00
      0.3750000              1.0000000
F    1   1.00
      0.7000000              1.0000000
****
}

set {
reference uhf
freeze_core true
e_convergence 10
d_convergence 10
dft_spherical_points 1202
dft_radial_points 99
}

e = energy('b3lyp')

print_out('Grab this energy {0}'.format(e))
--------------------------------------------------------------------------

    Molecular point group: c1

    Geometry (in Bohr), charge = 0, multiplicity = 2:

       Center              X                  Y                   Z               Mass
    ------------   -----------------  -----------------  -----------------  -----------------
         C           -0.325007112414    -0.000002149707     0.000139228240    12.000000000000
         C            0.061698050686    -1.400476029407    -2.425999035160    12.000000000000
         C            0.061661283486     2.801663520193    -0.000313907160    12.000000000000
         C            0.061864408886    -1.401183337007     2.426596301240    12.000000000000
         H            2.090295731486    -1.643891249807    -2.847464889260     1.007825032230
         H           -0.767621164814    -0.385443810207    -4.028241182460     1.007825032230
         H           -0.767876297314    -3.294939397107    -2.347874758160     1.007825032230
         H            2.086534184486     3.288144537293    -0.000381892060     1.007825032230
         H           -0.766114726414     3.679756240893     1.675761327640     1.007825032230
         H           -0.765932393714     3.680745552693    -1.677126687760     1.007825032230
         H            2.083051126986    -1.644344783707     2.847487431040     1.007825032230
         H           -0.764015965514    -3.288959049607     2.350149284840     1.007825032230
         H           -0.763943863714    -0.391091902607     4.022659693240     1.007825032230

  Charge       = 0
  Multiplicity = 2
  Basis Set: ANONYMOUS05CF5F4B
    Blend: 6-31G_2DFP_
  Basis Set: (ANONYMOUS05CF5F4B AUX)
    Blend: DEF2-UNIVERSAL-JKFIT

    Orbital Energies [Eh]
    ---------------------

    Alpha Occupied:

       1A    -10.180408     2A    -10.167587     3A    -10.167007
       4A    -10.166425     5A     -0.797751     6A     -0.686492
       7A     -0.685848     8A     -0.530781     9A     -0.441182
      10A     -0.434695    11A     -0.434522    12A     -0.382929
      13A     -0.382483    14A     -0.363486    15A     -0.337938
      16A     -0.337875    17A     -0.169145

    Alpha Virtual:

      18A      0.076074    19A      0.134141    20A      0.134148
      21A      0.142510    22A      0.142712    23A      0.154954
      24A      0.178526    25A      0.179172    26A      0.203573
      27A      0.214757    28A      0.275768    29A      0.275858
      30A      0.399129    31A      0.399288    32A      0.403264
      33A      0.423973    34A      0.424164    35A      0.456685
      36A      0.495294    37A      0.495434    38A      0.512207
      39A      0.513879    40A      0.578821    41A      0.579066
      42A      0.591350    43A      0.591952    44A      0.602809
      45A      0.624685    46A      0.631633    47A      0.635749
      48A      0.636513    49A      0.663389    50A      0.663756
      51A      0.683435    52A      0.684065    53A      0.734797
      54A      0.824950    55A      0.825746    56A      0.853919
      57A      0.914951    58A      0.914974    59A      0.944178
      60A      0.944660    61A      0.961063    62A      0.961563
      63A      1.003456    64A      1.127878    65A      1.128535
      66A      1.142237    67A      1.163611    68A      1.163787
      69A      1.223162    70A      1.274245    71A      1.274606
      72A      1.279593    73A      1.323751    74A      1.324457
      75A      1.356217    76A      1.365415    77A      1.365943
      78A      1.392463    79A      1.403709    80A      1.404474
      81A      1.417030    82A      1.417658    83A      1.427964
      84A      1.491309    85A      1.499477    86A      1.542827
      87A      1.542938    88A      1.573885    89A      1.574446
      90A      1.669529    91A      1.739076    92A      1.739245
      93A      1.768379    94A      1.829447    95A      1.832642
      96A      1.971437    97A      2.017180    98A      2.019294
      99A      2.019492   100A      2.052987   101A      2.053122
     102A      2.737845   103A      2.738735   104A      2.791121
     105A      2.811398   106A      2.889409   107A      2.889962
     108A      2.895293   109A      2.929408   110A      2.929619
     111A      2.958938   112A      2.963747   113A      2.964799
     114A      3.034369   115A      3.070216   116A      3.070658
     117A      3.084307   118A      3.168774   119A      3.169029
     120A      3.180562   121A      3.286041   122A      3.286183
     123A      3.327481   124A      3.327564   125A      3.375777
     126A      3.489103   127A      3.490766   128A      3.513838
     129A      3.525805   130A      3.568043   131A      3.568120
     132A      3.575803   133A      3.665039   134A      3.666501
     135A      3.679426   136A      3.693733   137A      3.694673
     138A      3.775952   139A      3.777131   140A      3.787853
     141A      3.911752   142A      3.912634   143A      4.034128
     144A      4.110352   145A      4.111800   146A      4.146055
     147A      4.150037   148A      4.173263   149A      4.200693
     150A      4.203141   151A      4.205074   152A      4.211221
     153A      4.315454   154A      4.316854   155A      4.359428
     156A      4.424013   157A      4.424486   158A      4.443292
     159A      4.516904   160A      4.517342   161A      4.577982
     162A      4.578850   163A      4.617033   164A      4.709808
     165A      4.774332   166A      4.774547   167A      4.835676
     168A      4.962964   169A      5.002547   170A      5.003686
     171A      5.227730   172A      5.243006   173A      5.250373
     174A      5.352299   175A      5.358347   176A      5.479067

    Beta Occupied:

       1A    -10.168346     2A    -10.167765     3A    -10.167185
       4A    -10.166576     5A     -0.781081     6A     -0.684292
       7A     -0.683649     8A     -0.511744     9A     -0.431067
      10A     -0.430872    11A     -0.421911    12A     -0.377033
      13A     -0.376570    14A     -0.362469    15A     -0.333058
      16A     -0.333009

    Beta Virtual:

      17A     -0.025844    18A      0.077078    19A      0.134965
      20A      0.135085    21A      0.144430    22A      0.144537
      23A      0.163403    24A      0.182207    25A      0.182835
      26A      0.214987    27A      0.218933    28A      0.282126
      29A      0.282221    30A      0.400294    31A      0.400461
      32A      0.419685    33A      0.426784    34A      0.426980
      35A      0.468607    36A      0.497559    37A      0.497699
      38A      0.513938    39A      0.556224    40A      0.584349
      41A      0.584609    42A      0.597560    43A      0.598117
      44A      0.610202    45A      0.628084    46A      0.631828
      47A      0.639042    48A      0.639764    49A      0.666942
      50A      0.667337    51A      0.686099    52A      0.686660
      53A      0.757341    54A      0.830096    55A      0.830944
      56A      0.855269    57A      0.922934    58A      0.922953
      59A      0.946012    60A      0.953582    61A      0.966364
      62A      0.966808    63A      1.008714    64A      1.131899
      65A      1.132587    66A      1.155583    67A      1.168669
      68A      1.168871    69A      1.232132    70A      1.279856
      71A      1.280221    72A      1.285354    73A      1.328702
      74A      1.329502    75A      1.365600    76A      1.370670
      77A      1.371172    78A      1.393515    79A      1.407156
      80A      1.407958    81A      1.422013    82A      1.422731
      83A      1.428238    84A      1.492356    85A      1.509927
      86A      1.547187    87A      1.547390    88A      1.581766
      89A      1.582309    90A      1.674390    91A      1.744855
      92A      1.744990    93A      1.779136    94A      1.833323
      95A      1.836460    96A      1.972299    97A      2.025700
      98A      2.025759    99A      2.038674   100A      2.059663
     101A      2.059919   102A      2.746166   103A      2.747084
     104A      2.811819   105A      2.816238   106A      2.902234
     107A      2.902625   108A      2.924959   109A      2.931927
     110A      2.932040   111A      2.960001   112A      2.968262
     113A      2.969394   114A      3.042262   115A      3.080094
     116A      3.080648   117A      3.086150   118A      3.184379
     119A      3.184709   120A      3.188309   121A      3.290774
     122A      3.290969   123A      3.331313   124A      3.331356
     125A      3.383605   126A      3.491883   127A      3.493483
     128A      3.512206   129A      3.528859   130A      3.575565
     131A      3.581473   132A      3.581556   133A      3.669721
     134A      3.671287   135A      3.692742   136A      3.725348
     137A      3.726292   138A      3.780555   139A      3.781667
     140A      3.816390   141A      3.921545   142A      3.922401
     143A      4.045039   144A      4.117360   145A      4.118372
     146A      4.153502   147A      4.157066   148A      4.187274
     149A      4.207556   150A      4.209268   151A      4.211937
     152A      4.215683   153A      4.323038   154A      4.324187
     155A      4.362793   156A      4.432206   157A      4.432591
     158A      4.446226   159A      4.524738   160A      4.525056
     161A      4.588662   162A      4.589439   163A      4.624216
     164A      4.720177   165A      4.781267   166A      4.781547
     167A      4.838603   168A      4.967757   169A      5.006589
     170A      5.007694   171A      5.233441   172A      5.244799
     173A      5.252160   174A      5.358801   175A      5.364819
     176A      5.481395

    Final Occupation by Irrep:
              A
    DOCC [    16 ]
    SOCC [     1 ]

  @DF-UKS Final Energy:  -157.81304912648085

   => Energetics <=

    Nuclear Repulsion Energy =            125.3922398891508720
    One-Electron Energy =                -458.7442786330708486
    Two-Electron Energy =                 195.8460679346650579
    DFT Exchange-Correlation Energy =     -20.3070783172259226
    Empirical Dispersion Energy =           0.0000000000000000
    VV10 Nonlocal Energy =                  0.0000000000000000
    Total Energy =                       -157.8130491264808484

  UHF NO Occupations:
  HONO-2 :   15  A 1.9996024
  HONO-1 :   16  A 1.9989820
  HONO-0 :   17  A 1.0000000
  LUNO+0 :   18  A 0.0010180
  LUNO+1 :   19  A 0.0003976
  LUNO+2 :   20  A 0.0001977
  LUNO+3 :   21  A 0.0001976

Computation Completed

Properties will be evaluated at   0.000000,   0.000000,   0.000000 [a0]

Properties computed using the SCF density matrix

  Nuclear Dipole Moment: [e a0]
     X:     0.8257      Y:    -0.0000      Z:    -0.0025

  Electronic Dipole Moment: [e a0]
     X:    -0.7470      Y:     0.0000      Z:     0.0049

  Dipole Moment: [e a0]
     X:     0.0787      Y:     0.0000      Z:     0.0024     Total:     0.0787

  Dipole Moment: [D]
     X:     0.2000      Y:     0.0000      Z:     0.0062     Total:     0.2001

*** tstop() called on n051 at Fri Nov  5 11:37:07 2021
Module time:
	user time   =     543.40 seconds =       9.06 minutes
	system time =      11.72 seconds =       0.20 minutes
	total time  =        140 seconds =       2.33 minutes
Total time:
	user time   =     543.40 seconds =       9.06 minutes
	system time =      11.72 seconds =       0.20 minutes
	total time  =        140 seconds =       2.33 minutes
Grab this energy -157.81304912648085
    Psi4 stopped on: Friday, 05 November 2021 11:37AM
    Psi4 wall time for execution: 0:02:19.59

*** Psi4 exiting successfully. Buy a developer a beer!
