                               Psi4 1.4a2.dev629

  ==> Input File <==

--------------------------------------------------------------------------
import os
memory 14 GB

molecule {
 C   -0.3265002400    0.0000049536   -0.0049964659
 C    0.0592921723   -1.4070812405   -2.4309087443
 C    0.0596943953    2.8019247046    0.0062269933
 C    0.0603411741   -1.3948362968    2.4221540309
 H    2.0865940365   -1.6530186329   -2.8517448160
 H   -0.7639148850   -0.3970078495   -4.0324121123
 H   -0.7668476037   -3.2979757557   -2.3487849157
 H    2.0871273016    3.2883421921    0.0111489852
 H   -0.7673901165    3.6723987122    1.6863185886
 H   -0.7618618966    3.6875722280   -1.6674461998
 H    2.0879472124   -1.6354298882    2.8435784334
 H   -0.7622466028   -3.2864421275    2.3483595176
 H   -0.7648428244   -0.3784753129    4.0185067050
units bohr
0 2
}

basis {

assign 6-31g_2dfp_

[ 6-31g_2dfp_ ]

spherical

!----------------------------------------------------------------------
! Basis Set Exchange
! Version v0.8.13
! https://www.basissetexchange.org
!----------------------------------------------------------------------
!   Basis set: 6-31G(2df,p)
! Description: 6-31G(2df,p)
!        Role: orbital
!     Version: 0  (Data from the original Basis Set Exchange)
!----------------------------------------------------------------------

****
H     0
S    3   1.00
     18.7311370              0.03349460
      2.8253937              0.23472695
      0.6401217              0.81375733
S    1   1.00
      0.1612778              1.00000000
P    1   1.00
      1.5000000              1.0000000
P    1   1.00
      0.3750000              1.0000000
****
B     0
S    6   1.00
   2068.8823000              0.0018663
    310.6495700              0.0142515
     70.6830330              0.0695516
     19.8610800              0.2325729
      6.2993048              0.4670787
      2.1270270              0.3634314
SP   3   1.00
      4.7279710             -0.1303938              0.0745976
      1.1903377             -0.1307889              0.3078467
      0.3594117              1.1309444              0.7434568
SP   1   1.00
      0.1267512              1.0000000              1.0000000
D    1   1.00
      0.8020000              1.0000000
D    1   1.00
      0.2005000              1.0000000
F    1   1.00
      0.5000000              1.0000000
****
C     0
S    6   1.00
   3047.5249000              0.0018347
    457.3695100              0.0140373
    103.9486900              0.0688426
     29.2101550              0.2321844
      9.2866630              0.4679413
      3.1639270              0.3623120
SP   3   1.00
      7.8682724             -0.1193324              0.0689991
      1.8812885             -0.1608542              0.3164240
      0.5442493              1.1434564              0.7443083
SP   1   1.00
      0.1687144              1.0000000              1.0000000
D    1   1.00
      1.2520000              1.0000000
D    1   1.00
      0.3130000              1.0000000
F    1   1.00
      0.8000000              1.0000000
****
N     0
S    6   1.00
   4173.5110000              0.0018348
    627.4579000              0.0139950
    142.9021000              0.0685870
     40.2343300              0.2322410
     12.8202100              0.4690700
      4.3904370              0.3604550
SP   3   1.00
     11.6263580             -0.1149610              0.0675800
      2.7162800             -0.1691180              0.3239070
      0.7722180              1.1458520              0.7408950
SP   1   1.00
      0.2120313              1.0000000              1.0000000
D    1   1.00
      1.8260000              1.0000000
D    1   1.00
      0.4565000              1.0000000
F    1   1.00
      1.0000000              1.0000000
****
O     0
S    6   1.00
   5484.6717000              0.0018311
    825.2349500              0.0139501
    188.0469600              0.0684451
     52.9645000              0.2327143
     16.8975700              0.4701930
      5.7996353              0.3585209
SP   3   1.00
     15.5396160             -0.1107775              0.0708743
      3.5999336             -0.1480263              0.3397528
      1.0137618              1.1307670              0.7271586
SP   1   1.00
      0.2700058              1.0000000              1.0000000
D    1   1.00
      2.5840000              1.0000000
D    1   1.00
      0.6460000              1.0000000
F    1   1.00
      1.4000000              1.0000000
****
F     0
S    6   1.00
   7001.7130900              0.0018196169
   1051.3660900              0.0139160796
    239.2856900              0.0684053245
     67.3974453              0.233185760
     21.5199573              0.471267439
      7.40310130             0.356618546
SP   3   1.00
     20.8479528             -0.108506975            0.0716287243
      4.80830834            -0.146451658            0.3459121030
      1.34406986             1.128688580            0.7224699570
SP   1   1.00
      0.358151393            1.0000000              1.0000000
D    1   1.00
      3.5000000              1.0000000
D    1   1.00
      0.8750000              1.0000000
F    1   1.00
      1.8500000              1.0000000
****
Al     0
S    6   1.00
  13983.1000000              0.00194267
   2098.7500000              0.0148599
    477.7050000              0.0728494
    134.3600000              0.2468300
     42.8709000              0.4872580
     14.5189000              0.3234960
SP   6   1.00
    239.6680000             -0.00292619             0.00460285
     57.4419000             -0.0374080              0.0331990
     18.2859000             -0.1144870              0.1362820
      6.5991400              0.1156350              0.3304760
      2.4904900              0.6125950              0.4491460
      0.9445400              0.3937990              0.2657040
SP   3   1.00
      1.2779000             -0.2276060             -0.0175130
      0.3975900              0.00144583             0.2445330
      0.1600950              1.0927900              0.8049340
SP   1   1.00
      0.0556577              1.0000000              1.0000000
D    1   1.00
      0.6500000              1.0000000
D    1   1.00
      0.1625000              1.0000000
F    1   1.00
      0.2500000              1.0000000
****
Si     0
S    6   1.00
  16115.9000000              0.00195948
   2425.5800000              0.01492880
    553.8670000              0.07284780
    156.3400000              0.24613000
     50.0683000              0.48591400
     17.0178000              0.32500200
SP   6   1.00
    292.7180000             -0.00278094             0.00443826
     69.8731000             -0.03571460             0.03266790
     22.3363000             -0.11498500             0.13472100
      8.1503900              0.09356340             0.32867800
      3.1345800              0.60301700             0.44964000
      1.2254300              0.41895900             0.26137200
SP   3   1.00
      1.7273800             -0.24463000            -0.01779510
      0.5729220              0.00431572             0.25353900
      0.2221920              1.09818000             0.80066900
SP   1   1.00
      0.0778369              1.00000000             1.00000000
D    1   1.00
      0.9000000              1.0000000
D    1   1.00
      0.2250000              1.0000000
F    1   1.00
      0.3200000              1.0000000
****
P     0
S    6   1.00
  19413.3000000              0.0018516
   2909.4200000              0.0142062
    661.3640000              0.0699995
    185.7590000              0.2400790
     59.1943000              0.4847620
     20.0310000              0.3352000
SP   6   1.00
    339.4780000             -0.00278217             0.00456462
     81.0101000             -0.0360499              0.03369360
     25.8780000             -0.1166310              0.13975500
      9.4522100              0.0968328              0.33936200
      3.6656600              0.6144180              0.45092100
      1.4674600              0.4037980              0.23858600
SP   3   1.00
      2.1562300             -0.2529230             -0.01776530
      0.7489970              0.0328517              0.27405800
      0.2831450              1.0812500              0.78542100
SP   1   1.00
      0.0998317              1.0000000              1.00000000
D    1   1.00
      1.1000000              1.0000000
D    1   1.00
      0.2750000              1.0000000
F    1   1.00
      0.4500000              1.0000000
****
S     0
S    6   1.00
  21917.1000000              0.0018690
   3301.4900000              0.0142300
    754.1460000              0.0696960
    212.7110000              0.2384870
     67.9896000              0.4833070
     23.0515000              0.3380740
SP   6   1.00
    423.7350000             -0.0023767              0.0040610
    100.7100000             -0.0316930              0.0306810
     32.1599000             -0.1133170              0.1304520
     11.8079000              0.0560900              0.3272050
      4.6311000              0.5922550              0.4528510
      1.8702500              0.4550060              0.2560420
SP   3   1.00
      2.6158400             -0.2503740             -0.0145110
      0.9221670              0.0669570              0.3102630
      0.3412870              1.0545100              0.7544830
SP   1   1.00
      0.1171670              1.0000000              1.0000000
D    1   1.00
      1.3000000              1.0000000
D    1   1.00
      0.3250000              1.0000000
F    1   1.00
      0.5500000              1.0000000
****
Cl     0
S    6   1.00
  25180.1000000              0.0018330
   3780.3500000              0.0140340
    860.4740000              0.0690970
    242.1450000              0.2374520
     77.3349000              0.4830340
     26.2470000              0.3398560
SP   6   1.00
    491.7650000             -0.0022974              0.0039894
    116.9840000             -0.0307140              0.0303180
     37.4153000             -0.1125280              0.1298800
     13.7834000              0.0450160              0.3279510
      5.4521500              0.5893530              0.4535270
      2.2258800              0.4652060              0.2521540
SP   3   1.00
      3.1864900             -0.2518300             -0.0142990
      1.1442700              0.0615890              0.3235720
      0.4203770              1.0601800              0.7435070
SP   1   1.00
      0.1426570              1.0000000              1.0000000
D    1   1.00
      1.5000000              1.0000000
D    1   1.00
      0.3750000              1.0000000
F    1   1.00
      0.7000000              1.0000000
****
}

set {
reference uhf
freeze_core true
e_convergence 10
d_convergence 10
dft_spherical_points 1202
dft_radial_points 99
}

e = energy('b3lyp')

print_out('Grab this energy {0}'.format(e))
--------------------------------------------------------------------------

    Molecular point group: c1

    Geometry (in Bohr), charge = 0, multiplicity = 2:

       Center              X                  Y                   Z               Mass
    ------------   -----------------  -----------------  -----------------  -----------------
         C           -0.325126466534     0.000003048387    -0.003547253483    12.000000000000
         C            0.060665945766    -1.407083145713    -2.429459531883    12.000000000000
         C            0.061068168766     2.801922799387     0.007676205717    12.000000000000
         C            0.061714947566    -1.394838202013     2.423603243317    12.000000000000
         H            2.087967809966    -1.653020538113    -2.850295603583     1.007825032230
         H           -0.762541111534    -0.397009754713    -4.030962899883     1.007825032230
         H           -0.765473830234    -3.297977660913    -2.347335703283     1.007825032230
         H            2.088501075066     3.288340286887     0.012598197617     1.007825032230
         H           -0.766016343034     3.672396806987     1.687767801017     1.007825032230
         H           -0.760488123134     3.687570322787    -1.665996987383     1.007825032230
         H            2.089320985866    -1.635431793413     2.845027645817     1.007825032230
         H           -0.760872829334    -3.286444032713     2.349808730017     1.007825032230
         H           -0.763469050934    -0.378477218113     4.019955917417     1.007825032230

  Charge       = 0
  Multiplicity = 2
  Basis Set: ANONYMOUSD3BF262F
    Blend: 6-31G_2DFP_
  Basis Set: (ANONYMOUSD3BF262F AUX)
    Blend: DEF2-UNIVERSAL-JKFIT

    Orbital Energies [Eh]
    ---------------------

    Alpha Occupied:

       1A    -10.180454     2A    -10.167310     3A    -10.167039
       4A    -10.166767     5A     -0.797715     6A     -0.686393
       7A     -0.685953     8A     -0.530798     9A     -0.440891
      10A     -0.435082    11A     -0.434552    12A     -0.382496
      13A     -0.382206    14A     -0.363892    15A     -0.338320
      16A     -0.337773    17A     -0.169077

    Alpha Virtual:

      18A      0.076089    19A      0.133922    20A      0.134399
      21A      0.142571    22A      0.142850    23A      0.154815
      24A      0.178452    25A      0.178898    26A      0.203498
      27A      0.214939    28A      0.275678    29A      0.276016
      30A      0.399037    31A      0.399320    32A      0.403373
      33A      0.423960    34A      0.424231    35A      0.456591
      36A      0.495038    37A      0.495835    38A      0.512068
      39A      0.513990    40A      0.578639    41A      0.579149
      42A      0.591315    43A      0.591352    44A      0.602264
      45A      0.624910    46A      0.631910    47A      0.636161
      48A      0.636599    49A      0.663023    50A      0.663461
      51A      0.683638    52A      0.684118    53A      0.734864
      54A      0.824405    55A      0.826047    56A      0.853962
      57A      0.914619    58A      0.915106    59A      0.943950
      60A      0.944497    61A      0.961225    62A      0.961748
      63A      1.004350    64A      1.127186    65A      1.129497
      66A      1.141843    67A      1.162632    68A      1.163624
      69A      1.222911    70A      1.273689    71A      1.274733
      72A      1.279201    73A      1.324376    74A      1.324556
      75A      1.354964    76A      1.365652    77A      1.367095
      78A      1.392504    79A      1.402645    80A      1.404283
      81A      1.416027    82A      1.417005    83A      1.427748
      84A      1.491902    85A      1.498562    86A      1.542885
      87A      1.543548    88A      1.572702    89A      1.576495
      90A      1.670354    91A      1.738136    92A      1.740243
      93A      1.768137    94A      1.831218    95A      1.832239
      96A      1.972282    97A      2.017285    98A      2.018014
      99A      2.020178   100A      2.049782   101A      2.054851
     102A      2.737889   103A      2.738419   104A      2.790703
     105A      2.811714   106A      2.889674   107A      2.889869
     108A      2.894981   109A      2.929469   110A      2.929821
     111A      2.959154   112A      2.963461   113A      2.965257
     114A      3.033971   115A      3.069658   116A      3.071648
     117A      3.084443   118A      3.168008   119A      3.169565
     120A      3.180751   121A      3.284950   122A      3.286363
     123A      3.327147   124A      3.329053   125A      3.375366
     126A      3.489462   127A      3.490423   128A      3.513577
     129A      3.525462   130A      3.566785   131A      3.569010
     132A      3.574920   133A      3.666264   134A      3.666504
     135A      3.680686   136A      3.693367   137A      3.694266
     138A      3.775057   139A      3.776706   140A      3.787972
     141A      3.910913   142A      3.913750   143A      4.033304
     144A      4.110397   145A      4.113127   146A      4.146684
     147A      4.149977   148A      4.173090   149A      4.201038
     150A      4.202294   151A      4.204397   152A      4.210856
     153A      4.315715   154A      4.315769   155A      4.359093
     156A      4.423627   157A      4.423902   158A      4.444422
     159A      4.516133   160A      4.517859   161A      4.577307
     162A      4.579426   163A      4.616662   164A      4.709027
     165A      4.773063   166A      4.775646   167A      4.836708
     168A      4.962922   169A      5.001263   170A      5.003240
     171A      5.227961   172A      5.246677   173A      5.246989
     174A      5.355255   175A      5.356652   176A      5.478814

    Beta Occupied:

       1A    -10.168066     2A    -10.167798     3A    -10.167531
       4A    -10.166633     5A     -0.781057     6A     -0.684204
       7A     -0.683755     8A     -0.511774     9A     -0.431473
      10A     -0.430926    11A     -0.421581    12A     -0.376579
      13A     -0.376269    14A     -0.362878    15A     -0.333444
      16A     -0.332889

    Beta Virtual:

      17A     -0.025892    18A      0.077099    19A      0.134834
      20A      0.135333    21A      0.144439    22A      0.144705
      23A      0.163306    24A      0.182103    25A      0.182568
      26A      0.215165    27A      0.218859    28A      0.282026
      29A      0.282388    30A      0.400265    31A      0.400496
      32A      0.419817    33A      0.426752    34A      0.427055
      35A      0.468438    36A      0.497297    37A      0.498102
      38A      0.513808    39A      0.556285    40A      0.584211
      41A      0.584662    42A      0.597496    43A      0.597559
      44A      0.609709    45A      0.628259    46A      0.632068
      47A      0.639412    48A      0.639885    49A      0.666586
      50A      0.667077    51A      0.686220    52A      0.686803
      53A      0.757393    54A      0.829584    55A      0.831246
      56A      0.855318    57A      0.922581    58A      0.923093
      59A      0.945808    60A      0.953378    61A      0.966461
      62A      0.967084    63A      1.009635    64A      1.131119
      65A      1.133412    66A      1.155226    67A      1.167734
      68A      1.168796    69A      1.231874    70A      1.279299
      71A      1.280352    72A      1.284947    73A      1.329408
      74A      1.329621    75A      1.364364    76A      1.370790
      77A      1.372442    78A      1.393577    79A      1.406131
      80A      1.407699    81A      1.421055    82A      1.422038
      83A      1.428003    84A      1.492956    85A      1.508984
      86A      1.547298    87A      1.548164    88A      1.580616
      89A      1.584118    90A      1.675185    91A      1.743911
      92A      1.746010    93A      1.778922    94A      1.835049
      95A      1.836105    96A      1.973142    97A      2.023599
      98A      2.026604    99A      2.039392   100A      2.056613
     101A      2.061500   102A      2.746183   103A      2.746803
     104A      2.812125   105A      2.815787   106A      2.902411
     107A      2.902537   108A      2.924602   109A      2.932015
     110A      2.932189   111A      2.960222   112A      2.968049
     113A      2.969781   114A      3.041946   115A      3.079441
     116A      3.081624   117A      3.086384   118A      3.183791
     119A      3.185116   120A      3.188495   121A      3.289776
     122A      3.291054   123A      3.330960   124A      3.332881
     125A      3.383144   126A      3.492204   127A      3.493151
     128A      3.511954   129A      3.528480   130A      3.574313
     131A      3.580421   132A      3.582646   133A      3.670921
     134A      3.671200   135A      3.693963   136A      3.725074
     137A      3.725871   138A      3.779639   139A      3.781333
     140A      3.816465   141A      3.920732   142A      3.923570
     143A      4.044203   144A      4.117194   145A      4.119911
     146A      4.153966   147A      4.157148   148A      4.187181
     149A      4.206952   150A      4.210137   151A      4.210436
     152A      4.215391   153A      4.323127   154A      4.323213
     155A      4.362468   156A      4.431898   157A      4.432141
     158A      4.447316   159A      4.524021   160A      4.525550
     161A      4.587805   162A      4.590084   163A      4.623781
     164A      4.719462   165A      4.779955   166A      4.782612
     167A      4.839624   168A      4.967731   169A      5.005316
     170A      5.007291   171A      5.233643   172A      5.248448
     173A      5.248770   174A      5.361701   175A      5.363133
     176A      5.481135

    Final Occupation by Irrep:
              A
    DOCC [    16 ]
    SOCC [     1 ]

  @DF-UKS Final Energy:  -157.81305786928115

   => Energetics <=

    Nuclear Repulsion Energy =            125.3861149639583630
    One-Electron Energy =                -458.7317771566258671
    Two-Electron Energy =                 195.8394946356554556
    DFT Exchange-Correlation Energy =     -20.3068903122690756
    Empirical Dispersion Energy =           0.0000000000000000
    VV10 Nonlocal Energy =                  0.0000000000000000
    Total Energy =                       -157.8130578692811525

  UHF NO Occupations:
  HONO-2 :   15  A 1.9995999
  HONO-1 :   16  A 1.9989813
  HONO-0 :   17  A 1.0000000
  LUNO+0 :   18  A 0.0010187
  LUNO+1 :   19  A 0.0004001
  LUNO+2 :   20  A 0.0001980
  LUNO+3 :   21  A 0.0001973

Computation Completed

Properties will be evaluated at   0.000000,   0.000000,   0.000000 [a0]

Properties computed using the SCF density matrix

  Nuclear Dipole Moment: [e a0]
     X:     0.8369      Y:    -0.0000      Z:     0.0102

  Electronic Dipole Moment: [e a0]
     X:    -0.7591      Y:     0.0000      Z:    -0.0110

  Dipole Moment: [e a0]
     X:     0.0778      Y:    -0.0000      Z:    -0.0007     Total:     0.0778

  Dipole Moment: [D]
     X:     0.1977      Y:    -0.0000      Z:    -0.0019     Total:     0.1977

*** tstop() called on n067 at Fri Nov  5 13:41:10 2021
Module time:
	user time   =     553.36 seconds =       9.22 minutes
	system time =      13.76 seconds =       0.23 minutes
	total time  =        143 seconds =       2.38 minutes
Total time:
	user time   =     553.36 seconds =       9.22 minutes
	system time =      13.76 seconds =       0.23 minutes
	total time  =        143 seconds =       2.38 minutes
Grab this energy -157.81305786928115
    Psi4 stopped on: Friday, 05 November 2021 01:41PM
    Psi4 wall time for execution: 0:02:22.72

*** Psi4 exiting successfully. Buy a developer a beer!
