                               Psi4 1.4a2.dev629

  ==> Input File <==

--------------------------------------------------------------------------
import os
memory 14 GB

molecule {
 C   -0.3230390178   -0.0000020439    0.0000000000
 C    0.0610012546   -1.3981552340   -2.4216655305
 C    0.0608816863    2.7963147345    0.0000000000
 C    0.0610012546   -1.3981552340    2.4216655305
 H    2.0866454751   -1.6408010076   -2.8417309426
 H   -0.7652405160   -0.3855533810   -4.0200920275
 H   -0.7654036977   -3.2886661036   -2.3439825500
 H    2.0865068314    3.2815095183   -0.0000000000
 H   -0.7654812043    3.6742524648    1.6761158556
 H   -0.7654812043    3.6742524648   -1.6761158556
 H    2.0866454751   -1.6408010076    2.8417309426
 H   -0.7654036977   -3.2886661036    2.3439825500
 H   -0.7652405160   -0.3855533810    4.0200920275
units bohr
0 2
}

basis {

assign 6-31g_2dfp_

[ 6-31g_2dfp_ ]

spherical

!----------------------------------------------------------------------
! Basis Set Exchange
! Version v0.8.13
! https://www.basissetexchange.org
!----------------------------------------------------------------------
!   Basis set: 6-31G(2df,p)
! Description: 6-31G(2df,p)
!        Role: orbital
!     Version: 0  (Data from the original Basis Set Exchange)
!----------------------------------------------------------------------

****
H     0
S    3   1.00
     18.7311370              0.03349460
      2.8253937              0.23472695
      0.6401217              0.81375733
S    1   1.00
      0.1612778              1.00000000
P    1   1.00
      1.5000000              1.0000000
P    1   1.00
      0.3750000              1.0000000
****
B     0
S    6   1.00
   2068.8823000              0.0018663
    310.6495700              0.0142515
     70.6830330              0.0695516
     19.8610800              0.2325729
      6.2993048              0.4670787
      2.1270270              0.3634314
SP   3   1.00
      4.7279710             -0.1303938              0.0745976
      1.1903377             -0.1307889              0.3078467
      0.3594117              1.1309444              0.7434568
SP   1   1.00
      0.1267512              1.0000000              1.0000000
D    1   1.00
      0.8020000              1.0000000
D    1   1.00
      0.2005000              1.0000000
F    1   1.00
      0.5000000              1.0000000
****
C     0
S    6   1.00
   3047.5249000              0.0018347
    457.3695100              0.0140373
    103.9486900              0.0688426
     29.2101550              0.2321844
      9.2866630              0.4679413
      3.1639270              0.3623120
SP   3   1.00
      7.8682724             -0.1193324              0.0689991
      1.8812885             -0.1608542              0.3164240
      0.5442493              1.1434564              0.7443083
SP   1   1.00
      0.1687144              1.0000000              1.0000000
D    1   1.00
      1.2520000              1.0000000
D    1   1.00
      0.3130000              1.0000000
F    1   1.00
      0.8000000              1.0000000
****
N     0
S    6   1.00
   4173.5110000              0.0018348
    627.4579000              0.0139950
    142.9021000              0.0685870
     40.2343300              0.2322410
     12.8202100              0.4690700
      4.3904370              0.3604550
SP   3   1.00
     11.6263580             -0.1149610              0.0675800
      2.7162800             -0.1691180              0.3239070
      0.7722180              1.1458520              0.7408950
SP   1   1.00
      0.2120313              1.0000000              1.0000000
D    1   1.00
      1.8260000              1.0000000
D    1   1.00
      0.4565000              1.0000000
F    1   1.00
      1.0000000              1.0000000
****
O     0
S    6   1.00
   5484.6717000              0.0018311
    825.2349500              0.0139501
    188.0469600              0.0684451
     52.9645000              0.2327143
     16.8975700              0.4701930
      5.7996353              0.3585209
SP   3   1.00
     15.5396160             -0.1107775              0.0708743
      3.5999336             -0.1480263              0.3397528
      1.0137618              1.1307670              0.7271586
SP   1   1.00
      0.2700058              1.0000000              1.0000000
D    1   1.00
      2.5840000              1.0000000
D    1   1.00
      0.6460000              1.0000000
F    1   1.00
      1.4000000              1.0000000
****
F     0
S    6   1.00
   7001.7130900              0.0018196169
   1051.3660900              0.0139160796
    239.2856900              0.0684053245
     67.3974453              0.233185760
     21.5199573              0.471267439
      7.40310130             0.356618546
SP   3   1.00
     20.8479528             -0.108506975            0.0716287243
      4.80830834            -0.146451658            0.3459121030
      1.34406986             1.128688580            0.7224699570
SP   1   1.00
      0.358151393            1.0000000              1.0000000
D    1   1.00
      3.5000000              1.0000000
D    1   1.00
      0.8750000              1.0000000
F    1   1.00
      1.8500000              1.0000000
****
Al     0
S    6   1.00
  13983.1000000              0.00194267
   2098.7500000              0.0148599
    477.7050000              0.0728494
    134.3600000              0.2468300
     42.8709000              0.4872580
     14.5189000              0.3234960
SP   6   1.00
    239.6680000             -0.00292619             0.00460285
     57.4419000             -0.0374080              0.0331990
     18.2859000             -0.1144870              0.1362820
      6.5991400              0.1156350              0.3304760
      2.4904900              0.6125950              0.4491460
      0.9445400              0.3937990              0.2657040
SP   3   1.00
      1.2779000             -0.2276060             -0.0175130
      0.3975900              0.00144583             0.2445330
      0.1600950              1.0927900              0.8049340
SP   1   1.00
      0.0556577              1.0000000              1.0000000
D    1   1.00
      0.6500000              1.0000000
D    1   1.00
      0.1625000              1.0000000
F    1   1.00
      0.2500000              1.0000000
****
Si     0
S    6   1.00
  16115.9000000              0.00195948
   2425.5800000              0.01492880
    553.8670000              0.07284780
    156.3400000              0.24613000
     50.0683000              0.48591400
     17.0178000              0.32500200
SP   6   1.00
    292.7180000             -0.00278094             0.00443826
     69.8731000             -0.03571460             0.03266790
     22.3363000             -0.11498500             0.13472100
      8.1503900              0.09356340             0.32867800
      3.1345800              0.60301700             0.44964000
      1.2254300              0.41895900             0.26137200
SP   3   1.00
      1.7273800             -0.24463000            -0.01779510
      0.5729220              0.00431572             0.25353900
      0.2221920              1.09818000             0.80066900
SP   1   1.00
      0.0778369              1.00000000             1.00000000
D    1   1.00
      0.9000000              1.0000000
D    1   1.00
      0.2250000              1.0000000
F    1   1.00
      0.3200000              1.0000000
****
P     0
S    6   1.00
  19413.3000000              0.0018516
   2909.4200000              0.0142062
    661.3640000              0.0699995
    185.7590000              0.2400790
     59.1943000              0.4847620
     20.0310000              0.3352000
SP   6   1.00
    339.4780000             -0.00278217             0.00456462
     81.0101000             -0.0360499              0.03369360
     25.8780000             -0.1166310              0.13975500
      9.4522100              0.0968328              0.33936200
      3.6656600              0.6144180              0.45092100
      1.4674600              0.4037980              0.23858600
SP   3   1.00
      2.1562300             -0.2529230             -0.01776530
      0.7489970              0.0328517              0.27405800
      0.2831450              1.0812500              0.78542100
SP   1   1.00
      0.0998317              1.0000000              1.00000000
D    1   1.00
      1.1000000              1.0000000
D    1   1.00
      0.2750000              1.0000000
F    1   1.00
      0.4500000              1.0000000
****
S     0
S    6   1.00
  21917.1000000              0.0018690
   3301.4900000              0.0142300
    754.1460000              0.0696960
    212.7110000              0.2384870
     67.9896000              0.4833070
     23.0515000              0.3380740
SP   6   1.00
    423.7350000             -0.0023767              0.0040610
    100.7100000             -0.0316930              0.0306810
     32.1599000             -0.1133170              0.1304520
     11.8079000              0.0560900              0.3272050
      4.6311000              0.5922550              0.4528510
      1.8702500              0.4550060              0.2560420
SP   3   1.00
      2.6158400             -0.2503740             -0.0145110
      0.9221670              0.0669570              0.3102630
      0.3412870              1.0545100              0.7544830
SP   1   1.00
      0.1171670              1.0000000              1.0000000
D    1   1.00
      1.3000000              1.0000000
D    1   1.00
      0.3250000              1.0000000
F    1   1.00
      0.5500000              1.0000000
****
Cl     0
S    6   1.00
  25180.1000000              0.0018330
   3780.3500000              0.0140340
    860.4740000              0.0690970
    242.1450000              0.2374520
     77.3349000              0.4830340
     26.2470000              0.3398560
SP   6   1.00
    491.7650000             -0.0022974              0.0039894
    116.9840000             -0.0307140              0.0303180
     37.4153000             -0.1125280              0.1298800
     13.7834000              0.0450160              0.3279510
      5.4521500              0.5893530              0.4535270
      2.2258800              0.4652060              0.2521540
SP   3   1.00
      3.1864900             -0.2518300             -0.0142990
      1.1442700              0.0615890              0.3235720
      0.4203770              1.0601800              0.7435070
SP   1   1.00
      0.1426570              1.0000000              1.0000000
D    1   1.00
      1.5000000              1.0000000
D    1   1.00
      0.3750000              1.0000000
F    1   1.00
      0.7000000              1.0000000
****
}

set {
reference uhf
freeze_core true
e_convergence 10
d_convergence 10
dft_spherical_points 1202
dft_radial_points 99
}

e = energy('b3lyp')

print_out('Grab this energy {0}'.format(e))
--------------------------------------------------------------------------

    Molecular point group: cs

    Geometry (in Bohr), charge = 0, multiplicity = 2:

       Center              X                  Y                   Z               Mass
    ------------   -----------------  -----------------  -----------------  -----------------
         C           -0.323016899279    -0.000002042622     0.000000000000    12.000000000000
         C            0.061023373121    -1.398155232722    -2.421665530500    12.000000000000
         C            0.060903804821     2.796314735778     0.000000000000    12.000000000000
         C            0.061023373121    -1.398155232722     2.421665530500    12.000000000000
         H            2.086667593621    -1.640801006322    -2.841730942600     1.007825032230
         H           -0.765218397479    -0.385553379722    -4.020092027500     1.007825032230
         H           -0.765381579179    -3.288666102322    -2.343982550000     1.007825032230
         H            2.086528949921     3.281509519578     0.000000000000     1.007825032230
         H           -0.765459085779     3.674252466078     1.676115855600     1.007825032230
         H           -0.765459085779     3.674252466078    -1.676115855600     1.007825032230
         H            2.086667593621    -1.640801006322     2.841730942600     1.007825032230
         H           -0.765381579179    -3.288666102322     2.343982550000     1.007825032230
         H           -0.765218397479    -0.385553379722     4.020092027500     1.007825032230

  Charge       = 0
  Multiplicity = 2
  Basis Set: ANONYMOUSCA1A221B
    Blend: 6-31G_2DFP_
  Basis Set: (ANONYMOUSCA1A221B AUX)
    Blend: DEF2-UNIVERSAL-JKFIT

    Orbital Energies [Eh]
    ---------------------

    Alpha Occupied:

       1Ap   -10.179568     2Ap   -10.166669     1App  -10.166668
       3Ap   -10.166623     4Ap    -0.798816     5Ap    -0.686489
       2App   -0.686488     6Ap    -0.530774     7Ap    -0.441720
       3App   -0.435152     8Ap    -0.435152     9Ap    -0.382674
       4App   -0.382672     5App   -0.363492     6App   -0.338187
      10Ap    -0.338187    11Ap    -0.168636

    Alpha Virtual:

      12Ap     0.076043    13Ap     0.134195     7App    0.134195
      14Ap     0.142832     8App    0.142832    15Ap     0.154942
      16Ap     0.178954     9App    0.178954    17Ap     0.204641
      10App    0.215148    11App    0.276505    18Ap     0.276506
      19Ap     0.399201    12App    0.399205    20Ap     0.403135
      13App    0.423824    21Ap     0.423825    22Ap     0.457176
      23Ap     0.495617    14App    0.495618    15App    0.512497
      24Ap     0.514381    25Ap     0.579493    16App    0.579501
      17App    0.592179    26Ap     0.592180    27Ap     0.603033
      28Ap     0.625168    18App    0.632130    19App    0.637064
      29Ap     0.637068    30Ap     0.663886    20App    0.663886
      31Ap     0.684307    21App    0.684308    32Ap     0.734788
      22App    0.825251    33Ap     0.825253    23App    0.854917
      24App    0.915753    34Ap     0.915758    35Ap     0.944024
      25App    0.945466    26App    0.962247    36Ap     0.962263
      37Ap     1.004584    38Ap     1.128999    27App    1.129012
      39Ap     1.142570    40Ap     1.164029    28App    1.164041
      41Ap     1.224231    42Ap     1.275396    29App    1.275399
      43Ap     1.279867    30App    1.324691    44Ap     1.324693
      45Ap     1.356165    31App    1.367885    46Ap     1.367889
      32App    1.393966    47Ap     1.403760    33App    1.403762
      34App    1.417481    48Ap     1.417487    35App    1.429317
      36App    1.492716    49Ap     1.499658    37App    1.543560
      50Ap     1.543562    51Ap     1.575600    38App    1.575602
      52Ap     1.669764    53Ap     1.740039    39App    1.740050
      54Ap     1.769836    40App    1.832587    55Ap     1.832587
      41App    1.973115    56Ap     2.020166    42App    2.020169
      57Ap     2.020612    58Ap     2.057142    43App    2.057142
      44App    2.739080    59Ap     2.739080    60Ap     2.792076
      45App    2.814156    61Ap     2.891084    46App    2.891090
      62Ap     2.896454    63Ap     2.929677    47App    2.929686
      48App    2.959234    64Ap     2.964060    49App    2.964074
      65Ap     3.033967    50App    3.072242    66Ap     3.072256
      51App    3.085937    67Ap     3.169629    52App    3.169637
      68Ap     3.182483    69Ap     3.285811    53App    3.285811
      70Ap     3.327593    54App    3.327599    71Ap     3.374228
      55App    3.491931    72Ap     3.491951    56App    3.514788
      73Ap     3.527651    57App    3.568329    74Ap     3.568349
      58App    3.577279    75Ap     3.666344    59App    3.666353
      76Ap     3.681626    60App    3.695575    77Ap     3.695592
      78Ap     3.781275    61App    3.781301    79Ap     3.789794
      80Ap     3.914305    62App    3.914311    81Ap     4.036304
      82Ap     4.114196    63App    4.114200    83Ap     4.148895
      64App    4.148904    84Ap     4.174457    85Ap     4.204082
      65App    4.205428    86Ap     4.205432    66App    4.212420
      87Ap     4.317496    67App    4.317516    68App    4.361493
      88Ap     4.426528    69App    4.426531    70App    4.445865
      71App    4.519841    89Ap     4.519843    72App    4.581835
      90Ap     4.581848    91Ap     4.624888    92Ap     4.714237
      93Ap     4.781021    73App    4.781029    74App    4.840841
      94Ap     4.965930    75App    5.004560    95Ap     5.004572
      96Ap     5.229061    76App    5.248225    97Ap     5.248225
      98Ap     5.358118    77App    5.358131    78App    5.485114

    Beta Occupied:

       1Ap   -10.167424     1App  -10.167423     2Ap   -10.167394
       3Ap   -10.165773     4Ap    -0.782119     5Ap    -0.684271
       2App   -0.684271     6Ap    -0.511845     3App   -0.431504
       7Ap    -0.431504     8Ap    -0.422322     9Ap    -0.376722
       4App   -0.376721     5App   -0.362465     6App   -0.333314
      10Ap    -0.333314

    Beta Virtual:

      11Ap    -0.025711    12Ap     0.077063    13Ap     0.135079
       7App    0.135079    14Ap     0.144730     8App    0.144731
      15Ap     0.163446    16Ap     0.182651     9App    0.182652
      10App    0.215385    17Ap     0.219842    11App    0.282783
      18Ap     0.282785    19Ap     0.400403    12App    0.400407
      20Ap     0.419485    13App    0.426626    21Ap     0.426626
      22Ap     0.469439    23Ap     0.497892    14App    0.497893
      15App    0.514248    24Ap     0.556648    25Ap     0.585051
      16App    0.585059    17App    0.598296    26Ap     0.598297
      27Ap     0.610501    28Ap     0.628604    18App    0.632295
      19App    0.640423    29Ap     0.640427    30Ap     0.667407
      20App    0.667407    31Ap     0.687022    21App    0.687024
      32Ap     0.757132    22App    0.830437    33Ap     0.830439
      23App    0.856307    24App    0.923737    34Ap     0.923743
      25App    0.947305    35Ap     0.952861    26App    0.967578
      36Ap     0.967594    37Ap     1.009749    38Ap     1.133028
      27App    1.133039    39Ap     1.155964    40Ap     1.169103
      28App    1.169116    41Ap     1.233342    42Ap     1.281030
      29App    1.281034    43Ap     1.285554    30App    1.329679
      44Ap     1.329681    45Ap     1.365612    31App    1.373118
      46Ap     1.373122    32App    1.395030    47Ap     1.407201
      33App    1.407204    34App    1.422582    48Ap     1.422589
      35App    1.429619    36App    1.493762    49Ap     1.510167
      50Ap     1.547913    37App    1.547913    38App    1.583540
      51Ap     1.583540    52Ap     1.674617    53Ap     1.745804
      39App    1.745815    54Ap     1.780641    40App    1.836460
      55Ap     1.836460    41App    1.973978    56Ap     2.026582
      42App    2.026585    57Ap     2.042053    58Ap     2.063880
      43App    2.063881    44App    2.747319    59Ap     2.747320
      45App    2.814572    60Ap     2.817193    61Ap     2.903539
      46App    2.903545    62Ap     2.926227    63Ap     2.932332
      47App    2.932341    48App    2.960307    64Ap     2.968665
      49App    2.968679    65Ap     3.041989    50App    3.082239
      66Ap     3.082251    51App    3.087771    67Ap     3.185275
      52App    3.185279    68Ap     3.190105    69Ap     3.290785
      53App    3.290786    70Ap     3.331323    54App    3.331328
      71Ap     3.382032    55App    3.494655    72Ap     3.494675
      56App    3.513142    73Ap     3.530648    57App    3.577161
      58App    3.581670    74Ap     3.581691    75Ap     3.670988
      59App    3.671000    76Ap     3.694900    60App    3.727033
      77Ap     3.727049    78Ap     3.785838    61App    3.785863
      79Ap     3.818207    80Ap     3.924127    62App    3.924134
      81Ap     4.047126    82Ap     4.120730    63App    4.120731
      83Ap     4.156298    64App    4.156307    84Ap     4.188634
      65App    4.211365    85Ap     4.211368    86Ap     4.212110
      66App    4.216965    87Ap     4.324968    67App    4.324988
      68App    4.364834    88Ap     4.434851    69App    4.434853
      70App    4.448759    71App    4.527760    89Ap     4.527761
      72App    4.592456    90Ap     4.592468    91Ap     4.632061
      92Ap     4.724666    93Ap     4.787977    73App    4.787984
      74App    4.843756    94Ap     4.970748    75App    5.008638
      95Ap     5.008651    96Ap     5.234815    76App    5.250021
      97Ap     5.250021    98Ap     5.364653    77App    5.364666
      78App    5.487457

    Final Occupation by Irrep:
             Ap   App
    DOCC [    10,    6 ]
    SOCC [     1,    0 ]

  @DF-UKS Final Energy:  -157.81304366014271

   => Energetics <=

    Nuclear Repulsion Energy =            125.5761179515262000
    One-Electron Energy =                -459.1062115702373490
    Two-Electron Energy =                 196.0280000351581009
    DFT Exchange-Correlation Energy =     -20.3109500765896698
    Empirical Dispersion Energy =           0.0000000000000000
    VV10 Nonlocal Energy =                  0.0000000000000000
    Total Energy =                       -157.8130436601427107

  UHF NO Occupations:
  HONO-2 :    9 Ap 1.9995992
  HONO-1 :   10 Ap 1.9989874
  HONO-0 :   11 Ap 1.0000000
  LUNO+0 :   12 Ap 0.0010126
  LUNO+1 :   13 Ap 0.0004008
  LUNO+2 :    7App 0.0001954
  LUNO+3 :   14 Ap 0.0001954

Computation Completed

Properties will be evaluated at   0.000000,   0.000000,   0.000000 [a0]

Properties computed using the SCF density matrix

  Nuclear Dipole Moment: [e a0]
     X:     0.8273      Y:    -0.0000      Z:    -0.0000

  Electronic Dipole Moment: [e a0]
     X:    -0.7503      Y:     0.0000      Z:     0.0000

  Dipole Moment: [e a0]
     X:     0.0770      Y:    -0.0000      Z:    -0.0000     Total:     0.0770

  Dipole Moment: [D]
     X:     0.1958      Y:    -0.0000      Z:    -0.0000     Total:     0.1958

*** tstop() called on n070 at Fri Nov  5 15:49:27 2021
Module time:
	user time   =     602.96 seconds =      10.05 minutes
	system time =      15.76 seconds =       0.26 minutes
	total time  =        155 seconds =       2.58 minutes
Total time:
	user time   =     602.96 seconds =      10.05 minutes
	system time =      15.76 seconds =       0.26 minutes
	total time  =        155 seconds =       2.58 minutes
Grab this energy -157.8130436601427
    Psi4 stopped on: Friday, 05 November 2021 03:49PM
    Psi4 wall time for execution: 0:02:35.95

*** Psi4 exiting successfully. Buy a developer a beer!
