                               Psi4 1.4a2.dev629

  ==> Input File <==

--------------------------------------------------------------------------
import os
memory 14 GB

molecule {
 C   -0.3201729884   -0.0002270582   -0.0000000000
 C    0.0623822370   -1.4005832007   -2.4250333677
 C    0.0625132017    2.8038483643   -0.0000000000
 C    0.0623822370   -1.4005832007    2.4250333677
 H    2.0865651058   -1.6439978516   -2.8475847844
 H   -0.7663128292   -0.3888510092   -4.0257694641
 H   -0.7665823623   -3.2918053817   -2.3497727773
 H    2.0865455555    3.2871587585    0.0000000000
 H   -0.7667989742    3.6798352541    1.6762497813
 H   -0.7667989742    3.6798352541   -1.6762497813
 H    2.0865651058   -1.6439978516    2.8475847844
 H   -0.7665823623   -3.2918053817    2.3497727773
 H   -0.7663128292   -0.3888510092    4.0257694641
units bohr
0 2
}

basis {

assign 6-31g_2dfp_

[ 6-31g_2dfp_ ]

spherical

!----------------------------------------------------------------------
! Basis Set Exchange
! Version v0.8.13
! https://www.basissetexchange.org
!----------------------------------------------------------------------
!   Basis set: 6-31G(2df,p)
! Description: 6-31G(2df,p)
!        Role: orbital
!     Version: 0  (Data from the original Basis Set Exchange)
!----------------------------------------------------------------------

****
H     0
S    3   1.00
     18.7311370              0.03349460
      2.8253937              0.23472695
      0.6401217              0.81375733
S    1   1.00
      0.1612778              1.00000000
P    1   1.00
      1.5000000              1.0000000
P    1   1.00
      0.3750000              1.0000000
****
B     0
S    6   1.00
   2068.8823000              0.0018663
    310.6495700              0.0142515
     70.6830330              0.0695516
     19.8610800              0.2325729
      6.2993048              0.4670787
      2.1270270              0.3634314
SP   3   1.00
      4.7279710             -0.1303938              0.0745976
      1.1903377             -0.1307889              0.3078467
      0.3594117              1.1309444              0.7434568
SP   1   1.00
      0.1267512              1.0000000              1.0000000
D    1   1.00
      0.8020000              1.0000000
D    1   1.00
      0.2005000              1.0000000
F    1   1.00
      0.5000000              1.0000000
****
C     0
S    6   1.00
   3047.5249000              0.0018347
    457.3695100              0.0140373
    103.9486900              0.0688426
     29.2101550              0.2321844
      9.2866630              0.4679413
      3.1639270              0.3623120
SP   3   1.00
      7.8682724             -0.1193324              0.0689991
      1.8812885             -0.1608542              0.3164240
      0.5442493              1.1434564              0.7443083
SP   1   1.00
      0.1687144              1.0000000              1.0000000
D    1   1.00
      1.2520000              1.0000000
D    1   1.00
      0.3130000              1.0000000
F    1   1.00
      0.8000000              1.0000000
****
N     0
S    6   1.00
   4173.5110000              0.0018348
    627.4579000              0.0139950
    142.9021000              0.0685870
     40.2343300              0.2322410
     12.8202100              0.4690700
      4.3904370              0.3604550
SP   3   1.00
     11.6263580             -0.1149610              0.0675800
      2.7162800             -0.1691180              0.3239070
      0.7722180              1.1458520              0.7408950
SP   1   1.00
      0.2120313              1.0000000              1.0000000
D    1   1.00
      1.8260000              1.0000000
D    1   1.00
      0.4565000              1.0000000
F    1   1.00
      1.0000000              1.0000000
****
O     0
S    6   1.00
   5484.6717000              0.0018311
    825.2349500              0.0139501
    188.0469600              0.0684451
     52.9645000              0.2327143
     16.8975700              0.4701930
      5.7996353              0.3585209
SP   3   1.00
     15.5396160             -0.1107775              0.0708743
      3.5999336             -0.1480263              0.3397528
      1.0137618              1.1307670              0.7271586
SP   1   1.00
      0.2700058              1.0000000              1.0000000
D    1   1.00
      2.5840000              1.0000000
D    1   1.00
      0.6460000              1.0000000
F    1   1.00
      1.4000000              1.0000000
****
F     0
S    6   1.00
   7001.7130900              0.0018196169
   1051.3660900              0.0139160796
    239.2856900              0.0684053245
     67.3974453              0.233185760
     21.5199573              0.471267439
      7.40310130             0.356618546
SP   3   1.00
     20.8479528             -0.108506975            0.0716287243
      4.80830834            -0.146451658            0.3459121030
      1.34406986             1.128688580            0.7224699570
SP   1   1.00
      0.358151393            1.0000000              1.0000000
D    1   1.00
      3.5000000              1.0000000
D    1   1.00
      0.8750000              1.0000000
F    1   1.00
      1.8500000              1.0000000
****
Al     0
S    6   1.00
  13983.1000000              0.00194267
   2098.7500000              0.0148599
    477.7050000              0.0728494
    134.3600000              0.2468300
     42.8709000              0.4872580
     14.5189000              0.3234960
SP   6   1.00
    239.6680000             -0.00292619             0.00460285
     57.4419000             -0.0374080              0.0331990
     18.2859000             -0.1144870              0.1362820
      6.5991400              0.1156350              0.3304760
      2.4904900              0.6125950              0.4491460
      0.9445400              0.3937990              0.2657040
SP   3   1.00
      1.2779000             -0.2276060             -0.0175130
      0.3975900              0.00144583             0.2445330
      0.1600950              1.0927900              0.8049340
SP   1   1.00
      0.0556577              1.0000000              1.0000000
D    1   1.00
      0.6500000              1.0000000
D    1   1.00
      0.1625000              1.0000000
F    1   1.00
      0.2500000              1.0000000
****
Si     0
S    6   1.00
  16115.9000000              0.00195948
   2425.5800000              0.01492880
    553.8670000              0.07284780
    156.3400000              0.24613000
     50.0683000              0.48591400
     17.0178000              0.32500200
SP   6   1.00
    292.7180000             -0.00278094             0.00443826
     69.8731000             -0.03571460             0.03266790
     22.3363000             -0.11498500             0.13472100
      8.1503900              0.09356340             0.32867800
      3.1345800              0.60301700             0.44964000
      1.2254300              0.41895900             0.26137200
SP   3   1.00
      1.7273800             -0.24463000            -0.01779510
      0.5729220              0.00431572             0.25353900
      0.2221920              1.09818000             0.80066900
SP   1   1.00
      0.0778369              1.00000000             1.00000000
D    1   1.00
      0.9000000              1.0000000
D    1   1.00
      0.2250000              1.0000000
F    1   1.00
      0.3200000              1.0000000
****
P     0
S    6   1.00
  19413.3000000              0.0018516
   2909.4200000              0.0142062
    661.3640000              0.0699995
    185.7590000              0.2400790
     59.1943000              0.4847620
     20.0310000              0.3352000
SP   6   1.00
    339.4780000             -0.00278217             0.00456462
     81.0101000             -0.0360499              0.03369360
     25.8780000             -0.1166310              0.13975500
      9.4522100              0.0968328              0.33936200
      3.6656600              0.6144180              0.45092100
      1.4674600              0.4037980              0.23858600
SP   3   1.00
      2.1562300             -0.2529230             -0.01776530
      0.7489970              0.0328517              0.27405800
      0.2831450              1.0812500              0.78542100
SP   1   1.00
      0.0998317              1.0000000              1.00000000
D    1   1.00
      1.1000000              1.0000000
D    1   1.00
      0.2750000              1.0000000
F    1   1.00
      0.4500000              1.0000000
****
S     0
S    6   1.00
  21917.1000000              0.0018690
   3301.4900000              0.0142300
    754.1460000              0.0696960
    212.7110000              0.2384870
     67.9896000              0.4833070
     23.0515000              0.3380740
SP   6   1.00
    423.7350000             -0.0023767              0.0040610
    100.7100000             -0.0316930              0.0306810
     32.1599000             -0.1133170              0.1304520
     11.8079000              0.0560900              0.3272050
      4.6311000              0.5922550              0.4528510
      1.8702500              0.4550060              0.2560420
SP   3   1.00
      2.6158400             -0.2503740             -0.0145110
      0.9221670              0.0669570              0.3102630
      0.3412870              1.0545100              0.7544830
SP   1   1.00
      0.1171670              1.0000000              1.0000000
D    1   1.00
      1.3000000              1.0000000
D    1   1.00
      0.3250000              1.0000000
F    1   1.00
      0.5500000              1.0000000
****
Cl     0
S    6   1.00
  25180.1000000              0.0018330
   3780.3500000              0.0140340
    860.4740000              0.0690970
    242.1450000              0.2374520
     77.3349000              0.4830340
     26.2470000              0.3398560
SP   6   1.00
    491.7650000             -0.0022974              0.0039894
    116.9840000             -0.0307140              0.0303180
     37.4153000             -0.1125280              0.1298800
     13.7834000              0.0450160              0.3279510
      5.4521500              0.5893530              0.4535270
      2.2258800              0.4652060              0.2521540
SP   3   1.00
      3.1864900             -0.2518300             -0.0142990
      1.1442700              0.0615890              0.3235720
      0.4203770              1.0601800              0.7435070
SP   1   1.00
      0.1426570              1.0000000              1.0000000
D    1   1.00
      1.5000000              1.0000000
D    1   1.00
      0.3750000              1.0000000
F    1   1.00
      0.7000000              1.0000000
****
}

set {
reference uhf
freeze_core true
e_convergence 10
d_convergence 10
dft_spherical_points 1202
dft_radial_points 99
}

e = energy('b3lyp')

print_out('Grab this energy {0}'.format(e))
--------------------------------------------------------------------------

    Molecular point group: cs

    Geometry (in Bohr), charge = 0, multiplicity = 2:

       Center              X                  Y                   Z               Mass
    ------------   -----------------  -----------------  -----------------  -----------------
         C           -0.321549103710    -0.000699461165     0.000000000000    12.000000000000
         C            0.061006121690    -1.401055603665    -2.425033367700    12.000000000000
         C            0.061137086390     2.803375961335     0.000000000000    12.000000000000
         C            0.061006121690    -1.401055603665     2.425033367700    12.000000000000
         H            2.085188990490    -1.644470254565    -2.847584784400     1.007825032230
         H           -0.767688944510    -0.389323412165    -4.025769464100     1.007825032230
         H           -0.767958477610    -3.292277784665    -2.349772777300     1.007825032230
         H            2.085169440190     3.286686355535     0.000000000000     1.007825032230
         H           -0.768175089510     3.679362851135     1.676249781300     1.007825032230
         H           -0.768175089510     3.679362851135    -1.676249781300     1.007825032230
         H            2.085188990490    -1.644470254565     2.847584784400     1.007825032230
         H           -0.767958477610    -3.292277784665     2.349772777300     1.007825032230
         H           -0.767688944510    -0.389323412165     4.025769464100     1.007825032230

  Charge       = 0
  Multiplicity = 2
  Basis Set: ANONYMOUSBF55AE07
    Blend: 6-31G_2DFP_
  Basis Set: (ANONYMOUSBF55AE07 AUX)
    Blend: DEF2-UNIVERSAL-JKFIT

    Orbital Energies [Eh]
    ---------------------

    Alpha Occupied:

       1Ap   -10.180229     1App  -10.167027     2Ap   -10.167005
       3Ap   -10.166941     4Ap    -0.797820     5Ap    -0.686223
       2App   -0.686176     6Ap    -0.530754     7Ap    -0.441359
       3App   -0.434608     8Ap    -0.434443     9Ap    -0.382938
       4App   -0.382756     5App   -0.363331     6App   -0.338157
      10Ap    -0.337741    11Ap    -0.168846

    Alpha Virtual:

      12Ap     0.076056     7App    0.134132    13Ap     0.134162
      14Ap     0.142486     8App    0.142610    15Ap     0.154944
       9App    0.178801    16Ap     0.178966    17Ap     0.203591
      10App    0.214670    18Ap     0.275901    11App    0.276348
      19Ap     0.399233    12App    0.399258    20Ap     0.403385
      21Ap     0.424059    13App    0.424147    22Ap     0.456597
      23Ap     0.495315    14App    0.495361    15App    0.512265
      24Ap     0.513977    25Ap     0.578681    16App    0.578769
      17App    0.591877    26Ap     0.592004    27Ap     0.602884
      28Ap     0.624620    18App    0.631632    29Ap     0.635953
      19App    0.636282    30Ap     0.663523    20App    0.663644
      21App    0.683809    31Ap     0.683847    32Ap     0.735123
      22App    0.825526    33Ap     0.825637    23App    0.853869
      34Ap     0.915180    24App    0.915205    25App    0.944230
      35Ap     0.944630    26App    0.961159    36Ap     0.961242
      37Ap     1.002572    38Ap     1.127782    27App    1.127954
      39Ap     1.142599    40Ap     1.163138    28App    1.163716
      41Ap     1.223742    42Ap     1.274458    29App    1.275080
      43Ap     1.279520    44Ap     1.324180    30App    1.324304
      45Ap     1.357025    46Ap     1.365562    31App    1.365856
      32App    1.392371    33App    1.404487    47Ap     1.404853
      48Ap     1.417563    34App    1.417870    35App    1.428108
      36App    1.491026    49Ap     1.499584    50Ap     1.542349
      37App    1.542500    51Ap     1.574178    38App    1.574567
      52Ap     1.669288    39App    1.739497    53Ap     1.739767
      54Ap     1.768525    40App    1.830569    55Ap     1.831580
      41App    1.971170    56Ap     2.018432    57Ap     2.018938
      42App    2.019888    58Ap     2.052344    43App    2.053698
      44App    2.738695    59Ap     2.738937    60Ap     2.791145
      45App    2.811150    61Ap     2.890044    46App    2.890211
      62Ap     2.894911    63Ap     2.929283    47App    2.929411
      48App    2.958831    64Ap     2.964319    49App    2.964493
      65Ap     3.034050    50App    3.071762    66Ap     3.072046
      51App    3.084290    67Ap     3.168587    52App    3.168994
      68Ap     3.180408    69Ap     3.284951    53App    3.284976
      70Ap     3.326042    54App    3.326420    71Ap     3.375911
      72Ap     3.490024    55App    3.490666    56App    3.514474
      73Ap     3.525171    74Ap     3.568741    57App    3.568886
      58App    3.575599    59App    3.665721    75Ap     3.667041
      76Ap     3.678641    60App    3.694281    77Ap     3.694551
      78Ap     3.777484    61App    3.777879    79Ap     3.790440
      80Ap     3.911372    62App    3.912872    81Ap     4.035626
      82Ap     4.110841    63App    4.111158    83Ap     4.147587
      64App    4.148202    84Ap     4.173378    85Ap     4.202616
      86Ap     4.203436    65App    4.203771    66App    4.210956
      87Ap     4.315436    67App    4.316878    68App    4.358862
      88Ap     4.424120    69App    4.425904    70App    4.442676
      89Ap     4.516066    71App    4.517364    90Ap     4.578157
      72App    4.578198    91Ap     4.618366    92Ap     4.709897
      73App    4.774502    93Ap     4.775146    74App    4.837152
      94Ap     4.962763    75App    5.002939    95Ap     5.004414
      96Ap     5.228124    97Ap     5.246594    76App    5.246992
      98Ap     5.354990    77App    5.355132    78App    5.479858

    Beta Occupied:

       1App  -10.167783     1Ap   -10.167767     2Ap   -10.167704
       3Ap   -10.166404     4Ap    -0.781129     5Ap    -0.684027
       2App   -0.683969     6Ap    -0.511721     3App   -0.430969
       7Ap    -0.430801     8Ap    -0.422063     9Ap    -0.377055
       4App   -0.376833     5App   -0.362313     6App   -0.333284
      10Ap    -0.332866

    Beta Virtual:

      11Ap    -0.025595    12Ap     0.077063    13Ap     0.134999
       7App    0.135010    14Ap     0.144381     8App    0.144473
      15Ap     0.163372     9App    0.182496    16Ap     0.182635
      10App    0.214903    17Ap     0.218996    18Ap     0.282246
      11App    0.282675    19Ap     0.400402    12App    0.400420
      20Ap     0.419771    21Ap     0.426873    13App    0.426963
      22Ap     0.468569    23Ap     0.497570    14App    0.497628
      15App    0.513995    24Ap     0.556369    25Ap     0.584235
      16App    0.584333    17App    0.598040    26Ap     0.598166
      27Ap     0.610282    28Ap     0.628027    18App    0.631790
      29Ap     0.639262    19App    0.639580    30Ap     0.667054
      20App    0.667186    21App    0.686459    31Ap     0.686472
      32Ap     0.757640    22App    0.830669    33Ap     0.830789
      23App    0.855219    34Ap     0.923145    24App    0.923174
      25App    0.946067    35Ap     0.953593    26App    0.966486
      36Ap     0.966562    37Ap     1.007763    38Ap     1.131926
      27App    1.132082    39Ap     1.155961    40Ap     1.168133
      28App    1.168745    41Ap     1.232722    42Ap     1.280034
      29App    1.280664    43Ap     1.285281    44Ap     1.329125
      30App    1.329223    45Ap     1.366459    46Ap     1.370829
      31App    1.371067    32App    1.393417    33App    1.408023
      47Ap     1.408286    48Ap     1.422645    34App    1.422908
      35App    1.428402    36App    1.492070    49Ap     1.510047
      50Ap     1.546644    37App    1.546813    51Ap     1.582145
      38App    1.582542    52Ap     1.674150    39App    1.745246
      53Ap     1.745523    54Ap     1.779300    40App    1.834440
      55Ap     1.835432    41App    1.972031    56Ap     2.025235
      42App    2.026336    57Ap     2.039913    58Ap     2.059041
      43App    2.060389    44App    2.747050    59Ap     2.747248
      45App    2.811562    60Ap     2.816332    61Ap     2.902746
      46App    2.902862    62Ap     2.924697    63Ap     2.931809
      47App    2.931901    48App    2.959892    64Ap     2.968834
      49App    2.969036    65Ap     3.041946    50App    3.081650
      66Ap     3.081925    51App    3.086105    67Ap     3.184349
      52App    3.184836    68Ap     3.188076    53App    3.289791
      69Ap     3.289822    70Ap     3.329837    54App    3.330200
      71Ap     3.383768    72Ap     3.492724    55App    3.493409
      56App    3.512837    73Ap     3.528254    57App    3.575462
      74Ap     3.581994    58App    3.582176    59App    3.670507
      75Ap     3.671900    76Ap     3.691952    60App    3.725881
      77Ap     3.726157    78Ap     3.781928    61App    3.782409
      79Ap     3.818960    80Ap     3.921237    62App    3.922636
      81Ap     4.046502    82Ap     4.117577    63App    4.118096
      83Ap     4.154877    64App    4.155299    84Ap     4.187408
      85Ap     4.208858    65App    4.209717    86Ap     4.211110
      66App    4.215397    87Ap     4.322861    67App    4.324357
      68App    4.362211    88Ap     4.432309    69App    4.433987
      70App    4.445629    89Ap     4.523862    71App    4.525145
      90Ap     4.588764    72App    4.588840    91Ap     4.625634
      92Ap     4.720151    73App    4.781497    93Ap     4.782103
      74App    4.840072    94Ap     4.967542    75App    5.006981
      95Ap     5.008426    96Ap     5.233871    97Ap     5.248395
      76App    5.248778    98Ap     5.361466    77App    5.361650
      78App    5.482180

    Final Occupation by Irrep:
             Ap   App
    DOCC [    10,    6 ]
    SOCC [     1,    0 ]

  @DF-UKS Final Energy:  -157.81307347927122

   => Energetics <=

    Nuclear Repulsion Energy =            125.4033352670667085
    One-Electron Energy =                -458.7664365225014080
    Two-Electron Energy =                 195.8574257879362222
    DFT Exchange-Correlation Energy =     -20.3073980117727508
    Empirical Dispersion Energy =           0.0000000000000000
    VV10 Nonlocal Energy =                  0.0000000000000000
    Total Energy =                       -157.8130734792712246

  UHF NO Occupations:
  HONO-2 :    9 Ap 1.9996019
  HONO-1 :   10 Ap 1.9989796
  HONO-0 :   11 Ap 1.0000000
  LUNO+0 :   12 Ap 0.0010204
  LUNO+1 :   13 Ap 0.0003981
  LUNO+2 :   14 Ap 0.0001978
  LUNO+3 :    7App 0.0001971

Computation Completed

Properties will be evaluated at   0.000000,   0.000000,   0.000000 [a0]

Properties computed using the SCF density matrix

  Nuclear Dipole Moment: [e a0]
     X:     0.8175      Y:    -0.0033      Z:     0.0000

  Electronic Dipole Moment: [e a0]
     X:    -0.7395      Y:     0.0034      Z:     0.0000

  Dipole Moment: [e a0]
     X:     0.0780      Y:     0.0001      Z:     0.0000     Total:     0.0780

  Dipole Moment: [D]
     X:     0.1983      Y:     0.0002      Z:     0.0000     Total:     0.1983

*** tstop() called on n089 at Fri Nov  5 12:54:56 2021
Module time:
	user time   =     509.04 seconds =       8.48 minutes
	system time =       4.57 seconds =       0.08 minutes
	total time  =        129 seconds =       2.15 minutes
Total time:
	user time   =     509.04 seconds =       8.48 minutes
	system time =       4.57 seconds =       0.08 minutes
	total time  =        129 seconds =       2.15 minutes
Grab this energy -157.81307347927122
    Psi4 stopped on: Friday, 05 November 2021 12:54PM
    Psi4 wall time for execution: 0:02:09.15

*** Psi4 exiting successfully. Buy a developer a beer!
