                               Psi4 1.4a2.dev629

  ==> Input File <==

--------------------------------------------------------------------------
import os
memory 14 GB

molecule {
 C   -0.3230391155   -0.0002281617   -0.0000000000
 C    0.0609173003   -1.3979513817   -2.4204748026
 C    0.0610492006    2.7985830363   -0.0000000000
 C    0.0609173003   -1.3979513817    2.4204748026
 H    2.0866047357   -1.6408335920   -2.8421069200
 H   -0.7651227834   -0.3857119573   -4.0203711215
 H   -0.7653916937   -3.2887009801   -2.3443558705
 H    2.0865838047    3.2808288416    0.0000000000
 H   -0.7656084422    3.6735938961    1.6762663080
 H   -0.7656084422    3.6735938961   -1.6762663080
 H    2.0866047357   -1.6408335920    2.8421069200
 H   -0.7653916937   -3.2887009801    2.3443558705
 H   -0.7651227834   -0.3857119573    4.0203711215
units bohr
0 2
}

basis {

assign 6-31g_2dfp_

[ 6-31g_2dfp_ ]

spherical

!----------------------------------------------------------------------
! Basis Set Exchange
! Version v0.8.13
! https://www.basissetexchange.org
!----------------------------------------------------------------------
!   Basis set: 6-31G(2df,p)
! Description: 6-31G(2df,p)
!        Role: orbital
!     Version: 0  (Data from the original Basis Set Exchange)
!----------------------------------------------------------------------

****
H     0
S    3   1.00
     18.7311370              0.03349460
      2.8253937              0.23472695
      0.6401217              0.81375733
S    1   1.00
      0.1612778              1.00000000
P    1   1.00
      1.5000000              1.0000000
P    1   1.00
      0.3750000              1.0000000
****
B     0
S    6   1.00
   2068.8823000              0.0018663
    310.6495700              0.0142515
     70.6830330              0.0695516
     19.8610800              0.2325729
      6.2993048              0.4670787
      2.1270270              0.3634314
SP   3   1.00
      4.7279710             -0.1303938              0.0745976
      1.1903377             -0.1307889              0.3078467
      0.3594117              1.1309444              0.7434568
SP   1   1.00
      0.1267512              1.0000000              1.0000000
D    1   1.00
      0.8020000              1.0000000
D    1   1.00
      0.2005000              1.0000000
F    1   1.00
      0.5000000              1.0000000
****
C     0
S    6   1.00
   3047.5249000              0.0018347
    457.3695100              0.0140373
    103.9486900              0.0688426
     29.2101550              0.2321844
      9.2866630              0.4679413
      3.1639270              0.3623120
SP   3   1.00
      7.8682724             -0.1193324              0.0689991
      1.8812885             -0.1608542              0.3164240
      0.5442493              1.1434564              0.7443083
SP   1   1.00
      0.1687144              1.0000000              1.0000000
D    1   1.00
      1.2520000              1.0000000
D    1   1.00
      0.3130000              1.0000000
F    1   1.00
      0.8000000              1.0000000
****
N     0
S    6   1.00
   4173.5110000              0.0018348
    627.4579000              0.0139950
    142.9021000              0.0685870
     40.2343300              0.2322410
     12.8202100              0.4690700
      4.3904370              0.3604550
SP   3   1.00
     11.6263580             -0.1149610              0.0675800
      2.7162800             -0.1691180              0.3239070
      0.7722180              1.1458520              0.7408950
SP   1   1.00
      0.2120313              1.0000000              1.0000000
D    1   1.00
      1.8260000              1.0000000
D    1   1.00
      0.4565000              1.0000000
F    1   1.00
      1.0000000              1.0000000
****
O     0
S    6   1.00
   5484.6717000              0.0018311
    825.2349500              0.0139501
    188.0469600              0.0684451
     52.9645000              0.2327143
     16.8975700              0.4701930
      5.7996353              0.3585209
SP   3   1.00
     15.5396160             -0.1107775              0.0708743
      3.5999336             -0.1480263              0.3397528
      1.0137618              1.1307670              0.7271586
SP   1   1.00
      0.2700058              1.0000000              1.0000000
D    1   1.00
      2.5840000              1.0000000
D    1   1.00
      0.6460000              1.0000000
F    1   1.00
      1.4000000              1.0000000
****
F     0
S    6   1.00
   7001.7130900              0.0018196169
   1051.3660900              0.0139160796
    239.2856900              0.0684053245
     67.3974453              0.233185760
     21.5199573              0.471267439
      7.40310130             0.356618546
SP   3   1.00
     20.8479528             -0.108506975            0.0716287243
      4.80830834            -0.146451658            0.3459121030
      1.34406986             1.128688580            0.7224699570
SP   1   1.00
      0.358151393            1.0000000              1.0000000
D    1   1.00
      3.5000000              1.0000000
D    1   1.00
      0.8750000              1.0000000
F    1   1.00
      1.8500000              1.0000000
****
Al     0
S    6   1.00
  13983.1000000              0.00194267
   2098.7500000              0.0148599
    477.7050000              0.0728494
    134.3600000              0.2468300
     42.8709000              0.4872580
     14.5189000              0.3234960
SP   6   1.00
    239.6680000             -0.00292619             0.00460285
     57.4419000             -0.0374080              0.0331990
     18.2859000             -0.1144870              0.1362820
      6.5991400              0.1156350              0.3304760
      2.4904900              0.6125950              0.4491460
      0.9445400              0.3937990              0.2657040
SP   3   1.00
      1.2779000             -0.2276060             -0.0175130
      0.3975900              0.00144583             0.2445330
      0.1600950              1.0927900              0.8049340
SP   1   1.00
      0.0556577              1.0000000              1.0000000
D    1   1.00
      0.6500000              1.0000000
D    1   1.00
      0.1625000              1.0000000
F    1   1.00
      0.2500000              1.0000000
****
Si     0
S    6   1.00
  16115.9000000              0.00195948
   2425.5800000              0.01492880
    553.8670000              0.07284780
    156.3400000              0.24613000
     50.0683000              0.48591400
     17.0178000              0.32500200
SP   6   1.00
    292.7180000             -0.00278094             0.00443826
     69.8731000             -0.03571460             0.03266790
     22.3363000             -0.11498500             0.13472100
      8.1503900              0.09356340             0.32867800
      3.1345800              0.60301700             0.44964000
      1.2254300              0.41895900             0.26137200
SP   3   1.00
      1.7273800             -0.24463000            -0.01779510
      0.5729220              0.00431572             0.25353900
      0.2221920              1.09818000             0.80066900
SP   1   1.00
      0.0778369              1.00000000             1.00000000
D    1   1.00
      0.9000000              1.0000000
D    1   1.00
      0.2250000              1.0000000
F    1   1.00
      0.3200000              1.0000000
****
P     0
S    6   1.00
  19413.3000000              0.0018516
   2909.4200000              0.0142062
    661.3640000              0.0699995
    185.7590000              0.2400790
     59.1943000              0.4847620
     20.0310000              0.3352000
SP   6   1.00
    339.4780000             -0.00278217             0.00456462
     81.0101000             -0.0360499              0.03369360
     25.8780000             -0.1166310              0.13975500
      9.4522100              0.0968328              0.33936200
      3.6656600              0.6144180              0.45092100
      1.4674600              0.4037980              0.23858600
SP   3   1.00
      2.1562300             -0.2529230             -0.01776530
      0.7489970              0.0328517              0.27405800
      0.2831450              1.0812500              0.78542100
SP   1   1.00
      0.0998317              1.0000000              1.00000000
D    1   1.00
      1.1000000              1.0000000
D    1   1.00
      0.2750000              1.0000000
F    1   1.00
      0.4500000              1.0000000
****
S     0
S    6   1.00
  21917.1000000              0.0018690
   3301.4900000              0.0142300
    754.1460000              0.0696960
    212.7110000              0.2384870
     67.9896000              0.4833070
     23.0515000              0.3380740
SP   6   1.00
    423.7350000             -0.0023767              0.0040610
    100.7100000             -0.0316930              0.0306810
     32.1599000             -0.1133170              0.1304520
     11.8079000              0.0560900              0.3272050
      4.6311000              0.5922550              0.4528510
      1.8702500              0.4550060              0.2560420
SP   3   1.00
      2.6158400             -0.2503740             -0.0145110
      0.9221670              0.0669570              0.3102630
      0.3412870              1.0545100              0.7544830
SP   1   1.00
      0.1171670              1.0000000              1.0000000
D    1   1.00
      1.3000000              1.0000000
D    1   1.00
      0.3250000              1.0000000
F    1   1.00
      0.5500000              1.0000000
****
Cl     0
S    6   1.00
  25180.1000000              0.0018330
   3780.3500000              0.0140340
    860.4740000              0.0690970
    242.1450000              0.2374520
     77.3349000              0.4830340
     26.2470000              0.3398560
SP   6   1.00
    491.7650000             -0.0022974              0.0039894
    116.9840000             -0.0307140              0.0303180
     37.4153000             -0.1125280              0.1298800
     13.7834000              0.0450160              0.3279510
      5.4521500              0.5893530              0.4535270
      2.2258800              0.4652060              0.2521540
SP   3   1.00
      3.1864900             -0.2518300             -0.0142990
      1.1442700              0.0615890              0.3235720
      0.4203770              1.0601800              0.7435070
SP   1   1.00
      0.1426570              1.0000000              1.0000000
D    1   1.00
      1.5000000              1.0000000
D    1   1.00
      0.3750000              1.0000000
F    1   1.00
      0.7000000              1.0000000
****
}

set {
reference uhf
freeze_core true
e_convergence 10
d_convergence 10
dft_spherical_points 1202
dft_radial_points 99
}

e = energy('b3lyp')

print_out('Grab this energy {0}'.format(e))
--------------------------------------------------------------------------

    Molecular point group: cs

    Geometry (in Bohr), charge = 0, multiplicity = 2:

       Center              X                  Y                   Z               Mass
    ------------   -----------------  -----------------  -----------------  -----------------
         C           -0.323016902214    -0.000700026614     0.000000000000    12.000000000000
         C            0.060939513586    -1.398423246614    -2.420474802600    12.000000000000
         C            0.061071413886     2.798111171386     0.000000000000    12.000000000000
         C            0.060939513586    -1.398423246614     2.420474802600    12.000000000000
         H            2.086626948986    -1.641305456914    -2.842106920000     1.007825032230
         H           -0.765100570114    -0.386183822214    -4.020371121500     1.007825032230
         H           -0.765369480414    -3.289172845014    -2.344355870500     1.007825032230
         H            2.086606017986     3.280356976686     0.000000000000     1.007825032230
         H           -0.765586228914     3.673122031186     1.676266308000     1.007825032230
         H           -0.765586228914     3.673122031186    -1.676266308000     1.007825032230
         H            2.086626948986    -1.641305456914     2.842106920000     1.007825032230
         H           -0.765369480414    -3.289172845014     2.344355870500     1.007825032230
         H           -0.765100570114    -0.386183822214     4.020371121500     1.007825032230

  Charge       = 0
  Multiplicity = 2
  Basis Set: ANONYMOUSDB142C14
    Blend: 6-31G_2DFP_
  Basis Set: (ANONYMOUSDB142C14 AUX)
    Blend: DEF2-UNIVERSAL-JKFIT

    Orbital Energies [Eh]
    ---------------------

    Alpha Occupied:

       1Ap   -10.179568     1App  -10.166689     2Ap   -10.166667
       3Ap   -10.166603     4Ap    -0.798816     5Ap    -0.686512
       2App   -0.686465     6Ap    -0.530774     7Ap    -0.441721
       3App   -0.435234     8Ap    -0.435070     9Ap    -0.382764
       4App   -0.382583     5App   -0.363493     6App   -0.338394
      10Ap    -0.337978    11Ap    -0.168636

    Alpha Virtual:

      12Ap     0.076043     7App    0.134179    13Ap     0.134209
      14Ap     0.142770     8App    0.142894    15Ap     0.154942
       9App    0.178872    16Ap     0.179036    17Ap     0.204639
      10App    0.215148    18Ap     0.276283    11App    0.276729
      19Ap     0.399184    12App    0.399219    20Ap     0.403137
      21Ap     0.423783    13App    0.423867    22Ap     0.457176
      23Ap     0.495594    14App    0.495641    15App    0.512497
      24Ap     0.514382    25Ap     0.579457    16App    0.579532
      17App    0.592122    26Ap     0.592240    27Ap     0.603036
      28Ap     0.625168    18App    0.632127    29Ap     0.636901
      19App    0.637235    30Ap     0.663826    20App    0.663945
      21App    0.684290    31Ap     0.684325    32Ap     0.734788
      22App    0.825197    33Ap     0.825308    23App    0.854917
      34Ap     0.915744    24App    0.915767    35Ap     0.944023
      25App    0.945466    26App    0.962214    36Ap     0.962296
      37Ap     1.004582    38Ap     1.128916    27App    1.129087
      39Ap     1.142577    40Ap     1.163743    28App    1.164329
      41Ap     1.224231    42Ap     1.275077    29App    1.275701
      43Ap     1.279887    44Ap     1.324630    30App    1.324754
      45Ap     1.356163    46Ap     1.367737    31App    1.368041
      32App    1.393956    33App    1.403597    47Ap     1.403917
      48Ap     1.417356    34App    1.417616    35App    1.429330
      36App    1.492713    49Ap     1.499660    50Ap     1.543491
      37App    1.543632    51Ap     1.575408    38App    1.575794
      52Ap     1.669761    39App    1.739910    53Ap     1.740182
      54Ap     1.769836    40App    1.832082    55Ap     1.833100
      41App    1.973117    56Ap     2.019583    57Ap     2.020647
      42App    2.020717    58Ap     2.056467    43App    2.057832
      44App    2.738961    59Ap     2.739199    60Ap     2.792077
      45App    2.814156    61Ap     2.890999    46App    2.891168
      62Ap     2.896460    63Ap     2.929615    47App    2.929750
      48App    2.959233    64Ap     2.963987    49App    2.964151
      65Ap     3.033967    50App    3.072112    66Ap     3.072384
      51App    3.085939    67Ap     3.169420    52App    3.169826
      68Ap     3.182504    69Ap     3.285792    53App    3.285830
      70Ap     3.327409    54App    3.327781    71Ap     3.374224
      72Ap     3.491604    55App    3.492262    56App    3.514788
      73Ap     3.527651    74Ap     3.568279    57App    3.568404
      58App    3.577280    59App    3.665668    75Ap     3.666997
      76Ap     3.681640    60App    3.695462    77Ap     3.695718
      78Ap     3.781095    61App    3.781477    79Ap     3.789799
      80Ap     3.913561    62App    3.915060    81Ap     4.036300
      82Ap     4.114013    63App    4.114378    83Ap     4.148620
      64App    4.149174    84Ap     4.174461    85Ap     4.203934
      86Ap     4.205196    65App    4.205817    66App    4.212436
      87Ap     4.316770    67App    4.318221    68App    4.361497
      88Ap     4.425604    69App    4.427362    70App    4.445968
      89Ap     4.519180    71App    4.520509    90Ap     4.581824
      72App    4.581852    91Ap     4.624895    92Ap     4.714238
      73App    4.780679    93Ap     4.781341    74App    4.840863
      94Ap     4.965896    75App    5.003855    95Ap     5.005323
      96Ap     5.229060    97Ap     5.248029    76App    5.248426
      98Ap     5.358049    77App    5.358202    78App    5.485112

    Beta Occupied:

       1App  -10.167446     1Ap   -10.167430     2Ap   -10.167366
       3Ap   -10.165773     4Ap    -0.782119     5Ap    -0.684300
       2App   -0.684242     6Ap    -0.511846     3App   -0.431587
       7Ap    -0.431420     8Ap    -0.422322     9Ap    -0.376832
       4App   -0.376611     5App   -0.362466     6App   -0.333522
      10Ap    -0.333105

    Beta Virtual:

      11Ap    -0.025712    12Ap     0.077063    13Ap     0.135072
       7App    0.135083    14Ap     0.144685     8App    0.144777
      15Ap     0.163446     9App    0.182582    16Ap     0.182722
      10App    0.215385    17Ap     0.219841    18Ap     0.282571
      11App    0.282998    19Ap     0.400391    12App    0.400418
      20Ap     0.419486    21Ap     0.426583    13App    0.426670
      22Ap     0.469439    23Ap     0.497863    14App    0.497922
      15App    0.514248    24Ap     0.556648    25Ap     0.585009
      16App    0.585096    17App    0.598239    26Ap     0.598358
      27Ap     0.610503    28Ap     0.628603    18App    0.632294
      29Ap     0.640266    19App    0.640588    30Ap     0.667342
      20App    0.667472    21App    0.687019    31Ap     0.687028
      32Ap     0.757132    22App    0.830378    33Ap     0.830498
      23App    0.856307    34Ap     0.923726    24App    0.923754
      25App    0.947305    35Ap     0.952860    26App    0.967548
      36Ap     0.967623    37Ap     1.009748    38Ap     1.132955
      27App    1.133109    39Ap     1.155962    40Ap     1.168801
      28App    1.169422    41Ap     1.233342    42Ap     1.280707
      29App    1.281339    43Ap     1.285574    44Ap     1.329631
      30App    1.329729    45Ap     1.365610    46Ap     1.372998
      31App    1.373245    32App    1.395024    33App    1.407086
      47Ap     1.407310    48Ap     1.422473    34App    1.422697
      35App    1.429637    36App    1.493759    49Ap     1.510168
      50Ap     1.547833    37App    1.547993    51Ap     1.583342
      38App    1.583738    52Ap     1.674615    39App    1.745672
      53Ap     1.745951    54Ap     1.780641    40App    1.835964
      55Ap     1.836963    41App    1.973980    56Ap     2.026032
      42App    2.027140    57Ap     2.042041    58Ap     2.063210
      43App    2.064572    44App    2.747223    59Ap     2.747417
      45App    2.814572    60Ap     2.817193    61Ap     2.903480
      46App    2.903602    62Ap     2.926222    63Ap     2.932293
      47App    2.932388    48App    2.960307    64Ap     2.968576
      49App    2.968769    65Ap     3.041990    50App    3.082111
      66Ap     3.082374    51App    3.087776    67Ap     3.185015
      52App    3.185482    68Ap     3.190162    53App    3.290777
      69Ap     3.290795    70Ap     3.331146    54App    3.331503
      71Ap     3.382028    72Ap     3.494308    55App    3.495005
      56App    3.513144    73Ap     3.530647    57App    3.577156
      74Ap     3.581599    58App    3.581771    59App    3.670289
      75Ap     3.671677    76Ap     3.694914    60App    3.726904
      77Ap     3.727181    78Ap     3.785614    61App    3.786083
      79Ap     3.818212    80Ap     3.923435    62App    3.924832
      81Ap     4.047123    82Ap     4.120444    63App    4.121011
      83Ap     4.156121    64App    4.156483    84Ap     4.188635
      85Ap     4.210834    65App    4.211756    86Ap     4.212254
      66App    4.216985    87Ap     4.324213    67App    4.325720
      68App    4.364839    88Ap     4.433960    69App    4.435619
      70App    4.448898    89Ap     4.527103    71App    4.528421
      90Ap     4.592427    72App    4.592489    91Ap     4.632069
      92Ap     4.724667    73App    4.787653    93Ap     4.788278
      74App    4.843779    94Ap     4.970715    75App    5.007948
      95Ap     5.009386    96Ap     5.234815    97Ap     5.249832
      76App    5.250215    98Ap     5.364562    77App    5.364759
      78App    5.487455

    Final Occupation by Irrep:
             Ap   App
    DOCC [    10,    6 ]
    SOCC [     1,    0 ]

  @DF-UKS Final Energy:  -157.81304109046516

   => Energetics <=

    Nuclear Repulsion Energy =            125.5761239838757746
    One-Electron Energy =                -459.1062150713527217
    Two-Electron Energy =                 196.0280010326044078
    DFT Exchange-Correlation Energy =     -20.3109510355926339
    Empirical Dispersion Energy =           0.0000000000000000
    VV10 Nonlocal Energy =                  0.0000000000000000
    Total Energy =                       -157.8130410904651626

  UHF NO Occupations:
  HONO-2 :    9 Ap 1.9995992
  HONO-1 :   10 Ap 1.9989874
  HONO-0 :   11 Ap 1.0000000
  LUNO+0 :   12 Ap 0.0010126
  LUNO+1 :   13 Ap 0.0004008
  LUNO+2 :   14 Ap 0.0001957
  LUNO+3 :    7App 0.0001950

Computation Completed

Properties will be evaluated at   0.000000,   0.000000,   0.000000 [a0]

Properties computed using the SCF density matrix

  Nuclear Dipole Moment: [e a0]
     X:     0.8273      Y:    -0.0033      Z:     0.0000

  Electronic Dipole Moment: [e a0]
     X:    -0.7503      Y:     0.0034      Z:     0.0000

  Dipole Moment: [e a0]
     X:     0.0770      Y:     0.0001      Z:     0.0000     Total:     0.0770

  Dipole Moment: [D]
     X:     0.1958      Y:     0.0002      Z:     0.0000     Total:     0.1958

*** tstop() called on n051 at Fri Nov  5 13:05:36 2021
Module time:
	user time   =     539.87 seconds =       9.00 minutes
	system time =      11.78 seconds =       0.20 minutes
	total time  =        139 seconds =       2.32 minutes
Total time:
	user time   =     539.87 seconds =       9.00 minutes
	system time =      11.78 seconds =       0.20 minutes
	total time  =        139 seconds =       2.32 minutes
Grab this energy -157.81304109046516
    Psi4 stopped on: Friday, 05 November 2021 01:05PM
    Psi4 wall time for execution: 0:02:18.73

*** Psi4 exiting successfully. Buy a developer a beer!
