                               Psi4 1.4a2.dev629

  ==> Input File <==

--------------------------------------------------------------------------
import os
memory 14 GB

molecule {
 C   -0.3233278038   -0.0000013071   -0.0004325927
 C    0.0615915567   -1.4010494233   -2.4280688537
 C    0.0612044781    2.8033991384   -0.0013891480
 C    0.0610550946   -1.4023449946    2.4275343897
 H    2.0861995495   -1.6423402355   -2.8478924272
 H   -0.7636190019   -0.3879487186   -4.0244129268
 H   -0.7669890891   -3.2937300899   -2.3478012902
 H    2.0868500221    3.2876067961   -0.0034963669
 H   -0.7689724162    3.6806702358    1.6789932327
 H   -0.7625604715    3.6788691883   -1.6742125955
 H    2.0877775761   -1.6453592168    2.8461280015
 H   -0.7643874574   -3.2899638247    2.3492329097
 H   -0.7674299138   -0.3878318616    4.0258176674
units bohr
0 2
}

basis {

assign 6-31g_2dfp_

[ 6-31g_2dfp_ ]

spherical

!----------------------------------------------------------------------
! Basis Set Exchange
! Version v0.8.13
! https://www.basissetexchange.org
!----------------------------------------------------------------------
!   Basis set: 6-31G(2df,p)
! Description: 6-31G(2df,p)
!        Role: orbital
!     Version: 0  (Data from the original Basis Set Exchange)
!----------------------------------------------------------------------

****
H     0
S    3   1.00
     18.7311370              0.03349460
      2.8253937              0.23472695
      0.6401217              0.81375733
S    1   1.00
      0.1612778              1.00000000
P    1   1.00
      1.5000000              1.0000000
P    1   1.00
      0.3750000              1.0000000
****
B     0
S    6   1.00
   2068.8823000              0.0018663
    310.6495700              0.0142515
     70.6830330              0.0695516
     19.8610800              0.2325729
      6.2993048              0.4670787
      2.1270270              0.3634314
SP   3   1.00
      4.7279710             -0.1303938              0.0745976
      1.1903377             -0.1307889              0.3078467
      0.3594117              1.1309444              0.7434568
SP   1   1.00
      0.1267512              1.0000000              1.0000000
D    1   1.00
      0.8020000              1.0000000
D    1   1.00
      0.2005000              1.0000000
F    1   1.00
      0.5000000              1.0000000
****
C     0
S    6   1.00
   3047.5249000              0.0018347
    457.3695100              0.0140373
    103.9486900              0.0688426
     29.2101550              0.2321844
      9.2866630              0.4679413
      3.1639270              0.3623120
SP   3   1.00
      7.8682724             -0.1193324              0.0689991
      1.8812885             -0.1608542              0.3164240
      0.5442493              1.1434564              0.7443083
SP   1   1.00
      0.1687144              1.0000000              1.0000000
D    1   1.00
      1.2520000              1.0000000
D    1   1.00
      0.3130000              1.0000000
F    1   1.00
      0.8000000              1.0000000
****
N     0
S    6   1.00
   4173.5110000              0.0018348
    627.4579000              0.0139950
    142.9021000              0.0685870
     40.2343300              0.2322410
     12.8202100              0.4690700
      4.3904370              0.3604550
SP   3   1.00
     11.6263580             -0.1149610              0.0675800
      2.7162800             -0.1691180              0.3239070
      0.7722180              1.1458520              0.7408950
SP   1   1.00
      0.2120313              1.0000000              1.0000000
D    1   1.00
      1.8260000              1.0000000
D    1   1.00
      0.4565000              1.0000000
F    1   1.00
      1.0000000              1.0000000
****
O     0
S    6   1.00
   5484.6717000              0.0018311
    825.2349500              0.0139501
    188.0469600              0.0684451
     52.9645000              0.2327143
     16.8975700              0.4701930
      5.7996353              0.3585209
SP   3   1.00
     15.5396160             -0.1107775              0.0708743
      3.5999336             -0.1480263              0.3397528
      1.0137618              1.1307670              0.7271586
SP   1   1.00
      0.2700058              1.0000000              1.0000000
D    1   1.00
      2.5840000              1.0000000
D    1   1.00
      0.6460000              1.0000000
F    1   1.00
      1.4000000              1.0000000
****
F     0
S    6   1.00
   7001.7130900              0.0018196169
   1051.3660900              0.0139160796
    239.2856900              0.0684053245
     67.3974453              0.233185760
     21.5199573              0.471267439
      7.40310130             0.356618546
SP   3   1.00
     20.8479528             -0.108506975            0.0716287243
      4.80830834            -0.146451658            0.3459121030
      1.34406986             1.128688580            0.7224699570
SP   1   1.00
      0.358151393            1.0000000              1.0000000
D    1   1.00
      3.5000000              1.0000000
D    1   1.00
      0.8750000              1.0000000
F    1   1.00
      1.8500000              1.0000000
****
Al     0
S    6   1.00
  13983.1000000              0.00194267
   2098.7500000              0.0148599
    477.7050000              0.0728494
    134.3600000              0.2468300
     42.8709000              0.4872580
     14.5189000              0.3234960
SP   6   1.00
    239.6680000             -0.00292619             0.00460285
     57.4419000             -0.0374080              0.0331990
     18.2859000             -0.1144870              0.1362820
      6.5991400              0.1156350              0.3304760
      2.4904900              0.6125950              0.4491460
      0.9445400              0.3937990              0.2657040
SP   3   1.00
      1.2779000             -0.2276060             -0.0175130
      0.3975900              0.00144583             0.2445330
      0.1600950              1.0927900              0.8049340
SP   1   1.00
      0.0556577              1.0000000              1.0000000
D    1   1.00
      0.6500000              1.0000000
D    1   1.00
      0.1625000              1.0000000
F    1   1.00
      0.2500000              1.0000000
****
Si     0
S    6   1.00
  16115.9000000              0.00195948
   2425.5800000              0.01492880
    553.8670000              0.07284780
    156.3400000              0.24613000
     50.0683000              0.48591400
     17.0178000              0.32500200
SP   6   1.00
    292.7180000             -0.00278094             0.00443826
     69.8731000             -0.03571460             0.03266790
     22.3363000             -0.11498500             0.13472100
      8.1503900              0.09356340             0.32867800
      3.1345800              0.60301700             0.44964000
      1.2254300              0.41895900             0.26137200
SP   3   1.00
      1.7273800             -0.24463000            -0.01779510
      0.5729220              0.00431572             0.25353900
      0.2221920              1.09818000             0.80066900
SP   1   1.00
      0.0778369              1.00000000             1.00000000
D    1   1.00
      0.9000000              1.0000000
D    1   1.00
      0.2250000              1.0000000
F    1   1.00
      0.3200000              1.0000000
****
P     0
S    6   1.00
  19413.3000000              0.0018516
   2909.4200000              0.0142062
    661.3640000              0.0699995
    185.7590000              0.2400790
     59.1943000              0.4847620
     20.0310000              0.3352000
SP   6   1.00
    339.4780000             -0.00278217             0.00456462
     81.0101000             -0.0360499              0.03369360
     25.8780000             -0.1166310              0.13975500
      9.4522100              0.0968328              0.33936200
      3.6656600              0.6144180              0.45092100
      1.4674600              0.4037980              0.23858600
SP   3   1.00
      2.1562300             -0.2529230             -0.01776530
      0.7489970              0.0328517              0.27405800
      0.2831450              1.0812500              0.78542100
SP   1   1.00
      0.0998317              1.0000000              1.00000000
D    1   1.00
      1.1000000              1.0000000
D    1   1.00
      0.2750000              1.0000000
F    1   1.00
      0.4500000              1.0000000
****
S     0
S    6   1.00
  21917.1000000              0.0018690
   3301.4900000              0.0142300
    754.1460000              0.0696960
    212.7110000              0.2384870
     67.9896000              0.4833070
     23.0515000              0.3380740
SP   6   1.00
    423.7350000             -0.0023767              0.0040610
    100.7100000             -0.0316930              0.0306810
     32.1599000             -0.1133170              0.1304520
     11.8079000              0.0560900              0.3272050
      4.6311000              0.5922550              0.4528510
      1.8702500              0.4550060              0.2560420
SP   3   1.00
      2.6158400             -0.2503740             -0.0145110
      0.9221670              0.0669570              0.3102630
      0.3412870              1.0545100              0.7544830
SP   1   1.00
      0.1171670              1.0000000              1.0000000
D    1   1.00
      1.3000000              1.0000000
D    1   1.00
      0.3250000              1.0000000
F    1   1.00
      0.5500000              1.0000000
****
Cl     0
S    6   1.00
  25180.1000000              0.0018330
   3780.3500000              0.0140340
    860.4740000              0.0690970
    242.1450000              0.2374520
     77.3349000              0.4830340
     26.2470000              0.3398560
SP   6   1.00
    491.7650000             -0.0022974              0.0039894
    116.9840000             -0.0307140              0.0303180
     37.4153000             -0.1125280              0.1298800
     13.7834000              0.0450160              0.3279510
      5.4521500              0.5893530              0.4535270
      2.2258800              0.4652060              0.2521540
SP   3   1.00
      3.1864900             -0.2518300             -0.0142990
      1.1442700              0.0615890              0.3235720
      0.4203770              1.0601800              0.7435070
SP   1   1.00
      0.1426570              1.0000000              1.0000000
D    1   1.00
      1.5000000              1.0000000
D    1   1.00
      0.3750000              1.0000000
F    1   1.00
      0.7000000              1.0000000
****
}

set {
reference uhf
freeze_core true
e_convergence 10
d_convergence 10
dft_spherical_points 1202
dft_radial_points 99
}

e = energy('b3lyp')

print_out('Grab this energy {0}'.format(e))
--------------------------------------------------------------------------

    Molecular point group: c1

    Geometry (in Bohr), charge = 0, multiplicity = 2:

       Center              X                  Y                   Z               Mass
    ------------   -----------------  -----------------  -----------------  -----------------
         C           -0.323436301451    -0.000001535185     0.000021229296    12.000000000000
         C            0.061483059049    -1.401049651385    -2.427615031704    12.000000000000
         C            0.061095980449     2.803398910315    -0.000935326004    12.000000000000
         C            0.060946596949    -1.402345222685     2.427988211696    12.000000000000
         H            2.086091051849    -1.642340463585    -2.847438605204     1.007825032230
         H           -0.763727499551    -0.387948946685    -4.023959104804     1.007825032230
         H           -0.767097586751    -3.293730317985    -2.347347468204     1.007825032230
         H            2.086741524449     3.287606568015    -0.003042544904     1.007825032230
         H           -0.769080913851     3.680670007715     1.679447054696     1.007825032230
         H           -0.762668969151     3.678868960215    -1.673758773504     1.007825032230
         H            2.087669078449    -1.645359444885     2.846581823496     1.007825032230
         H           -0.764495955051    -3.289964052785     2.349686731696     1.007825032230
         H           -0.767538411451    -0.387832089685     4.026271489396     1.007825032230

  Charge       = 0
  Multiplicity = 2
  Basis Set: ANONYMOUSABFA9308
    Blend: 6-31G_2DFP_
  Basis Set: (ANONYMOUSABFA9308 AUX)
    Blend: DEF2-UNIVERSAL-JKFIT

    Orbital Energies [Eh]
    ---------------------

    Alpha Occupied:

       1A    -10.180394     2A    -10.166981     3A    -10.166974
       4A    -10.166931     5A     -0.797509     6A     -0.686239
       7A     -0.686119     8A     -0.530612     9A     -0.441116
      10A     -0.434790    11A     -0.434416    12A     -0.382760
      13A     -0.382714    14A     -0.363813    15A     -0.338000
      16A     -0.337676    17A     -0.168940

    Alpha Virtual:

      18A      0.076078    19A      0.134098    20A      0.134326
      21A      0.142556    22A      0.142965    23A      0.154777
      24A      0.178850    25A      0.179037    26A      0.203255
      27A      0.214928    28A      0.275634    29A      0.275854
      30A      0.398987    31A      0.399480    32A      0.403436
      33A      0.423989    34A      0.424313    35A      0.456413
      36A      0.495349    37A      0.495450    38A      0.512216
      39A      0.514037    40A      0.578801    41A      0.578914
      42A      0.591590    43A      0.591876    44A      0.602613
      45A      0.624836    46A      0.631999    47A      0.635934
      48A      0.636502    49A      0.663087    50A      0.663508
      51A      0.683674    52A      0.684076    53A      0.735125
      54A      0.825136    55A      0.825638    56A      0.853779
      57A      0.914854    58A      0.915281    59A      0.944079
      60A      0.944295    61A      0.961275    62A      0.961444
      63A      1.003624    64A      1.127756    65A      1.128318
      66A      1.141804    67A      1.163816    68A      1.163938
      69A      1.222902    70A      1.274113    71A      1.274607
      72A      1.279193    73A      1.323946    74A      1.324357
      75A      1.355653    76A      1.365611    77A      1.366218
      78A      1.392935    79A      1.404731    80A      1.404818
      81A      1.416419    82A      1.417819    83A      1.428158
      84A      1.490976    85A      1.499652    86A      1.542649
      87A      1.542699    88A      1.574141    89A      1.574555
      90A      1.670619    91A      1.738205    92A      1.739603
      93A      1.768348    94A      1.831062    95A      1.832595
      96A      1.971162    97A      2.017324    98A      2.018369
      99A      2.019403   100A      2.051695   101A      2.052760
     102A      2.738130   103A      2.738491   104A      2.790698
     105A      2.811340   106A      2.889698   107A      2.889997
     108A      2.894532   109A      2.929628   110A      2.929676
     111A      2.959011   112A      2.964365   113A      2.964483
     114A      3.033837   115A      3.070757   116A      3.071849
     117A      3.084036   118A      3.168265   119A      3.169092
     120A      3.179993   121A      3.285484   122A      3.285798
     123A      3.326538   124A      3.327294   125A      3.375715
     126A      3.489794   127A      3.490355   128A      3.513864
     129A      3.524977   130A      3.567715   131A      3.568582
     132A      3.575259   133A      3.666665   134A      3.667684
     135A      3.680216   136A      3.693998   137A      3.694518
     138A      3.776625   139A      3.776850   140A      3.789418
     141A      3.910543   142A      3.911701   143A      4.033893
     144A      4.111066   145A      4.112155   146A      4.147780
     147A      4.148406   148A      4.172665   149A      4.201557
     150A      4.201789   151A      4.203169   152A      4.210617
     153A      4.315419   154A      4.316723   155A      4.359610
     156A      4.425107   157A      4.426183   158A      4.445412
     159A      4.515458   160A      4.517558   161A      4.577536
     162A      4.577561   163A      4.617159   164A      4.708147
     165A      4.772812   166A      4.774787   167A      4.835574
     168A      4.964181   169A      5.003475   170A      5.004216
     171A      5.228103   172A      5.247039   173A      5.247559
     174A      5.354093   175A      5.356624   176A      5.478199

    Beta Occupied:

       1A    -10.167733     2A    -10.167726     3A    -10.167703
       4A    -10.166560     5A     -0.780850     6A     -0.684049
       7A     -0.683925     8A     -0.511537     9A     -0.431181
      10A     -0.430806    11A     -0.421853    12A     -0.376856
      13A     -0.376819    14A     -0.362801    15A     -0.333104
      16A     -0.332789

    Beta Virtual:

      17A     -0.025573    18A      0.077083    19A      0.134955
      20A      0.135233    21A      0.144397    22A      0.144861
      23A      0.163193    24A      0.182507    25A      0.182693
      26A      0.215155    27A      0.218687    28A      0.282002
      29A      0.282220    30A      0.400146    31A      0.400648
      32A      0.419874    33A      0.426798    34A      0.427122
      35A      0.468244    36A      0.497597    37A      0.497708
      38A      0.513942    39A      0.556414    40A      0.584354
      41A      0.584464    42A      0.597755    43A      0.598087
      44A      0.610044    45A      0.628177    46A      0.632153
      47A      0.639221    48A      0.639749    49A      0.666663
      50A      0.667055    51A      0.686320    52A      0.686677
      53A      0.757726    54A      0.830301    55A      0.830779
      56A      0.855120    57A      0.922848    58A      0.923235
      59A      0.945908    60A      0.953209    61A      0.966555
      62A      0.966760    63A      1.008874    64A      1.131795
      65A      1.132348    66A      1.155146    67A      1.168904
      68A      1.169017    69A      1.231933    70A      1.279660
      71A      1.280188    72A      1.284971    73A      1.328914
      74A      1.329322    75A      1.365059    76A      1.370977
      77A      1.371459    78A      1.393984    79A      1.408148
      80A      1.408268    81A      1.421520    82A      1.422816
      83A      1.428438    84A      1.492012    85A      1.510074
      86A      1.547009    87A      1.547113    88A      1.582029
      89A      1.582442    90A      1.675473    91A      1.743955
      92A      1.745383    93A      1.779085    94A      1.834889
      95A      1.836430    96A      1.972015    97A      2.024061
      98A      2.025179    99A      2.039896   100A      2.058443
     101A      2.059533   102A      2.746486   103A      2.746870
     104A      2.811753   105A      2.815867   106A      2.902384
     107A      2.902767   108A      2.924205   109A      2.932081
     110A      2.932123   111A      2.960089   112A      2.968865
     113A      2.968997   114A      3.041729   115A      3.080556
     116A      3.081641   117A      3.085988   118A      3.184138
     119A      3.184896   120A      3.187711   121A      3.290223
     122A      3.290560   123A      3.330312   124A      3.331138
     125A      3.383501   126A      3.492530   127A      3.493064
     128A      3.512230   129A      3.528059   130A      3.575116
     131A      3.581044   132A      3.582069   133A      3.671748
     134A      3.672479   135A      3.693525   136A      3.725701
     137A      3.725823   138A      3.781060   139A      3.781348
     140A      3.818012   141A      3.920330   142A      3.921621
     143A      4.044859   144A      4.117579   145A      4.119087
     146A      4.154819   147A      4.155900   148A      4.186648
     149A      4.207528   150A      4.209069   151A      4.209716
     152A      4.215086   153A      4.322994   154A      4.324216
     155A      4.362950   156A      4.433276   157A      4.434313
     158A      4.448294   159A      4.523177   160A      4.525292
     161A      4.588101   162A      4.588162   163A      4.624330
     164A      4.718489   165A      4.779795   166A      4.781716
     167A      4.838493   168A      4.968953   169A      5.007494
     170A      5.008230   171A      5.233693   172A      5.248823
     173A      5.249438   174A      5.360553   175A      5.363062
     176A      5.480514

    Final Occupation by Irrep:
              A
    DOCC [    16 ]
    SOCC [     1 ]

  @DF-UKS Final Energy:  -157.81303643772873

   => Energetics <=

    Nuclear Repulsion Energy =            125.3666877196104679
    One-Electron Energy =                -458.6939087189639395
    Two-Electron Energy =                 195.8214468461159186
    DFT Exchange-Correlation Energy =     -20.3072622844911841
    Empirical Dispersion Energy =           0.0000000000000000
    VV10 Nonlocal Energy =                  0.0000000000000000
    Total Energy =                       -157.8130364377287265

  UHF NO Occupations:
  HONO-2 :   15  A 1.9996025
  HONO-1 :   16  A 1.9989782
  HONO-0 :   17  A 1.0000000
  LUNO+0 :   18  A 0.0010218
  LUNO+1 :   19  A 0.0003975
  LUNO+2 :   20  A 0.0001983
  LUNO+3 :   21  A 0.0001983

Computation Completed

Properties will be evaluated at   0.000000,   0.000000,   0.000000 [a0]

Properties computed using the SCF density matrix

  Nuclear Dipole Moment: [e a0]
     X:     0.8264      Y:    -0.0000      Z:     0.0032

  Electronic Dipole Moment: [e a0]
     X:    -0.7484      Y:     0.0000      Z:    -0.0049

  Dipole Moment: [e a0]
     X:     0.0780      Y:    -0.0000      Z:    -0.0017     Total:     0.0781

  Dipole Moment: [D]
     X:     0.1984      Y:    -0.0000      Z:    -0.0044     Total:     0.1984

*** tstop() called on n091 at Fri Nov  5 13:22:01 2021
Module time:
	user time   =     467.84 seconds =       7.80 minutes
	system time =       4.51 seconds =       0.08 minutes
	total time  =        119 seconds =       1.98 minutes
Total time:
	user time   =     467.84 seconds =       7.80 minutes
	system time =       4.51 seconds =       0.08 minutes
	total time  =        119 seconds =       1.98 minutes
Grab this energy -157.81303643772873
    Psi4 stopped on: Friday, 05 November 2021 01:22PM
    Psi4 wall time for execution: 0:01:58.81

*** Psi4 exiting successfully. Buy a developer a beer!
