                               Psi4 1.4a2.dev629

  ==> Input File <==

--------------------------------------------------------------------------
import os
memory 14 GB

molecule {
 C   -0.3233403512   -0.0019991976    0.0000000000
 C    0.0610624377   -1.4015320294   -2.4255140780
 C    0.0611748938    2.8026065016    0.0000000000
 C    0.0610624377   -1.4015320294    2.4255140780
 H    2.0870470457   -1.6460248462   -2.8436825196
 H   -0.7639622101   -0.3855823406   -4.0215106612
 H   -0.7665008766   -3.2935552120   -2.3538394191
 H    2.0865702169    3.2926916012    0.0000000000
 H   -0.7661527149    3.6800328188    1.6772664514
 H   -0.7661527149    3.6800328188   -1.6772664514
 H    2.0870470457   -1.6460248462    2.8436825196
 H   -0.7665008766   -3.2935552120    2.3538394191
 H   -0.7639622101   -0.3855823406    4.0215106612
units bohr
0 2
}

basis {

assign 6-31g_2dfp_

[ 6-31g_2dfp_ ]

spherical

!----------------------------------------------------------------------
! Basis Set Exchange
! Version v0.8.13
! https://www.basissetexchange.org
!----------------------------------------------------------------------
!   Basis set: 6-31G(2df,p)
! Description: 6-31G(2df,p)
!        Role: orbital
!     Version: 0  (Data from the original Basis Set Exchange)
!----------------------------------------------------------------------

****
H     0
S    3   1.00
     18.7311370              0.03349460
      2.8253937              0.23472695
      0.6401217              0.81375733
S    1   1.00
      0.1612778              1.00000000
P    1   1.00
      1.5000000              1.0000000
P    1   1.00
      0.3750000              1.0000000
****
B     0
S    6   1.00
   2068.8823000              0.0018663
    310.6495700              0.0142515
     70.6830330              0.0695516
     19.8610800              0.2325729
      6.2993048              0.4670787
      2.1270270              0.3634314
SP   3   1.00
      4.7279710             -0.1303938              0.0745976
      1.1903377             -0.1307889              0.3078467
      0.3594117              1.1309444              0.7434568
SP   1   1.00
      0.1267512              1.0000000              1.0000000
D    1   1.00
      0.8020000              1.0000000
D    1   1.00
      0.2005000              1.0000000
F    1   1.00
      0.5000000              1.0000000
****
C     0
S    6   1.00
   3047.5249000              0.0018347
    457.3695100              0.0140373
    103.9486900              0.0688426
     29.2101550              0.2321844
      9.2866630              0.4679413
      3.1639270              0.3623120
SP   3   1.00
      7.8682724             -0.1193324              0.0689991
      1.8812885             -0.1608542              0.3164240
      0.5442493              1.1434564              0.7443083
SP   1   1.00
      0.1687144              1.0000000              1.0000000
D    1   1.00
      1.2520000              1.0000000
D    1   1.00
      0.3130000              1.0000000
F    1   1.00
      0.8000000              1.0000000
****
N     0
S    6   1.00
   4173.5110000              0.0018348
    627.4579000              0.0139950
    142.9021000              0.0685870
     40.2343300              0.2322410
     12.8202100              0.4690700
      4.3904370              0.3604550
SP   3   1.00
     11.6263580             -0.1149610              0.0675800
      2.7162800             -0.1691180              0.3239070
      0.7722180              1.1458520              0.7408950
SP   1   1.00
      0.2120313              1.0000000              1.0000000
D    1   1.00
      1.8260000              1.0000000
D    1   1.00
      0.4565000              1.0000000
F    1   1.00
      1.0000000              1.0000000
****
O     0
S    6   1.00
   5484.6717000              0.0018311
    825.2349500              0.0139501
    188.0469600              0.0684451
     52.9645000              0.2327143
     16.8975700              0.4701930
      5.7996353              0.3585209
SP   3   1.00
     15.5396160             -0.1107775              0.0708743
      3.5999336             -0.1480263              0.3397528
      1.0137618              1.1307670              0.7271586
SP   1   1.00
      0.2700058              1.0000000              1.0000000
D    1   1.00
      2.5840000              1.0000000
D    1   1.00
      0.6460000              1.0000000
F    1   1.00
      1.4000000              1.0000000
****
F     0
S    6   1.00
   7001.7130900              0.0018196169
   1051.3660900              0.0139160796
    239.2856900              0.0684053245
     67.3974453              0.233185760
     21.5199573              0.471267439
      7.40310130             0.356618546
SP   3   1.00
     20.8479528             -0.108506975            0.0716287243
      4.80830834            -0.146451658            0.3459121030
      1.34406986             1.128688580            0.7224699570
SP   1   1.00
      0.358151393            1.0000000              1.0000000
D    1   1.00
      3.5000000              1.0000000
D    1   1.00
      0.8750000              1.0000000
F    1   1.00
      1.8500000              1.0000000
****
Al     0
S    6   1.00
  13983.1000000              0.00194267
   2098.7500000              0.0148599
    477.7050000              0.0728494
    134.3600000              0.2468300
     42.8709000              0.4872580
     14.5189000              0.3234960
SP   6   1.00
    239.6680000             -0.00292619             0.00460285
     57.4419000             -0.0374080              0.0331990
     18.2859000             -0.1144870              0.1362820
      6.5991400              0.1156350              0.3304760
      2.4904900              0.6125950              0.4491460
      0.9445400              0.3937990              0.2657040
SP   3   1.00
      1.2779000             -0.2276060             -0.0175130
      0.3975900              0.00144583             0.2445330
      0.1600950              1.0927900              0.8049340
SP   1   1.00
      0.0556577              1.0000000              1.0000000
D    1   1.00
      0.6500000              1.0000000
D    1   1.00
      0.1625000              1.0000000
F    1   1.00
      0.2500000              1.0000000
****
Si     0
S    6   1.00
  16115.9000000              0.00195948
   2425.5800000              0.01492880
    553.8670000              0.07284780
    156.3400000              0.24613000
     50.0683000              0.48591400
     17.0178000              0.32500200
SP   6   1.00
    292.7180000             -0.00278094             0.00443826
     69.8731000             -0.03571460             0.03266790
     22.3363000             -0.11498500             0.13472100
      8.1503900              0.09356340             0.32867800
      3.1345800              0.60301700             0.44964000
      1.2254300              0.41895900             0.26137200
SP   3   1.00
      1.7273800             -0.24463000            -0.01779510
      0.5729220              0.00431572             0.25353900
      0.2221920              1.09818000             0.80066900
SP   1   1.00
      0.0778369              1.00000000             1.00000000
D    1   1.00
      0.9000000              1.0000000
D    1   1.00
      0.2250000              1.0000000
F    1   1.00
      0.3200000              1.0000000
****
P     0
S    6   1.00
  19413.3000000              0.0018516
   2909.4200000              0.0142062
    661.3640000              0.0699995
    185.7590000              0.2400790
     59.1943000              0.4847620
     20.0310000              0.3352000
SP   6   1.00
    339.4780000             -0.00278217             0.00456462
     81.0101000             -0.0360499              0.03369360
     25.8780000             -0.1166310              0.13975500
      9.4522100              0.0968328              0.33936200
      3.6656600              0.6144180              0.45092100
      1.4674600              0.4037980              0.23858600
SP   3   1.00
      2.1562300             -0.2529230             -0.01776530
      0.7489970              0.0328517              0.27405800
      0.2831450              1.0812500              0.78542100
SP   1   1.00
      0.0998317              1.0000000              1.00000000
D    1   1.00
      1.1000000              1.0000000
D    1   1.00
      0.2750000              1.0000000
F    1   1.00
      0.4500000              1.0000000
****
S     0
S    6   1.00
  21917.1000000              0.0018690
   3301.4900000              0.0142300
    754.1460000              0.0696960
    212.7110000              0.2384870
     67.9896000              0.4833070
     23.0515000              0.3380740
SP   6   1.00
    423.7350000             -0.0023767              0.0040610
    100.7100000             -0.0316930              0.0306810
     32.1599000             -0.1133170              0.1304520
     11.8079000              0.0560900              0.3272050
      4.6311000              0.5922550              0.4528510
      1.8702500              0.4550060              0.2560420
SP   3   1.00
      2.6158400             -0.2503740             -0.0145110
      0.9221670              0.0669570              0.3102630
      0.3412870              1.0545100              0.7544830
SP   1   1.00
      0.1171670              1.0000000              1.0000000
D    1   1.00
      1.3000000              1.0000000
D    1   1.00
      0.3250000              1.0000000
F    1   1.00
      0.5500000              1.0000000
****
Cl     0
S    6   1.00
  25180.1000000              0.0018330
   3780.3500000              0.0140340
    860.4740000              0.0690970
    242.1450000              0.2374520
     77.3349000              0.4830340
     26.2470000              0.3398560
SP   6   1.00
    491.7650000             -0.0022974              0.0039894
    116.9840000             -0.0307140              0.0303180
     37.4153000             -0.1125280              0.1298800
     13.7834000              0.0450160              0.3279510
      5.4521500              0.5893530              0.4535270
      2.2258800              0.4652060              0.2521540
SP   3   1.00
      3.1864900             -0.2518300             -0.0142990
      1.1442700              0.0615890              0.3235720
      0.4203770              1.0601800              0.7435070
SP   1   1.00
      0.1426570              1.0000000              1.0000000
D    1   1.00
      1.5000000              1.0000000
D    1   1.00
      0.3750000              1.0000000
F    1   1.00
      0.7000000              1.0000000
****
}

set {
reference uhf
freeze_core true
e_convergence 10
d_convergence 10
dft_spherical_points 1202
dft_radial_points 99
}

e = energy('b3lyp')

print_out('Grab this energy {0}'.format(e))
--------------------------------------------------------------------------

    Molecular point group: cs

    Geometry (in Bohr), charge = 0, multiplicity = 2:

       Center              X                  Y                   Z               Mass
    ------------   -----------------  -----------------  -----------------  -----------------
         C           -0.323340236180    -0.001525579569     0.000000000000    12.000000000000
         C            0.061062552720    -1.401058411369    -2.425514078000    12.000000000000
         C            0.061175008820     2.803080119631     0.000000000000    12.000000000000
         C            0.061062552720    -1.401058411369     2.425514078000    12.000000000000
         H            2.087047160720    -1.645551228169    -2.843682519600     1.007825032230
         H           -0.763962095080    -0.385108722569    -4.021510661200     1.007825032230
         H           -0.766500761580    -3.293081593969    -2.353839419100     1.007825032230
         H            2.086570331920     3.293165219231     0.000000000000     1.007825032230
         H           -0.766152599880     3.680506436831     1.677266451400     1.007825032230
         H           -0.766152599880     3.680506436831    -1.677266451400     1.007825032230
         H            2.087047160720    -1.645551228169     2.843682519600     1.007825032230
         H           -0.766500761580    -3.293081593969     2.353839419100     1.007825032230
         H           -0.763962095080    -0.385108722569     4.021510661200     1.007825032230

  Charge       = 0
  Multiplicity = 2
  Basis Set: ANONYMOUS9A8F38ED
    Blend: 6-31G_2DFP_
  Basis Set: (ANONYMOUS9A8F38ED AUX)
    Blend: DEF2-UNIVERSAL-JKFIT

    Orbital Energies [Eh]
    ---------------------

    Alpha Occupied:

       1Ap   -10.180342     2Ap   -10.167199     1App  -10.166939
       3Ap   -10.166907     4Ap    -0.797767     2App   -0.686308
       5Ap    -0.686065     6Ap    -0.530776     7Ap    -0.441129
       3App   -0.434742     8Ap    -0.434597     4App   -0.382634
       9Ap    -0.382564     5App   -0.363612     6App   -0.338063
      10Ap    -0.337933    11Ap    -0.168961

    Alpha Virtual:

      12Ap     0.076073    13Ap     0.134124     7App    0.134188
       8App    0.142567    14Ap     0.142686    15Ap     0.154879
       9App    0.178738    16Ap     0.178818    17Ap     0.203548
      10App    0.214804    18Ap     0.275718    11App    0.276253
      19Ap     0.399183    12App    0.399267    20Ap     0.403352
      13App    0.424041    21Ap     0.424154    22Ap     0.456593
      14App    0.495331    23Ap     0.495449    15App    0.512159
      24Ap     0.513979    25Ap     0.578524    16App    0.579109
      26Ap     0.591337    17App    0.591926    27Ap     0.602575
      28Ap     0.624759    18App    0.631777    29Ap     0.636216
      19App    0.636286    20App    0.663379    30Ap     0.663444
      31Ap     0.683821    21App    0.683883    32Ap     0.734994
      22App    0.825190    33Ap     0.825623    23App    0.853916
      34Ap     0.914878    24App    0.915161    25App    0.944123
      35Ap     0.944613    26App    0.960600    36Ap     0.961991
      37Ap     1.003463    27App    1.127895    38Ap     1.128312
      39Ap     1.142220    28App    1.163180    40Ap     1.163374
      41Ap     1.223325    42Ap     1.274335    29App    1.274645
      43Ap     1.279348    30App    1.324352    44Ap     1.324364
      45Ap     1.355996    46Ap     1.365895    31App    1.366211
      32App    1.392457    47Ap     1.403738    33App    1.404371
      48Ap     1.416715    34App    1.417503    35App    1.427909
      36App    1.491495    49Ap     1.499076    37App    1.542557
      50Ap     1.543099    38App    1.574437    51Ap     1.574451
      52Ap     1.669830    53Ap     1.739042    39App    1.739800
      54Ap     1.768310    55Ap     1.830910    40App    1.831887
      41App    1.971727    56Ap     2.018029    42App    2.019003
      57Ap     2.019360    58Ap     2.051830    43App    2.053445
      44App    2.738209    59Ap     2.738757    60Ap     2.790928
      45App    2.811416    61Ap     2.889644    46App    2.890235
      62Ap     2.894985    63Ap     2.929472    47App    2.929521
      48App    2.958994    49App    2.964231    64Ap     2.964517
      65Ap     3.034009    50App    3.071144    66Ap     3.071423
      51App    3.084350    67Ap     3.168577    52App    3.168993
      68Ap     3.180582    69Ap     3.285271    53App    3.285358
      70Ap     3.326825    54App    3.327491    71Ap     3.375620
      72Ap     3.490010    55App    3.490291    56App    3.514024
      73Ap     3.525308    74Ap     3.568112    57App    3.568593
      58App    3.575243    59App    3.666214    75Ap     3.666524
      76Ap     3.679622    77Ap     3.693722    60App    3.694572
      61App    3.775571    78Ap     3.778037    79Ap     3.789151
      80Ap     3.911962    62App    3.912499    81Ap     4.034452
      82Ap     4.110105    63App    4.112619    83Ap     4.147205
      64App    4.149012    84Ap     4.173281    85Ap     4.202616
      86Ap     4.203071    65App    4.203101    66App    4.210859
      87Ap     4.315169    67App    4.316708    68App    4.359030
      69App    4.424204    88Ap     4.424713    70App    4.443447
      89Ap     4.516413    71App    4.517246    90Ap     4.577925
      72App    4.578594    91Ap     4.617526    92Ap     4.709453
      73App    4.773487    93Ap     4.775690    74App    4.836948
      94Ap     4.962859    95Ap     5.002611    75App    5.003293
      96Ap     5.228036    76App    5.246332    97Ap     5.247289
      98Ap     5.354777    77App    5.356223    78App    5.479355

    Beta Occupied:

       1Ap   -10.167957     1App  -10.167692     2Ap   -10.167675
       3Ap   -10.166519     4Ap    -0.781092     2App   -0.684103
       5Ap    -0.683875     6Ap    -0.511747     3App   -0.431103
       7Ap    -0.430985     8Ap    -0.421818     4App   -0.376715
       9Ap    -0.376654     5App   -0.362595     6App   -0.333182
      10Ap    -0.333060

    Beta Virtual:

      11Ap    -0.025742    12Ap     0.077082    13Ap     0.135021
       7App    0.135070     8App    0.144436    14Ap     0.144559
      15Ap     0.163339     9App    0.182428    16Ap     0.182471
      10App    0.215034    17Ap     0.218930    18Ap     0.282076
      11App    0.282591    19Ap     0.400360    12App    0.400436
      20Ap     0.419789    13App    0.426851    21Ap     0.426969
      22Ap     0.468500    14App    0.497594    23Ap     0.497707
      15App    0.513894    24Ap     0.556324    25Ap     0.584074
      16App    0.584660    26Ap     0.597531    17App    0.598092
      27Ap     0.609998    28Ap     0.628135    18App    0.631932
      29Ap     0.639482    19App    0.639591    20App    0.666941
      30Ap     0.667009    31Ap     0.686435    21App    0.686540
      32Ap     0.757517    22App    0.830337    33Ap     0.830813
      23App    0.855269    34Ap     0.922884    24App    0.923096
      25App    0.945961    35Ap     0.953537    26App    0.965962
      36Ap     0.967246    37Ap     1.008704    27App    1.131849
      38Ap     1.132415    39Ap     1.155600    28App    1.168334
      40Ap     1.168364    41Ap     1.232298    42Ap     1.279933
      29App    1.280241    43Ap     1.285102    44Ap     1.329336
      30App    1.329358    45Ap     1.365413    46Ap     1.371167
      31App    1.371424    32App    1.393516    47Ap     1.407177
      33App    1.407860    48Ap     1.421772    34App    1.422548
      35App    1.428178    36App    1.492543    49Ap     1.509520
      37App    1.546965    50Ap     1.547506    38App    1.582309
      51Ap     1.582323    52Ap     1.674677    53Ap     1.744796
      39App    1.745569    54Ap     1.779090    55Ap     1.834769
      40App    1.835739    41App    1.972586    42App    2.025394
      56Ap     2.025488    57Ap     2.039690    58Ap     2.058518
      43App    2.060185    44App    2.746560    59Ap     2.747079
      45App    2.811829    60Ap     2.816062    61Ap     2.902424
      46App    2.902862    62Ap     2.924664    63Ap     2.931966
      47App    2.931987    48App    2.960056    49App    2.968793
      64Ap     2.969044    65Ap     3.041944    50App    3.081064
      66Ap     3.081322    51App    3.086166    67Ap     3.184300
      52App    3.184780    68Ap     3.188256    69Ap     3.290045
      53App    3.290181    70Ap     3.330646    54App    3.331278
      71Ap     3.383439    72Ap     3.492758    55App    3.493000
      56App    3.512392    73Ap     3.528361    57App    3.574914
      74Ap     3.581402    58App    3.582159    75Ap     3.671059
      59App    3.671207    76Ap     3.692920    77Ap     3.725647
      60App    3.725879    61App    3.780141    78Ap     3.782518
      79Ap     3.817698    80Ap     3.921795    62App    3.922298
      81Ap     4.045338    82Ap     4.117035    63App    4.119322
      83Ap     4.154394    64App    4.156244    84Ap     4.187335
      85Ap     4.208956    65App    4.209053    86Ap     4.210622
      66App    4.215334    87Ap     4.322586    67App    4.324165
      68App    4.362398    69App    4.432463    88Ap     4.432883
      70App    4.446331    89Ap     4.524213    71App    4.525025
      90Ap     4.588525    72App    4.589193    91Ap     4.624722
      92Ap     4.719798    73App    4.780482    93Ap     4.782602
      74App    4.839866    94Ap     4.967654    95Ap     5.006642
      75App    5.007341    96Ap     5.233752    76App    5.248108
      97Ap     5.249081    98Ap     5.361236    77App    5.362725
      78App    5.481677

    Final Occupation by Irrep:
             Ap   App
    DOCC [    10,    6 ]
    SOCC [     1,    0 ]

  @DF-UKS Final Energy:  -157.81306948842018

   => Energetics <=

    Nuclear Repulsion Energy =            125.3946073019219369
    One-Electron Energy =                -458.7488801998152894
    Two-Electron Energy =                 195.8483458266496768
    DFT Exchange-Correlation Energy =     -20.3071424171765074
    Empirical Dispersion Energy =           0.0000000000000000
    VV10 Nonlocal Energy =                  0.0000000000000000
    Total Energy =                       -157.8130694884201830

  UHF NO Occupations:
  HONO-2 :    9 Ap 1.9996009
  HONO-1 :   10 Ap 1.9989805
  HONO-0 :   11 Ap 1.0000000
  LUNO+0 :   12 Ap 0.0010195
  LUNO+1 :   13 Ap 0.0003991
  LUNO+2 :   14 Ap 0.0001979
  LUNO+3 :    7App 0.0001972

Computation Completed

Properties will be evaluated at   0.000000,   0.000000,   0.000000 [a0]

Properties computed using the SCF density matrix

  Nuclear Dipole Moment: [e a0]
     X:     0.8272      Y:     0.0033      Z:    -0.0000

  Electronic Dipole Moment: [e a0]
     X:    -0.7493      Y:    -0.0033      Z:     0.0000

  Dipole Moment: [e a0]
     X:     0.0779      Y:    -0.0000      Z:    -0.0000     Total:     0.0779

  Dipole Moment: [D]
     X:     0.1980      Y:    -0.0001      Z:    -0.0000     Total:     0.1980

*** tstop() called on n054 at Fri Nov  5 15:31:23 2021
Module time:
	user time   =     544.88 seconds =       9.08 minutes
	system time =      12.09 seconds =       0.20 minutes
	total time  =        140 seconds =       2.33 minutes
Total time:
	user time   =     544.88 seconds =       9.08 minutes
	system time =      12.09 seconds =       0.20 minutes
	total time  =        140 seconds =       2.33 minutes
Grab this energy -157.81306948842018
    Psi4 stopped on: Friday, 05 November 2021 03:31PM
    Psi4 wall time for execution: 0:02:20.08

*** Psi4 exiting successfully. Buy a developer a beer!
