                               Psi4 1.4a2.dev629

  ==> Input File <==

--------------------------------------------------------------------------
import os
memory 14 GB

molecule {
 C   -0.3268120593   -0.0000021294   -0.0000000000
 C    0.0599536642   -1.4036897294   -2.4312513761
 C    0.0598336184    2.8073836580    0.0000000000
 C    0.0599536642   -1.4036897294    2.4312513761
 H    2.0875622836   -1.6475264817   -2.8533797633
 H   -0.7645458478   -0.3904186282   -4.0308601508
 H   -0.7647092283   -3.2955590387   -2.3535798358
 H    2.0874230802    3.2949606171    0.0000000000
 H   -0.7647871298    3.6860106484    1.6772865884
 H   -0.7647871298    3.6860106484   -1.6772865884
 H    2.0875622836   -1.6475264817    2.8533797633
 H   -0.7647092283   -3.2955590387    2.3535798358
 H   -0.7645458478   -0.3904186282    4.0308601508
units bohr
0 2
}

basis {

assign 6-31g_2dfp_

[ 6-31g_2dfp_ ]

spherical

!----------------------------------------------------------------------
! Basis Set Exchange
! Version v0.8.13
! https://www.basissetexchange.org
!----------------------------------------------------------------------
!   Basis set: 6-31G(2df,p)
! Description: 6-31G(2df,p)
!        Role: orbital
!     Version: 0  (Data from the original Basis Set Exchange)
!----------------------------------------------------------------------

****
H     0
S    3   1.00
     18.7311370              0.03349460
      2.8253937              0.23472695
      0.6401217              0.81375733
S    1   1.00
      0.1612778              1.00000000
P    1   1.00
      1.5000000              1.0000000
P    1   1.00
      0.3750000              1.0000000
****
B     0
S    6   1.00
   2068.8823000              0.0018663
    310.6495700              0.0142515
     70.6830330              0.0695516
     19.8610800              0.2325729
      6.2993048              0.4670787
      2.1270270              0.3634314
SP   3   1.00
      4.7279710             -0.1303938              0.0745976
      1.1903377             -0.1307889              0.3078467
      0.3594117              1.1309444              0.7434568
SP   1   1.00
      0.1267512              1.0000000              1.0000000
D    1   1.00
      0.8020000              1.0000000
D    1   1.00
      0.2005000              1.0000000
F    1   1.00
      0.5000000              1.0000000
****
C     0
S    6   1.00
   3047.5249000              0.0018347
    457.3695100              0.0140373
    103.9486900              0.0688426
     29.2101550              0.2321844
      9.2866630              0.4679413
      3.1639270              0.3623120
SP   3   1.00
      7.8682724             -0.1193324              0.0689991
      1.8812885             -0.1608542              0.3164240
      0.5442493              1.1434564              0.7443083
SP   1   1.00
      0.1687144              1.0000000              1.0000000
D    1   1.00
      1.2520000              1.0000000
D    1   1.00
      0.3130000              1.0000000
F    1   1.00
      0.8000000              1.0000000
****
N     0
S    6   1.00
   4173.5110000              0.0018348
    627.4579000              0.0139950
    142.9021000              0.0685870
     40.2343300              0.2322410
     12.8202100              0.4690700
      4.3904370              0.3604550
SP   3   1.00
     11.6263580             -0.1149610              0.0675800
      2.7162800             -0.1691180              0.3239070
      0.7722180              1.1458520              0.7408950
SP   1   1.00
      0.2120313              1.0000000              1.0000000
D    1   1.00
      1.8260000              1.0000000
D    1   1.00
      0.4565000              1.0000000
F    1   1.00
      1.0000000              1.0000000
****
O     0
S    6   1.00
   5484.6717000              0.0018311
    825.2349500              0.0139501
    188.0469600              0.0684451
     52.9645000              0.2327143
     16.8975700              0.4701930
      5.7996353              0.3585209
SP   3   1.00
     15.5396160             -0.1107775              0.0708743
      3.5999336             -0.1480263              0.3397528
      1.0137618              1.1307670              0.7271586
SP   1   1.00
      0.2700058              1.0000000              1.0000000
D    1   1.00
      2.5840000              1.0000000
D    1   1.00
      0.6460000              1.0000000
F    1   1.00
      1.4000000              1.0000000
****
F     0
S    6   1.00
   7001.7130900              0.0018196169
   1051.3660900              0.0139160796
    239.2856900              0.0684053245
     67.3974453              0.233185760
     21.5199573              0.471267439
      7.40310130             0.356618546
SP   3   1.00
     20.8479528             -0.108506975            0.0716287243
      4.80830834            -0.146451658            0.3459121030
      1.34406986             1.128688580            0.7224699570
SP   1   1.00
      0.358151393            1.0000000              1.0000000
D    1   1.00
      3.5000000              1.0000000
D    1   1.00
      0.8750000              1.0000000
F    1   1.00
      1.8500000              1.0000000
****
Al     0
S    6   1.00
  13983.1000000              0.00194267
   2098.7500000              0.0148599
    477.7050000              0.0728494
    134.3600000              0.2468300
     42.8709000              0.4872580
     14.5189000              0.3234960
SP   6   1.00
    239.6680000             -0.00292619             0.00460285
     57.4419000             -0.0374080              0.0331990
     18.2859000             -0.1144870              0.1362820
      6.5991400              0.1156350              0.3304760
      2.4904900              0.6125950              0.4491460
      0.9445400              0.3937990              0.2657040
SP   3   1.00
      1.2779000             -0.2276060             -0.0175130
      0.3975900              0.00144583             0.2445330
      0.1600950              1.0927900              0.8049340
SP   1   1.00
      0.0556577              1.0000000              1.0000000
D    1   1.00
      0.6500000              1.0000000
D    1   1.00
      0.1625000              1.0000000
F    1   1.00
      0.2500000              1.0000000
****
Si     0
S    6   1.00
  16115.9000000              0.00195948
   2425.5800000              0.01492880
    553.8670000              0.07284780
    156.3400000              0.24613000
     50.0683000              0.48591400
     17.0178000              0.32500200
SP   6   1.00
    292.7180000             -0.00278094             0.00443826
     69.8731000             -0.03571460             0.03266790
     22.3363000             -0.11498500             0.13472100
      8.1503900              0.09356340             0.32867800
      3.1345800              0.60301700             0.44964000
      1.2254300              0.41895900             0.26137200
SP   3   1.00
      1.7273800             -0.24463000            -0.01779510
      0.5729220              0.00431572             0.25353900
      0.2221920              1.09818000             0.80066900
SP   1   1.00
      0.0778369              1.00000000             1.00000000
D    1   1.00
      0.9000000              1.0000000
D    1   1.00
      0.2250000              1.0000000
F    1   1.00
      0.3200000              1.0000000
****
P     0
S    6   1.00
  19413.3000000              0.0018516
   2909.4200000              0.0142062
    661.3640000              0.0699995
    185.7590000              0.2400790
     59.1943000              0.4847620
     20.0310000              0.3352000
SP   6   1.00
    339.4780000             -0.00278217             0.00456462
     81.0101000             -0.0360499              0.03369360
     25.8780000             -0.1166310              0.13975500
      9.4522100              0.0968328              0.33936200
      3.6656600              0.6144180              0.45092100
      1.4674600              0.4037980              0.23858600
SP   3   1.00
      2.1562300             -0.2529230             -0.01776530
      0.7489970              0.0328517              0.27405800
      0.2831450              1.0812500              0.78542100
SP   1   1.00
      0.0998317              1.0000000              1.00000000
D    1   1.00
      1.1000000              1.0000000
D    1   1.00
      0.2750000              1.0000000
F    1   1.00
      0.4500000              1.0000000
****
S     0
S    6   1.00
  21917.1000000              0.0018690
   3301.4900000              0.0142300
    754.1460000              0.0696960
    212.7110000              0.2384870
     67.9896000              0.4833070
     23.0515000              0.3380740
SP   6   1.00
    423.7350000             -0.0023767              0.0040610
    100.7100000             -0.0316930              0.0306810
     32.1599000             -0.1133170              0.1304520
     11.8079000              0.0560900              0.3272050
      4.6311000              0.5922550              0.4528510
      1.8702500              0.4550060              0.2560420
SP   3   1.00
      2.6158400             -0.2503740             -0.0145110
      0.9221670              0.0669570              0.3102630
      0.3412870              1.0545100              0.7544830
SP   1   1.00
      0.1171670              1.0000000              1.0000000
D    1   1.00
      1.3000000              1.0000000
D    1   1.00
      0.3250000              1.0000000
F    1   1.00
      0.5500000              1.0000000
****
Cl     0
S    6   1.00
  25180.1000000              0.0018330
   3780.3500000              0.0140340
    860.4740000              0.0690970
    242.1450000              0.2374520
     77.3349000              0.4830340
     26.2470000              0.3398560
SP   6   1.00
    491.7650000             -0.0022974              0.0039894
    116.9840000             -0.0307140              0.0303180
     37.4153000             -0.1125280              0.1298800
     13.7834000              0.0450160              0.3279510
      5.4521500              0.5893530              0.4535270
      2.2258800              0.4652060              0.2521540
SP   3   1.00
      3.1864900             -0.2518300             -0.0142990
      1.1442700              0.0615890              0.3235720
      0.4203770              1.0601800              0.7435070
SP   1   1.00
      0.1426570              1.0000000              1.0000000
D    1   1.00
      1.5000000              1.0000000
D    1   1.00
      0.3750000              1.0000000
F    1   1.00
      0.7000000              1.0000000
****
}

set {
reference uhf
freeze_core true
e_convergence 10
d_convergence 10
dft_spherical_points 1202
dft_radial_points 99
}

e = energy('b3lyp')

print_out('Grab this energy {0}'.format(e))
--------------------------------------------------------------------------

    Molecular point group: cs

    Geometry (in Bohr), charge = 0, multiplicity = 2:

       Center              X                  Y                   Z               Mass
    ------------   -----------------  -----------------  -----------------  -----------------
         C           -0.325457813467    -0.000002098698     0.000000000000    12.000000000000
         C            0.061307910033    -1.403689698698    -2.431251376100    12.000000000000
         C            0.061187864233     2.807383688702     0.000000000000    12.000000000000
         C            0.061307910033    -1.403689698698     2.431251376100    12.000000000000
         H            2.088916529433    -1.647526450998    -2.853379763300     1.007825032230
         H           -0.763191601967    -0.390418597498    -4.030860150800     1.007825032230
         H           -0.763354982467    -3.295559007998    -2.353579835800     1.007825032230
         H            2.088777326033     3.294960647802     0.000000000000     1.007825032230
         H           -0.763432883967     3.686010679102     1.677286588400     1.007825032230
         H           -0.763432883967     3.686010679102    -1.677286588400     1.007825032230
         H            2.088916529433    -1.647526450998     2.853379763300     1.007825032230
         H           -0.763354982467    -3.295559007998     2.353579835800     1.007825032230
         H           -0.763191601967    -0.390418597498     4.030860150800     1.007825032230

  Charge       = 0
  Multiplicity = 2
  Basis Set: ANONYMOUSCC490CA6
    Blend: 6-31G_2DFP_
  Basis Set: (ANONYMOUSCC490CA6 AUX)
    Blend: DEF2-UNIVERSAL-JKFIT

    Orbital Energies [Eh]
    ---------------------

    Alpha Occupied:

       1Ap   -10.181225     2Ap   -10.167415     1App  -10.167415
       3Ap   -10.167369     4Ap    -0.796667     5Ap    -0.685875
       2App   -0.685875     6Ap    -0.530799     7Ap    -0.440296
       3App   -0.434338     8Ap    -0.434338     9Ap    -0.382278
       4App   -0.382276     5App   -0.364010     6App   -0.337859
      10Ap    -0.337859    11Ap    -0.169401

    Alpha Virtual:

      12Ap     0.076119    13Ap     0.134117     7App    0.134118
      14Ap     0.142512     8App    0.142512    15Ap     0.154752
      16Ap     0.178498     9App    0.178498    17Ap     0.202391
      10App    0.214590    11App    0.275313    18Ap     0.275315
      19Ap     0.399227    12App    0.399231    20Ap     0.403504
      13App    0.424377    21Ap     0.424377    22Ap     0.456032
      23Ap     0.495216    14App    0.495217    15App    0.511722
      24Ap     0.513573    25Ap     0.578209    16App    0.578218
      17App    0.590783    26Ap     0.590784    27Ap     0.601812
      28Ap     0.624498    18App    0.631564    19App    0.635582
      29Ap     0.635586    30Ap     0.662756    20App    0.662756
      31Ap     0.683437    21App    0.683438    32Ap     0.735065
      22App    0.825386    33Ap     0.825388    23App    0.852957
      24App    0.914134    34Ap     0.914139    25App    0.942699
      35Ap     0.945160    26App    0.960419    36Ap     0.960435
      37Ap     1.003211    38Ap     1.127433    27App    1.127446
      39Ap     1.141516    40Ap     1.162345    28App    1.162357
      41Ap     1.222012    42Ap     1.273293    29App    1.273296
      43Ap     1.278685    30App    1.324134    44Ap     1.324137
      45Ap     1.354801    31App    1.364583    46Ap     1.364587
      32App    1.391017    47Ap     1.403703    33App    1.403704
      34App    1.416134    48Ap     1.416141    35App    1.426291
      36App    1.490770    49Ap     1.498010    37App    1.542461
      50Ap     1.542464    51Ap     1.573386    38App    1.573389
      52Ap     1.670432    53Ap     1.738567    39App    1.738579
      54Ap     1.766599    40App    1.830519    55Ap     1.830520
      41App    1.970917    56Ap     2.015737    57Ap     2.017633
      42App    2.017637    58Ap     2.047806    43App    2.047806
      44App    2.737548    59Ap     2.737549    60Ap     2.789542
      45App    2.808976    61Ap     2.888602    46App    2.888608
      62Ap     2.893454    63Ap     2.929479    47App    2.929487
      48App    2.958923    64Ap     2.964640    49App    2.964654
      65Ap     3.033992    50App    3.069728    66Ap     3.069742
      51App    3.082845    67Ap     3.167913    52App    3.167920
      68Ap     3.178923    53App    3.285122    69Ap     3.285123
      70Ap     3.327686    54App    3.327692    71Ap     3.376666
      55App    3.488168    72Ap     3.488189    56App    3.512766
      73Ap     3.523160    57App    3.568042    74Ap     3.568062
      58App    3.572593    75Ap     3.666429    59App    3.666437
      76Ap     3.678746    60App    3.692383    77Ap     3.692399
      78Ap     3.771444    61App    3.771470    79Ap     3.787094
      80Ap     3.910234    62App    3.910240    81Ap     4.031457
      82Ap     4.108853    63App    4.108857    83Ap     4.147653
      64App    4.147660    84Ap     4.171888    65App    4.200430
      85Ap     4.200433    86Ap     4.200845    66App    4.209132
      87Ap     4.314209    67App    4.314229    68App    4.356584
      88Ap     4.421765    69App    4.421767    70App    4.441889
      71App    4.514011    89Ap     4.514012    72App    4.574806
      90Ap     4.574819    91Ap     4.609386    92Ap     4.704264
      93Ap     4.767915    73App    4.767923    74App    4.832708
      94Ap     4.959909    75App    5.000631    95Ap     5.000642
      96Ap     5.226956    76App    5.245414    97Ap     5.245414
      98Ap     5.353346    77App    5.353359    78App    5.473142

    Beta Occupied:

       1Ap   -10.168165     1App  -10.168165     2Ap   -10.168150
       3Ap   -10.167373     4Ap    -0.780031     5Ap    -0.683702
       2App   -0.683701     6Ap    -0.511674     3App   -0.430739
       7Ap    -0.430739     8Ap    -0.421083     9Ap    -0.376388
       4App   -0.376387     5App   -0.363007     6App   -0.332975
      10Ap    -0.332975

    Beta Virtual:

      11Ap    -0.025923    12Ap     0.077118    13Ap     0.135047
       7App    0.135048    14Ap     0.144343     8App    0.144343
      15Ap     0.163199    16Ap     0.182132     9App    0.182133
      10App    0.214808    17Ap     0.217931    11App    0.281742
      18Ap     0.281744    19Ap     0.400368    12App    0.400372
      20Ap     0.420106    13App    0.427194    21Ap     0.427194
      22Ap     0.467523    23Ap     0.497463    14App    0.497464
      15App    0.513446    24Ap     0.555942    25Ap     0.583744
      16App    0.583752    17App    0.597038    26Ap     0.597039
      27Ap     0.609224    28Ap     0.627783    18App    0.631709
      19App    0.638779    29Ap     0.638783    30Ap     0.666386
      20App    0.666387    31Ap     0.685992    21App    0.685993
      32Ap     0.757773    22App    0.830558    33Ap     0.830560
      23App    0.854276    24App    0.922095    34Ap     0.922102
      25App    0.944533    35Ap     0.954145    26App    0.965682
      36Ap     0.965698    37Ap     1.008579    38Ap     1.131358
      27App    1.131370    39Ap     1.154894    40Ap     1.167475
      28App    1.167488    41Ap     1.230837    42Ap     1.278867
      29App    1.278871    43Ap     1.284497    30App    1.329186
      44Ap     1.329188    45Ap     1.364171    31App    1.369837
      46Ap     1.369841    32App    1.392076    47Ap     1.407181
      33App    1.407184    34App    1.421115    48Ap     1.421121
      35App    1.426508    36App    1.491822    49Ap     1.508370
      37App    1.547039    50Ap     1.547039    51Ap     1.581083
      38App    1.581083    52Ap     1.675256    53Ap     1.744335
      39App    1.744346    54Ap     1.777363    40App    1.834350
      55Ap     1.834351    41App    1.971770    56Ap     2.023988
      42App    2.023991    57Ap     2.037068    58Ap     2.054516
      43App    2.054517    44App    2.745981    59Ap     2.745983
      45App    2.809383    60Ap     2.814646    61Ap     2.901518
      46App    2.901524    62Ap     2.923017    63Ap     2.931777
      47App    2.931785    48App    2.959973    64Ap     2.969142
      49App    2.969156    65Ap     3.041877    50App    3.079578
      66Ap     3.079589    51App    3.084648    67Ap     3.183700
      52App    3.183704    68Ap     3.186716    53App    3.289705
      69Ap     3.289705    70Ap     3.331580    54App    3.331586
      71Ap     3.384464    55App    3.490922    72Ap     3.490942
      56App    3.511142    73Ap     3.526219    57App    3.572425
      58App    3.581433    74Ap     3.581454    75Ap     3.671199
      59App    3.671210    76Ap     3.692040    60App    3.724232
      77Ap     3.724247    78Ap     3.775968    61App    3.775994
      79Ap     3.815798    80Ap     3.920046    62App    3.920053
      81Ap     4.042426    82Ap     4.115918    63App    4.115921
      83Ap     4.154693    64App    4.154702    84Ap     4.185866
      65App    4.206366    85Ap     4.206369    86Ap     4.208737
      66App    4.213565    87Ap     4.321606    67App    4.321626
      68App    4.359980    88Ap     4.429934    69App    4.429936
      70App    4.444724    71App    4.521678    89Ap     4.521680
      72App    4.585365    90Ap     4.585377    91Ap     4.616521
      92Ap     4.714616    93Ap     4.774841    73App    4.774849
      74App    4.835624    94Ap     4.964697    75App    5.004643
      95Ap     5.004655    96Ap     5.232603    76App    5.247176
      97Ap     5.247177    98Ap     5.359756    77App    5.359769
      78App    5.475440

    Final Occupation by Irrep:
             Ap   App
    DOCC [    10,    6 ]
    SOCC [     1,    0 ]

  @DF-UKS Final Energy:  -157.81306470948974

   => Energetics <=

    Nuclear Repulsion Energy =            125.2049441600550779
    One-Electron Energy =                -458.3750567334009816
    Two-Electron Energy =                 195.6601443221118473
    DFT Exchange-Correlation Energy =     -20.3030964582556628
    Empirical Dispersion Energy =           0.0000000000000000
    VV10 Nonlocal Energy =                  0.0000000000000000
    Total Energy =                       -157.8130647094897370

  UHF NO Occupations:
  HONO-2 :    9 Ap 1.9996016
  HONO-1 :   10 Ap 1.9989743
  HONO-0 :   11 Ap 1.0000000
  LUNO+0 :   12 Ap 0.0010257
  LUNO+1 :   13 Ap 0.0003984
  LUNO+2 :    7App 0.0001998
  LUNO+3 :   14 Ap 0.0001998

Computation Completed

Properties will be evaluated at   0.000000,   0.000000,   0.000000 [a0]

Properties computed using the SCF density matrix

  Nuclear Dipole Moment: [e a0]
     X:     0.8367      Y:    -0.0000      Z:     0.0000

  Electronic Dipole Moment: [e a0]
     X:    -0.7581      Y:     0.0000      Z:     0.0000

  Dipole Moment: [e a0]
     X:     0.0787      Y:    -0.0000      Z:     0.0000     Total:     0.0787

  Dipole Moment: [D]
     X:     0.1999      Y:    -0.0000      Z:     0.0000     Total:     0.1999

*** tstop() called on n062 at Fri Nov  5 13:40:37 2021
Module time:
	user time   =     542.34 seconds =       9.04 minutes
	system time =      12.08 seconds =       0.20 minutes
	total time  =        140 seconds =       2.33 minutes
Total time:
	user time   =     542.34 seconds =       9.04 minutes
	system time =      12.08 seconds =       0.20 minutes
	total time  =        140 seconds =       2.33 minutes
Grab this energy -157.81306470948974
    Psi4 stopped on: Friday, 05 November 2021 01:40PM
    Psi4 wall time for execution: 0:02:19.44

*** Psi4 exiting successfully. Buy a developer a beer!
