                               Psi4 1.4a2.dev629

  ==> Input File <==

--------------------------------------------------------------------------
import os
memory 14 GB

molecule {
 C   -0.3233292128   -0.0004987610   -0.0000000000
 C    0.0606342158   -1.4020092099   -2.4276775220
 C    0.0625790035    2.8033018964   -0.0000000000
 C    0.0606342158   -1.4020092099    2.4276775220
 H    2.0890495958   -1.6438606740   -2.8467169835
 H   -0.7675176471   -0.3892316375   -4.0248346849
 H   -0.7656039140   -3.2900789888   -2.3491053130
 H    2.0827268408    3.2880946103   -0.0000000000
 H   -0.7638545046    3.6797194805    1.6797310126
 H   -0.7638545046    3.6797194805   -1.6797310126
 H    2.0890495958   -1.6438606740    2.8467169835
 H   -0.7656039140   -3.2900789888    2.3491053130
 H   -0.7675176471   -0.3892316375    4.0248346849
units bohr
0 2
}

basis {

assign 6-31g_2dfp_

[ 6-31g_2dfp_ ]

spherical

!----------------------------------------------------------------------
! Basis Set Exchange
! Version v0.8.13
! https://www.basissetexchange.org
!----------------------------------------------------------------------
!   Basis set: 6-31G(2df,p)
! Description: 6-31G(2df,p)
!        Role: orbital
!     Version: 0  (Data from the original Basis Set Exchange)
!----------------------------------------------------------------------

****
H     0
S    3   1.00
     18.7311370              0.03349460
      2.8253937              0.23472695
      0.6401217              0.81375733
S    1   1.00
      0.1612778              1.00000000
P    1   1.00
      1.5000000              1.0000000
P    1   1.00
      0.3750000              1.0000000
****
B     0
S    6   1.00
   2068.8823000              0.0018663
    310.6495700              0.0142515
     70.6830330              0.0695516
     19.8610800              0.2325729
      6.2993048              0.4670787
      2.1270270              0.3634314
SP   3   1.00
      4.7279710             -0.1303938              0.0745976
      1.1903377             -0.1307889              0.3078467
      0.3594117              1.1309444              0.7434568
SP   1   1.00
      0.1267512              1.0000000              1.0000000
D    1   1.00
      0.8020000              1.0000000
D    1   1.00
      0.2005000              1.0000000
F    1   1.00
      0.5000000              1.0000000
****
C     0
S    6   1.00
   3047.5249000              0.0018347
    457.3695100              0.0140373
    103.9486900              0.0688426
     29.2101550              0.2321844
      9.2866630              0.4679413
      3.1639270              0.3623120
SP   3   1.00
      7.8682724             -0.1193324              0.0689991
      1.8812885             -0.1608542              0.3164240
      0.5442493              1.1434564              0.7443083
SP   1   1.00
      0.1687144              1.0000000              1.0000000
D    1   1.00
      1.2520000              1.0000000
D    1   1.00
      0.3130000              1.0000000
F    1   1.00
      0.8000000              1.0000000
****
N     0
S    6   1.00
   4173.5110000              0.0018348
    627.4579000              0.0139950
    142.9021000              0.0685870
     40.2343300              0.2322410
     12.8202100              0.4690700
      4.3904370              0.3604550
SP   3   1.00
     11.6263580             -0.1149610              0.0675800
      2.7162800             -0.1691180              0.3239070
      0.7722180              1.1458520              0.7408950
SP   1   1.00
      0.2120313              1.0000000              1.0000000
D    1   1.00
      1.8260000              1.0000000
D    1   1.00
      0.4565000              1.0000000
F    1   1.00
      1.0000000              1.0000000
****
O     0
S    6   1.00
   5484.6717000              0.0018311
    825.2349500              0.0139501
    188.0469600              0.0684451
     52.9645000              0.2327143
     16.8975700              0.4701930
      5.7996353              0.3585209
SP   3   1.00
     15.5396160             -0.1107775              0.0708743
      3.5999336             -0.1480263              0.3397528
      1.0137618              1.1307670              0.7271586
SP   1   1.00
      0.2700058              1.0000000              1.0000000
D    1   1.00
      2.5840000              1.0000000
D    1   1.00
      0.6460000              1.0000000
F    1   1.00
      1.4000000              1.0000000
****
F     0
S    6   1.00
   7001.7130900              0.0018196169
   1051.3660900              0.0139160796
    239.2856900              0.0684053245
     67.3974453              0.233185760
     21.5199573              0.471267439
      7.40310130             0.356618546
SP   3   1.00
     20.8479528             -0.108506975            0.0716287243
      4.80830834            -0.146451658            0.3459121030
      1.34406986             1.128688580            0.7224699570
SP   1   1.00
      0.358151393            1.0000000              1.0000000
D    1   1.00
      3.5000000              1.0000000
D    1   1.00
      0.8750000              1.0000000
F    1   1.00
      1.8500000              1.0000000
****
Al     0
S    6   1.00
  13983.1000000              0.00194267
   2098.7500000              0.0148599
    477.7050000              0.0728494
    134.3600000              0.2468300
     42.8709000              0.4872580
     14.5189000              0.3234960
SP   6   1.00
    239.6680000             -0.00292619             0.00460285
     57.4419000             -0.0374080              0.0331990
     18.2859000             -0.1144870              0.1362820
      6.5991400              0.1156350              0.3304760
      2.4904900              0.6125950              0.4491460
      0.9445400              0.3937990              0.2657040
SP   3   1.00
      1.2779000             -0.2276060             -0.0175130
      0.3975900              0.00144583             0.2445330
      0.1600950              1.0927900              0.8049340
SP   1   1.00
      0.0556577              1.0000000              1.0000000
D    1   1.00
      0.6500000              1.0000000
D    1   1.00
      0.1625000              1.0000000
F    1   1.00
      0.2500000              1.0000000
****
Si     0
S    6   1.00
  16115.9000000              0.00195948
   2425.5800000              0.01492880
    553.8670000              0.07284780
    156.3400000              0.24613000
     50.0683000              0.48591400
     17.0178000              0.32500200
SP   6   1.00
    292.7180000             -0.00278094             0.00443826
     69.8731000             -0.03571460             0.03266790
     22.3363000             -0.11498500             0.13472100
      8.1503900              0.09356340             0.32867800
      3.1345800              0.60301700             0.44964000
      1.2254300              0.41895900             0.26137200
SP   3   1.00
      1.7273800             -0.24463000            -0.01779510
      0.5729220              0.00431572             0.25353900
      0.2221920              1.09818000             0.80066900
SP   1   1.00
      0.0778369              1.00000000             1.00000000
D    1   1.00
      0.9000000              1.0000000
D    1   1.00
      0.2250000              1.0000000
F    1   1.00
      0.3200000              1.0000000
****
P     0
S    6   1.00
  19413.3000000              0.0018516
   2909.4200000              0.0142062
    661.3640000              0.0699995
    185.7590000              0.2400790
     59.1943000              0.4847620
     20.0310000              0.3352000
SP   6   1.00
    339.4780000             -0.00278217             0.00456462
     81.0101000             -0.0360499              0.03369360
     25.8780000             -0.1166310              0.13975500
      9.4522100              0.0968328              0.33936200
      3.6656600              0.6144180              0.45092100
      1.4674600              0.4037980              0.23858600
SP   3   1.00
      2.1562300             -0.2529230             -0.01776530
      0.7489970              0.0328517              0.27405800
      0.2831450              1.0812500              0.78542100
SP   1   1.00
      0.0998317              1.0000000              1.00000000
D    1   1.00
      1.1000000              1.0000000
D    1   1.00
      0.2750000              1.0000000
F    1   1.00
      0.4500000              1.0000000
****
S     0
S    6   1.00
  21917.1000000              0.0018690
   3301.4900000              0.0142300
    754.1460000              0.0696960
    212.7110000              0.2384870
     67.9896000              0.4833070
     23.0515000              0.3380740
SP   6   1.00
    423.7350000             -0.0023767              0.0040610
    100.7100000             -0.0316930              0.0306810
     32.1599000             -0.1133170              0.1304520
     11.8079000              0.0560900              0.3272050
      4.6311000              0.5922550              0.4528510
      1.8702500              0.4550060              0.2560420
SP   3   1.00
      2.6158400             -0.2503740             -0.0145110
      0.9221670              0.0669570              0.3102630
      0.3412870              1.0545100              0.7544830
SP   1   1.00
      0.1171670              1.0000000              1.0000000
D    1   1.00
      1.3000000              1.0000000
D    1   1.00
      0.3250000              1.0000000
F    1   1.00
      0.5500000              1.0000000
****
Cl     0
S    6   1.00
  25180.1000000              0.0018330
   3780.3500000              0.0140340
    860.4740000              0.0690970
    242.1450000              0.2374520
     77.3349000              0.4830340
     26.2470000              0.3398560
SP   6   1.00
    491.7650000             -0.0022974              0.0039894
    116.9840000             -0.0307140              0.0303180
     37.4153000             -0.1125280              0.1298800
     13.7834000              0.0450160              0.3279510
      5.4521500              0.5893530              0.4535270
      2.2258800              0.4652060              0.2521540
SP   3   1.00
      3.1864900             -0.2518300             -0.0142990
      1.1442700              0.0615890              0.3235720
      0.4203770              1.0601800              0.7435070
SP   1   1.00
      0.1426570              1.0000000              1.0000000
D    1   1.00
      1.5000000              1.0000000
D    1   1.00
      0.3750000              1.0000000
F    1   1.00
      0.7000000              1.0000000
****
}

set {
reference uhf
freeze_core true
e_convergence 10
d_convergence 10
dft_spherical_points 1202
dft_radial_points 99
}

e = energy('b3lyp')

print_out('Grab this energy {0}'.format(e))
--------------------------------------------------------------------------

    Molecular point group: cs

    Geometry (in Bohr), charge = 0, multiplicity = 2:

       Center              X                  Y                   Z               Mass
    ------------   -----------------  -----------------  -----------------  -----------------
         C           -0.323436727517    -0.000264259108     0.000000000000    12.000000000000
         C            0.060526701083    -1.401774708008    -2.427677522000    12.000000000000
         C            0.062471488783     2.803536398292     0.000000000000    12.000000000000
         C            0.060526701083    -1.401774708008     2.427677522000    12.000000000000
         H            2.088942081083    -1.643626172108    -2.846716983500     1.007825032230
         H           -0.767625161817    -0.388997135608    -4.024834684900     1.007825032230
         H           -0.765711428717    -3.289844486908    -2.349105313000     1.007825032230
         H            2.082619326083     3.288329112192     0.000000000000     1.007825032230
         H           -0.763962019317     3.679953982392     1.679731012600     1.007825032230
         H           -0.763962019317     3.679953982392    -1.679731012600     1.007825032230
         H            2.088942081083    -1.643626172108     2.846716983500     1.007825032230
         H           -0.765711428717    -3.289844486908     2.349105313000     1.007825032230
         H           -0.767625161817    -0.388997135608     4.024834684900     1.007825032230

  Charge       = 0
  Multiplicity = 2
  Basis Set: ANONYMOUSB4DD76FF
    Blend: 6-31G_2DFP_
  Basis Set: (ANONYMOUSB4DD76FF AUX)
    Blend: DEF2-UNIVERSAL-JKFIT

    Orbital Energies [Eh]
    ---------------------

    Alpha Occupied:

       1Ap   -10.180394     1App  -10.166990     2Ap   -10.166973
       3Ap   -10.166924     4Ap    -0.797509     5Ap    -0.686180
       2App   -0.686177     6Ap    -0.530611     7Ap    -0.441116
       8Ap    -0.434623     3App   -0.434583     9Ap    -0.382759
       4App   -0.382712     5App   -0.363812     6App   -0.337871
      10Ap    -0.337807    11Ap    -0.168940

    Alpha Virtual:

      12Ap     0.076079     7App    0.134048    13Ap     0.134377
       8App    0.142699    14Ap     0.142821    15Ap     0.154775
       9App    0.178859    16Ap     0.179030    17Ap     0.203256
      10App    0.214927    18Ap     0.275669    11App    0.275819
      19Ap     0.399199    12App    0.399270    20Ap     0.403434
      13App    0.424066    21Ap     0.424236    22Ap     0.456412
      23Ap     0.495252    14App    0.495544    15App    0.512216
      24Ap     0.514039    16App    0.578689    25Ap     0.579024
      17App    0.591586    26Ap     0.591875    27Ap     0.602624
      28Ap     0.624882    18App    0.631985    19App    0.636107
      29Ap     0.636296    20App    0.662925    30Ap     0.663681
      31Ap     0.683695    21App    0.684042    32Ap     0.735126
      33Ap     0.825367    22App    0.825398    23App    0.853785
      24App    0.914851    34Ap     0.915283    25App    0.944080
      35Ap     0.944298    26App    0.961224    36Ap     0.961499
      37Ap     1.003621    27App    1.127991    38Ap     1.128076
      39Ap     1.141796    28App    1.163762    40Ap     1.164000
      41Ap     1.222906    29App    1.274212    42Ap     1.274496
      43Ap     1.279207    30App    1.324111    44Ap     1.324202
      45Ap     1.355625    31App    1.365879    46Ap     1.365943
      32App    1.392941    33App    1.404319    47Ap     1.405248
      48Ap     1.416594    34App    1.417652    35App    1.428167
      36App    1.490968    49Ap     1.499658    37App    1.542208
      50Ap     1.543143    51Ap     1.574186    38App    1.574502
      52Ap     1.670607    39App    1.738769    53Ap     1.739008
      54Ap     1.768377    55Ap     1.831038    40App    1.832638
      41App    1.971120    42App    2.017850    56Ap     2.018208
      57Ap     2.019054    43App    2.051287    58Ap     2.053178
      44App    2.737901    59Ap     2.738723    60Ap     2.790699
      45App    2.811338    61Ap     2.889808    46App    2.889861
      62Ap     2.894561    47App    2.929645    63Ap     2.929657
      48App    2.959048    49App    2.964086    64Ap     2.964722
      65Ap     3.033845    50App    3.071294    66Ap     3.071366
      51App    3.083963    67Ap     3.168446    52App    3.168909
      68Ap     3.180005    69Ap     3.285321    53App    3.285970
      70Ap     3.326700    54App    3.327125    71Ap     3.375714
      72Ap     3.489913    55App    3.490222    56App    3.513861
      73Ap     3.524975    74Ap     3.568053    57App    3.568246
      58App    3.575292    59App    3.666464    75Ap     3.667850
      76Ap     3.680225    77Ap     3.694131    60App    3.694374
      78Ap     3.776712    61App    3.776782    79Ap     3.789416
      80Ap     3.911021    62App    3.911231    81Ap     4.033887
      63App    4.111192    82Ap     4.112073    83Ap     4.147533
      64App    4.148682    84Ap     4.172553    85Ap     4.200960
      86Ap     4.202512    65App    4.203078    66App    4.210563
      67App    4.315252    87Ap     4.316938    68App    4.359613
      88Ap     4.425330    69App    4.425976    70App    4.445390
      71App    4.515816    89Ap     4.517217    90Ap     4.577419
      72App    4.577668    91Ap     4.617169    92Ap     4.708170
      73App    4.773330    93Ap     4.774244    74App    4.835563
      94Ap     4.964184    75App    5.003087    95Ap     5.004577
      96Ap     5.228534    76App    5.245002    97Ap     5.249170
      77App    5.354136    98Ap     5.356616    78App    5.478162

    Beta Occupied:

       1App  -10.167743     1Ap   -10.167730     2Ap   -10.167689
       3Ap   -10.166560     4Ap    -0.780849     2App   -0.683991
       5Ap    -0.683983     6Ap    -0.511536     7Ap    -0.431012
       3App   -0.430979     8Ap    -0.421852     9Ap    -0.376882
       4App   -0.376791     5App   -0.362800     6App   -0.332972
      10Ap    -0.332922

    Beta Virtual:

      11Ap    -0.025573    12Ap     0.077085     7App    0.134940
      13Ap     0.135250     8App    0.144593    14Ap     0.144664
      15Ap     0.163190     9App    0.182497    16Ap     0.182705
      10App    0.215154    17Ap     0.218688    18Ap     0.282033
      11App    0.282189    19Ap     0.400363    12App    0.400431
      20Ap     0.419874    13App    0.426876    21Ap     0.427046
      22Ap     0.468243    23Ap     0.497499    14App    0.497804
      15App    0.513942    24Ap     0.556414    16App    0.584255
      25Ap     0.584561    17App    0.597752    26Ap     0.598089
      27Ap     0.610051    28Ap     0.628221    18App    0.632146
      19App    0.639364    29Ap     0.639565    20App    0.666519
      30Ap     0.667213    31Ap     0.686337    21App    0.686648
      32Ap     0.757726    33Ap     0.830518    22App    0.830553
      23App    0.855127    24App    0.922839    34Ap     0.923244
      25App    0.945909    35Ap     0.953214    26App    0.966492
      36Ap     0.966824    37Ap     1.008871    38Ap     1.132051
      27App    1.132084    39Ap     1.155135    28App    1.168810
      40Ap     1.169122    41Ap     1.231936    29App    1.279765
      42Ap     1.280069    43Ap     1.284987    30App    1.329080
      44Ap     1.329167    45Ap     1.365026    46Ap     1.371202
      31App    1.371230    32App    1.393989    33App    1.407711
      47Ap     1.408727    48Ap     1.421628    34App    1.422718
      35App    1.428448    36App    1.492003    49Ap     1.510079
      37App    1.546609    50Ap     1.547512    51Ap     1.582094
      38App    1.582376    52Ap     1.675460    39App    1.744532
      53Ap     1.744779    54Ap     1.779110    55Ap     1.834862
      40App    1.836477    41App    1.971974    42App    2.024155
      56Ap     2.025117    57Ap     2.039885    43App    2.058083
      58Ap     2.059894    44App    2.746276    59Ap     2.747081
      45App    2.811751    60Ap     2.815868    61Ap     2.902508
      46App    2.902640    62Ap     2.924207    47App    2.932064
      63Ap     2.932138    48App    2.960112    49App    2.968587
      64Ap     2.969254    65Ap     3.041735    50App    3.081045
      66Ap     3.081325    51App    3.085795    67Ap     3.184168
      52App    3.184862    68Ap     3.187726    69Ap     3.290060
      53App    3.290730    70Ap     3.330488    54App    3.330958
      71Ap     3.383499    72Ap     3.492675    55App    3.492905
      56App    3.512228    73Ap     3.528057    57App    3.575127
      74Ap     3.581416    58App    3.581717    59App    3.671344
      75Ap     3.672859    76Ap     3.693522    77Ap     3.725612
      60App    3.725904    61App    3.781182    78Ap     3.781244
      79Ap     3.818012    80Ap     3.920853    62App    3.921107
      81Ap     4.044852    63App    4.117931    82Ap     4.118771
      83Ap     4.154854    64App    4.155888    84Ap     4.186551
      85Ap     4.207333    65App    4.209074    86Ap     4.209959
      66App    4.215020    67App    4.322782    87Ap     4.324470
      68App    4.362954    88Ap     4.433480    69App    4.434129
      70App    4.448268    71App    4.523540    89Ap     4.524946
      90Ap     4.587988    72App    4.588264    91Ap     4.624342
      92Ap     4.718513    73App    4.780284    93Ap     4.781201
      74App    4.838482    94Ap     4.968958    75App    5.007123
      95Ap     5.008575    96Ap     5.234231    76App    5.246787
      97Ap     5.250934    77App    5.360578    98Ap     5.363078
      78App    5.480476

    Final Occupation by Irrep:
             Ap   App
    DOCC [    10,    6 ]
    SOCC [     1,    0 ]

  @DF-UKS Final Energy:  -157.81303844621345

   => Energetics <=

    Nuclear Repulsion Energy =            125.3666802234118336
    One-Electron Energy =                -458.6938994788067703
    Two-Electron Energy =                 195.8214424909970148
    DFT Exchange-Correlation Energy =     -20.3072616818155254
    Empirical Dispersion Energy =           0.0000000000000000
    VV10 Nonlocal Energy =                  0.0000000000000000
    Total Energy =                       -157.8130384462134543

  UHF NO Occupations:
  HONO-2 :    9 Ap 1.9996025
  HONO-1 :   10 Ap 1.9989782
  HONO-0 :   11 Ap 1.0000000
  LUNO+0 :   12 Ap 0.0010218
  LUNO+1 :   13 Ap 0.0003975
  LUNO+2 :    7App 0.0001983
  LUNO+3 :   14 Ap 0.0001983

Computation Completed

Properties will be evaluated at   0.000000,   0.000000,   0.000000 [a0]

Properties computed using the SCF density matrix

  Nuclear Dipole Moment: [e a0]
     X:     0.8264      Y:     0.0016      Z:    -0.0000

  Electronic Dipole Moment: [e a0]
     X:    -0.7484      Y:    -0.0023      Z:     0.0000

  Dipole Moment: [e a0]
     X:     0.0780      Y:    -0.0007      Z:    -0.0000     Total:     0.0780

  Dipole Moment: [D]
     X:     0.1984      Y:    -0.0017      Z:    -0.0000     Total:     0.1984

*** tstop() called on n082 at Fri Nov  5 13:21:07 2021
Module time:
	user time   =     493.19 seconds =       8.22 minutes
	system time =       4.58 seconds =       0.08 minutes
	total time  =        125 seconds =       2.08 minutes
Total time:
	user time   =     493.19 seconds =       8.22 minutes
	system time =       4.58 seconds =       0.08 minutes
	total time  =        125 seconds =       2.08 minutes
Grab this energy -157.81303844621345
    Psi4 stopped on: Friday, 05 November 2021 01:21PM
    Psi4 wall time for execution: 0:02:05.21

*** Psi4 exiting successfully. Buy a developer a beer!
