                               Psi4 1.4a2.dev629

  ==> Input File <==

--------------------------------------------------------------------------
import os
memory 14 GB

molecule {
 C   -0.3233236983    0.0049972248    0.0050134631
 C    0.0619691291   -1.3974447291   -2.4158635314
 C    0.0604189256    2.8096529458   -0.0062169050
 C    0.0609188280   -1.4096758751    2.4246144876
 H    2.0880029751   -1.6413698532   -2.8345589582
 H   -0.7629535666   -0.3874247562   -4.0166321767
 H   -0.7651292984   -3.2879553870   -2.3355923061
 H    2.0860178556    3.2972353024   -0.0111391087
 H   -0.7639442954    3.6957335135    1.6672524278
 H   -0.7694689415    3.6805615874   -1.6861016909
 H    2.0866454648   -1.6589304492    2.8426964345
 H   -0.7697311306   -3.2994389407    2.3360215972
 H   -0.7620301242   -0.4059648971    4.0305062668
units bohr
0 2
}

basis {

assign 6-31g_2dfp_

[ 6-31g_2dfp_ ]

spherical

!----------------------------------------------------------------------
! Basis Set Exchange
! Version v0.8.13
! https://www.basissetexchange.org
!----------------------------------------------------------------------
!   Basis set: 6-31G(2df,p)
! Description: 6-31G(2df,p)
!        Role: orbital
!     Version: 0  (Data from the original Basis Set Exchange)
!----------------------------------------------------------------------

****
H     0
S    3   1.00
     18.7311370              0.03349460
      2.8253937              0.23472695
      0.6401217              0.81375733
S    1   1.00
      0.1612778              1.00000000
P    1   1.00
      1.5000000              1.0000000
P    1   1.00
      0.3750000              1.0000000
****
B     0
S    6   1.00
   2068.8823000              0.0018663
    310.6495700              0.0142515
     70.6830330              0.0695516
     19.8610800              0.2325729
      6.2993048              0.4670787
      2.1270270              0.3634314
SP   3   1.00
      4.7279710             -0.1303938              0.0745976
      1.1903377             -0.1307889              0.3078467
      0.3594117              1.1309444              0.7434568
SP   1   1.00
      0.1267512              1.0000000              1.0000000
D    1   1.00
      0.8020000              1.0000000
D    1   1.00
      0.2005000              1.0000000
F    1   1.00
      0.5000000              1.0000000
****
C     0
S    6   1.00
   3047.5249000              0.0018347
    457.3695100              0.0140373
    103.9486900              0.0688426
     29.2101550              0.2321844
      9.2866630              0.4679413
      3.1639270              0.3623120
SP   3   1.00
      7.8682724             -0.1193324              0.0689991
      1.8812885             -0.1608542              0.3164240
      0.5442493              1.1434564              0.7443083
SP   1   1.00
      0.1687144              1.0000000              1.0000000
D    1   1.00
      1.2520000              1.0000000
D    1   1.00
      0.3130000              1.0000000
F    1   1.00
      0.8000000              1.0000000
****
N     0
S    6   1.00
   4173.5110000              0.0018348
    627.4579000              0.0139950
    142.9021000              0.0685870
     40.2343300              0.2322410
     12.8202100              0.4690700
      4.3904370              0.3604550
SP   3   1.00
     11.6263580             -0.1149610              0.0675800
      2.7162800             -0.1691180              0.3239070
      0.7722180              1.1458520              0.7408950
SP   1   1.00
      0.2120313              1.0000000              1.0000000
D    1   1.00
      1.8260000              1.0000000
D    1   1.00
      0.4565000              1.0000000
F    1   1.00
      1.0000000              1.0000000
****
O     0
S    6   1.00
   5484.6717000              0.0018311
    825.2349500              0.0139501
    188.0469600              0.0684451
     52.9645000              0.2327143
     16.8975700              0.4701930
      5.7996353              0.3585209
SP   3   1.00
     15.5396160             -0.1107775              0.0708743
      3.5999336             -0.1480263              0.3397528
      1.0137618              1.1307670              0.7271586
SP   1   1.00
      0.2700058              1.0000000              1.0000000
D    1   1.00
      2.5840000              1.0000000
D    1   1.00
      0.6460000              1.0000000
F    1   1.00
      1.4000000              1.0000000
****
F     0
S    6   1.00
   7001.7130900              0.0018196169
   1051.3660900              0.0139160796
    239.2856900              0.0684053245
     67.3974453              0.233185760
     21.5199573              0.471267439
      7.40310130             0.356618546
SP   3   1.00
     20.8479528             -0.108506975            0.0716287243
      4.80830834            -0.146451658            0.3459121030
      1.34406986             1.128688580            0.7224699570
SP   1   1.00
      0.358151393            1.0000000              1.0000000
D    1   1.00
      3.5000000              1.0000000
D    1   1.00
      0.8750000              1.0000000
F    1   1.00
      1.8500000              1.0000000
****
Al     0
S    6   1.00
  13983.1000000              0.00194267
   2098.7500000              0.0148599
    477.7050000              0.0728494
    134.3600000              0.2468300
     42.8709000              0.4872580
     14.5189000              0.3234960
SP   6   1.00
    239.6680000             -0.00292619             0.00460285
     57.4419000             -0.0374080              0.0331990
     18.2859000             -0.1144870              0.1362820
      6.5991400              0.1156350              0.3304760
      2.4904900              0.6125950              0.4491460
      0.9445400              0.3937990              0.2657040
SP   3   1.00
      1.2779000             -0.2276060             -0.0175130
      0.3975900              0.00144583             0.2445330
      0.1600950              1.0927900              0.8049340
SP   1   1.00
      0.0556577              1.0000000              1.0000000
D    1   1.00
      0.6500000              1.0000000
D    1   1.00
      0.1625000              1.0000000
F    1   1.00
      0.2500000              1.0000000
****
Si     0
S    6   1.00
  16115.9000000              0.00195948
   2425.5800000              0.01492880
    553.8670000              0.07284780
    156.3400000              0.24613000
     50.0683000              0.48591400
     17.0178000              0.32500200
SP   6   1.00
    292.7180000             -0.00278094             0.00443826
     69.8731000             -0.03571460             0.03266790
     22.3363000             -0.11498500             0.13472100
      8.1503900              0.09356340             0.32867800
      3.1345800              0.60301700             0.44964000
      1.2254300              0.41895900             0.26137200
SP   3   1.00
      1.7273800             -0.24463000            -0.01779510
      0.5729220              0.00431572             0.25353900
      0.2221920              1.09818000             0.80066900
SP   1   1.00
      0.0778369              1.00000000             1.00000000
D    1   1.00
      0.9000000              1.0000000
D    1   1.00
      0.2250000              1.0000000
F    1   1.00
      0.3200000              1.0000000
****
P     0
S    6   1.00
  19413.3000000              0.0018516
   2909.4200000              0.0142062
    661.3640000              0.0699995
    185.7590000              0.2400790
     59.1943000              0.4847620
     20.0310000              0.3352000
SP   6   1.00
    339.4780000             -0.00278217             0.00456462
     81.0101000             -0.0360499              0.03369360
     25.8780000             -0.1166310              0.13975500
      9.4522100              0.0968328              0.33936200
      3.6656600              0.6144180              0.45092100
      1.4674600              0.4037980              0.23858600
SP   3   1.00
      2.1562300             -0.2529230             -0.01776530
      0.7489970              0.0328517              0.27405800
      0.2831450              1.0812500              0.78542100
SP   1   1.00
      0.0998317              1.0000000              1.00000000
D    1   1.00
      1.1000000              1.0000000
D    1   1.00
      0.2750000              1.0000000
F    1   1.00
      0.4500000              1.0000000
****
S     0
S    6   1.00
  21917.1000000              0.0018690
   3301.4900000              0.0142300
    754.1460000              0.0696960
    212.7110000              0.2384870
     67.9896000              0.4833070
     23.0515000              0.3380740
SP   6   1.00
    423.7350000             -0.0023767              0.0040610
    100.7100000             -0.0316930              0.0306810
     32.1599000             -0.1133170              0.1304520
     11.8079000              0.0560900              0.3272050
      4.6311000              0.5922550              0.4528510
      1.8702500              0.4550060              0.2560420
SP   3   1.00
      2.6158400             -0.2503740             -0.0145110
      0.9221670              0.0669570              0.3102630
      0.3412870              1.0545100              0.7544830
SP   1   1.00
      0.1171670              1.0000000              1.0000000
D    1   1.00
      1.3000000              1.0000000
D    1   1.00
      0.3250000              1.0000000
F    1   1.00
      0.5500000              1.0000000
****
Cl     0
S    6   1.00
  25180.1000000              0.0018330
   3780.3500000              0.0140340
    860.4740000              0.0690970
    242.1450000              0.2374520
     77.3349000              0.4830340
     26.2470000              0.3398560
SP   6   1.00
    491.7650000             -0.0022974              0.0039894
    116.9840000             -0.0307140              0.0303180
     37.4153000             -0.1125280              0.1298800
     13.7834000              0.0450160              0.3279510
      5.4521500              0.5893530              0.4535270
      2.2258800              0.4652060              0.2521540
SP   3   1.00
      3.1864900             -0.2518300             -0.0142990
      1.1442700              0.0615890              0.3235720
      0.4203770              1.0601800              0.7435070
SP   1   1.00
      0.1426570              1.0000000              1.0000000
D    1   1.00
      1.5000000              1.0000000
D    1   1.00
      0.3750000              1.0000000
F    1   1.00
      0.7000000              1.0000000
****
}

set {
reference uhf
freeze_core true
e_convergence 10
d_convergence 10
dft_spherical_points 1202
dft_radial_points 99
}

e = energy('b3lyp')

print_out('Grab this energy {0}'.format(e))
--------------------------------------------------------------------------

    Molecular point group: c1

    Geometry (in Bohr), charge = 0, multiplicity = 2:

       Center              X                  Y                   Z               Mass
    ------------   -----------------  -----------------  -----------------  -----------------
         C           -0.323328160862     0.003547405442     0.003559757484    12.000000000000
         C            0.061964666538    -1.398894548458    -2.417317237016    12.000000000000
         C            0.060414463038     2.808203126442    -0.007670610616    12.000000000000
         C            0.060914365438    -1.411125694458     2.423160781984    12.000000000000
         H            2.087998512538    -1.642819672558    -2.836012663816     1.007825032230
         H           -0.762958029162    -0.388874575558    -4.018085882316     1.007825032230
         H           -0.765133760962    -3.289405206358    -2.337046011716     1.007825032230
         H            2.086013393038     3.295785483042    -0.012592814316     1.007825032230
         H           -0.763948757962     3.694283694142     1.665798722184     1.007825032230
         H           -0.769473404062     3.679111768042    -1.687555396516     1.007825032230
         H            2.086641002238    -1.660380268558     2.841242728884     1.007825032230
         H           -0.769735593162    -3.300888760058     2.334567891584     1.007825032230
         H           -0.762034586762    -0.407414716458     4.029052561184     1.007825032230

  Charge       = 0
  Multiplicity = 2
  Basis Set: ANONYMOUSAB67F80A
    Blend: 6-31G_2DFP_
  Basis Set: (ANONYMOUSAB67F80A AUX)
    Blend: DEF2-UNIVERSAL-JKFIT

    Orbital Energies [Eh]
    ---------------------

    Alpha Occupied:

       1A    -10.180341     2A    -10.167329     3A    -10.167128
       4A    -10.166589     5A     -0.797773     6A     -0.686496
       7A     -0.685873     8A     -0.530777     9A     -0.441128
      10A     -0.435045    11A     -0.434297    12A     -0.382803
      13A     -0.382393    14A     -0.363610    15A     -0.338379
      16A     -0.337614    17A     -0.168962

    Alpha Virtual:

      18A      0.076071    19A      0.133816    20A      0.134494
      21A      0.142434    22A      0.142821    23A      0.154881
      24A      0.178464    25A      0.179095    26A      0.203542
      27A      0.214812    28A      0.275748    29A      0.276225
      30A      0.399006    31A      0.399317    32A      0.403488
      33A      0.423917    34A      0.424297    35A      0.456598
      36A      0.494815    37A      0.495946    38A      0.512183
      39A      0.513994    40A      0.578442    41A      0.579140
      42A      0.591616    43A      0.591669    44A      0.602577
      45A      0.624773    46A      0.631762    47A      0.635939
      48A      0.636567    49A      0.663108    50A      0.663722
      51A      0.683517    52A      0.684197    53A      0.734992
      54A      0.824234    55A      0.826554    56A      0.853913
      57A      0.914702    58A      0.915356    59A      0.943982
      60A      0.944417    61A      0.961128    62A      0.961869
      63A      1.003486    64A      1.126491    65A      1.129766
      66A      1.142209    67A      1.162572    68A      1.163955
      69A      1.223341    70A      1.273764    71A      1.275237
      72A      1.279358    73A      1.324237    74A      1.324465
      75A      1.355992    76A      1.364929    77A      1.367073
      78A      1.392394    79A      1.403022    80A      1.405237
      81A      1.416424    82A      1.417835    83A      1.427945
      84A      1.491373    85A      1.499049    86A      1.542368
      87A      1.543317    88A      1.571961    89A      1.577149
      90A      1.669816    91A      1.737900    92A      1.740860
      93A      1.768383    94A      1.830687    95A      1.832129
      96A      1.971720    97A      2.017036    98A      2.018251
      99A      2.021041   100A      2.049142   101A      2.056332
     102A      2.738111   103A      2.738858   104A      2.790919
     105A      2.811453   106A      2.889799   107A      2.890088
     108A      2.894949   109A      2.929240   110A      2.929741
     111A      2.958976   112A      2.963154   113A      2.965665
     114A      3.034014   115A      3.069839   116A      3.072681
     117A      3.084407   118A      3.167757   119A      3.169891
     120A      3.180532   121A      3.284296   122A      3.286304
     123A      3.325832   124A      3.328512   125A      3.375711
     126A      3.489388   127A      3.490782   128A      3.514056
     129A      3.525285   130A      3.566563   131A      3.570009
     132A      3.575524   133A      3.666235   134A      3.666548
     135A      3.679661   136A      3.693427   137A      3.694752
     138A      3.775487   139A      3.777947   140A      3.789451
     141A      3.910220   142A      3.914246   143A      4.034494
     144A      4.109454   145A      4.113331   146A      4.145747
     147A      4.150420   148A      4.173219   149A      4.200620
     150A      4.202668   151A      4.205457   152A      4.211036
     153A      4.315926   154A      4.315946   155A      4.359023
     156A      4.424078   157A      4.424596   158A      4.443650
     159A      4.515741   160A      4.517995   161A      4.576759
     162A      4.579766   163A      4.617539   164A      4.709435
     165A      4.772715   166A      4.776499   167A      4.836980
     168A      4.962858   169A      5.001568   170A      5.004370
     171A      5.228011   172A      5.246617   173A      5.247051
     174A      5.354492   175A      5.356507   176A      5.479312

    Beta Occupied:

       1A    -10.168085     2A    -10.167887     3A    -10.167355
       4A    -10.166517     5A     -0.781098     6A     -0.684304
       7A     -0.683670     8A     -0.511748     9A     -0.431428
      10A     -0.430658    11A     -0.421824    12A     -0.376902
      13A     -0.376464    14A     -0.362594    15A     -0.333508
      16A     -0.332731

    Beta Virtual:

      17A     -0.025744    18A      0.077081    19A      0.134691
      20A      0.135399    21A      0.144312    22A      0.144684
      23A      0.163341    24A      0.182121    25A      0.182780
      26A      0.215042    27A      0.218924    28A      0.282079
      29A      0.282589    30A      0.400231    31A      0.400549
      32A      0.419808    33A      0.426706    34A      0.427131
      35A      0.468511    36A      0.497070    37A      0.498219
      38A      0.513919    39A      0.556332    40A      0.584035
      41A      0.584652    42A      0.597775    43A      0.597863
      44A      0.609993    45A      0.628160    46A      0.631922
      47A      0.639201    48A      0.639873    49A      0.666633
      50A      0.667320    51A      0.686080    52A      0.686907
      53A      0.757514    54A      0.829386    55A      0.831737
      56A      0.855267    57A      0.922656    58A      0.923341
      59A      0.945862    60A      0.953315    61A      0.966390
      62A      0.967216    63A      1.008721    64A      1.130531
      65A      1.133789    66A      1.155573    67A      1.167600
      68A      1.169084    69A      1.232308    70A      1.279354
      71A      1.280843    72A      1.285110    73A      1.329204
      74A      1.329478    75A      1.365408    76A      1.370018
      77A      1.372456    78A      1.393462    79A      1.406536
      80A      1.408666    81A      1.421461    82A      1.422880
      83A      1.428223    84A      1.492428    85A      1.509492
      86A      1.546634    87A      1.547861    88A      1.580033
      89A      1.584822    90A      1.674661    91A      1.743668
      92A      1.746620    93A      1.779158    94A      1.834517
      95A      1.836010    96A      1.972586    97A      2.023350
      98A      2.027527    99A      2.039610   100A      2.055983
     101A      2.062931   102A      2.746382   103A      2.747259
     104A      2.811865   105A      2.816053   106A      2.902540
     107A      2.902723   108A      2.924649   109A      2.931853
     110A      2.932101   111A      2.960053   112A      2.967730
     113A      2.970162   114A      3.041949   115A      3.079446
     116A      3.082696   117A      3.086440   118A      3.183654
     119A      3.185451   120A      3.188227   121A      3.289198
     122A      3.291010   123A      3.329627   124A      3.332330
     125A      3.383526   126A      3.492113   127A      3.493502
     128A      3.512443   129A      3.528346   130A      3.574464
     131A      3.580695   132A      3.583467   133A      3.670943
     134A      3.671329   135A      3.692961   136A      3.725111
     137A      3.726317   138A      3.780111   139A      3.782519
     140A      3.817851   141A      3.920038   142A      3.924063
     143A      4.045381   144A      4.116279   145A      4.120133
     146A      4.153035   147A      4.157557   148A      4.187279
     149A      4.206503   150A      4.210571   151A      4.211476
     152A      4.215549   153A      4.323340   154A      4.323412
     155A      4.362386   156A      4.432244   157A      4.432773
     158A      4.446629   159A      4.523660   160A      4.525641
     161A      4.587248   162A      4.590481   163A      4.624732
     164A      4.719781   165A      4.779614   166A      4.783504
     167A      4.839902   168A      4.967651   169A      5.005608
     170A      5.008409   171A      5.233721   172A      5.248399
     173A      5.248843   174A      5.360947   175A      5.363013
     176A      5.481633

    Final Occupation by Irrep:
              A
    DOCC [    16 ]
    SOCC [     1 ]

  @DF-UKS Final Energy:  -157.81305611160408

   => Energetics <=

    Nuclear Repulsion Energy =            125.3950982870851760
    One-Electron Energy =                -458.7498284442146996
    Two-Electron Energy =                 195.8488228181584532
    DFT Exchange-Correlation Energy =     -20.3071487726329742
    Empirical Dispersion Energy =           0.0000000000000000
    VV10 Nonlocal Energy =                  0.0000000000000000
    Total Energy =                       -157.8130561116040838

  UHF NO Occupations:
  HONO-2 :   15  A 1.9996009
  HONO-1 :   16  A 1.9989804
  HONO-0 :   17  A 1.0000000
  LUNO+0 :   18  A 0.0010196
  LUNO+1 :   19  A 0.0003991
  LUNO+2 :   20  A 0.0001980
  LUNO+3 :   21  A 0.0001971

Computation Completed

Properties will be evaluated at   0.000000,   0.000000,   0.000000 [a0]

Properties computed using the SCF density matrix

  Nuclear Dipole Moment: [e a0]
     X:     0.8272      Y:    -0.0102      Z:    -0.0102

  Electronic Dipole Moment: [e a0]
     X:    -0.7492      Y:     0.0110      Z:     0.0110

  Dipole Moment: [e a0]
     X:     0.0779      Y:     0.0007      Z:     0.0007     Total:     0.0779

  Dipole Moment: [D]
     X:     0.1980      Y:     0.0019      Z:     0.0019     Total:     0.1981

*** tstop() called on n054 at Fri Nov  5 15:51:06 2021
Module time:
	user time   =     539.96 seconds =       9.00 minutes
	system time =      11.96 seconds =       0.20 minutes
	total time  =        139 seconds =       2.32 minutes
Total time:
	user time   =     539.96 seconds =       9.00 minutes
	system time =      11.96 seconds =       0.20 minutes
	total time  =        139 seconds =       2.32 minutes
Grab this energy -157.81305611160408
    Psi4 stopped on: Friday, 05 November 2021 03:51PM
    Psi4 wall time for execution: 0:02:18.84

*** Psi4 exiting successfully. Buy a developer a beer!
