                               Psi4 1.4a2.dev629

  ==> Input File <==

--------------------------------------------------------------------------
import os
memory 14 GB

molecule {
 C   -0.3233375006   -0.0000013559   -0.0053443713
 C    0.0610125881   -1.3995836370   -2.4271845772
 C    0.0610214549    2.8017557463   -0.0001406697
 C    0.0612686346   -1.4021665478    2.4255794847
 H    2.0871442049   -1.6420158989   -2.8480421786
 H   -0.7634134887   -0.3889400932   -4.0231536445
 H   -0.7674672141   -3.2942407279   -2.3479427560
 H    2.0867966874    3.2880993754    0.0036019336
 H   -0.7624483460    3.6805951202    1.6754706048
 H   -0.7688463543    3.6798971750   -1.6775285343
 H    2.0867317245   -1.6461773126    2.8468436594
 H   -0.7636733408   -3.2897510116    2.3500296297
 H   -0.7673969266   -0.3874951456    4.0278114194
units bohr
0 2
}

basis {

assign 6-31g_2dfp_

[ 6-31g_2dfp_ ]

spherical

!----------------------------------------------------------------------
! Basis Set Exchange
! Version v0.8.13
! https://www.basissetexchange.org
!----------------------------------------------------------------------
!   Basis set: 6-31G(2df,p)
! Description: 6-31G(2df,p)
!        Role: orbital
!     Version: 0  (Data from the original Basis Set Exchange)
!----------------------------------------------------------------------

****
H     0
S    3   1.00
     18.7311370              0.03349460
      2.8253937              0.23472695
      0.6401217              0.81375733
S    1   1.00
      0.1612778              1.00000000
P    1   1.00
      1.5000000              1.0000000
P    1   1.00
      0.3750000              1.0000000
****
B     0
S    6   1.00
   2068.8823000              0.0018663
    310.6495700              0.0142515
     70.6830330              0.0695516
     19.8610800              0.2325729
      6.2993048              0.4670787
      2.1270270              0.3634314
SP   3   1.00
      4.7279710             -0.1303938              0.0745976
      1.1903377             -0.1307889              0.3078467
      0.3594117              1.1309444              0.7434568
SP   1   1.00
      0.1267512              1.0000000              1.0000000
D    1   1.00
      0.8020000              1.0000000
D    1   1.00
      0.2005000              1.0000000
F    1   1.00
      0.5000000              1.0000000
****
C     0
S    6   1.00
   3047.5249000              0.0018347
    457.3695100              0.0140373
    103.9486900              0.0688426
     29.2101550              0.2321844
      9.2866630              0.4679413
      3.1639270              0.3623120
SP   3   1.00
      7.8682724             -0.1193324              0.0689991
      1.8812885             -0.1608542              0.3164240
      0.5442493              1.1434564              0.7443083
SP   1   1.00
      0.1687144              1.0000000              1.0000000
D    1   1.00
      1.2520000              1.0000000
D    1   1.00
      0.3130000              1.0000000
F    1   1.00
      0.8000000              1.0000000
****
N     0
S    6   1.00
   4173.5110000              0.0018348
    627.4579000              0.0139950
    142.9021000              0.0685870
     40.2343300              0.2322410
     12.8202100              0.4690700
      4.3904370              0.3604550
SP   3   1.00
     11.6263580             -0.1149610              0.0675800
      2.7162800             -0.1691180              0.3239070
      0.7722180              1.1458520              0.7408950
SP   1   1.00
      0.2120313              1.0000000              1.0000000
D    1   1.00
      1.8260000              1.0000000
D    1   1.00
      0.4565000              1.0000000
F    1   1.00
      1.0000000              1.0000000
****
O     0
S    6   1.00
   5484.6717000              0.0018311
    825.2349500              0.0139501
    188.0469600              0.0684451
     52.9645000              0.2327143
     16.8975700              0.4701930
      5.7996353              0.3585209
SP   3   1.00
     15.5396160             -0.1107775              0.0708743
      3.5999336             -0.1480263              0.3397528
      1.0137618              1.1307670              0.7271586
SP   1   1.00
      0.2700058              1.0000000              1.0000000
D    1   1.00
      2.5840000              1.0000000
D    1   1.00
      0.6460000              1.0000000
F    1   1.00
      1.4000000              1.0000000
****
F     0
S    6   1.00
   7001.7130900              0.0018196169
   1051.3660900              0.0139160796
    239.2856900              0.0684053245
     67.3974453              0.233185760
     21.5199573              0.471267439
      7.40310130             0.356618546
SP   3   1.00
     20.8479528             -0.108506975            0.0716287243
      4.80830834            -0.146451658            0.3459121030
      1.34406986             1.128688580            0.7224699570
SP   1   1.00
      0.358151393            1.0000000              1.0000000
D    1   1.00
      3.5000000              1.0000000
D    1   1.00
      0.8750000              1.0000000
F    1   1.00
      1.8500000              1.0000000
****
Al     0
S    6   1.00
  13983.1000000              0.00194267
   2098.7500000              0.0148599
    477.7050000              0.0728494
    134.3600000              0.2468300
     42.8709000              0.4872580
     14.5189000              0.3234960
SP   6   1.00
    239.6680000             -0.00292619             0.00460285
     57.4419000             -0.0374080              0.0331990
     18.2859000             -0.1144870              0.1362820
      6.5991400              0.1156350              0.3304760
      2.4904900              0.6125950              0.4491460
      0.9445400              0.3937990              0.2657040
SP   3   1.00
      1.2779000             -0.2276060             -0.0175130
      0.3975900              0.00144583             0.2445330
      0.1600950              1.0927900              0.8049340
SP   1   1.00
      0.0556577              1.0000000              1.0000000
D    1   1.00
      0.6500000              1.0000000
D    1   1.00
      0.1625000              1.0000000
F    1   1.00
      0.2500000              1.0000000
****
Si     0
S    6   1.00
  16115.9000000              0.00195948
   2425.5800000              0.01492880
    553.8670000              0.07284780
    156.3400000              0.24613000
     50.0683000              0.48591400
     17.0178000              0.32500200
SP   6   1.00
    292.7180000             -0.00278094             0.00443826
     69.8731000             -0.03571460             0.03266790
     22.3363000             -0.11498500             0.13472100
      8.1503900              0.09356340             0.32867800
      3.1345800              0.60301700             0.44964000
      1.2254300              0.41895900             0.26137200
SP   3   1.00
      1.7273800             -0.24463000            -0.01779510
      0.5729220              0.00431572             0.25353900
      0.2221920              1.09818000             0.80066900
SP   1   1.00
      0.0778369              1.00000000             1.00000000
D    1   1.00
      0.9000000              1.0000000
D    1   1.00
      0.2250000              1.0000000
F    1   1.00
      0.3200000              1.0000000
****
P     0
S    6   1.00
  19413.3000000              0.0018516
   2909.4200000              0.0142062
    661.3640000              0.0699995
    185.7590000              0.2400790
     59.1943000              0.4847620
     20.0310000              0.3352000
SP   6   1.00
    339.4780000             -0.00278217             0.00456462
     81.0101000             -0.0360499              0.03369360
     25.8780000             -0.1166310              0.13975500
      9.4522100              0.0968328              0.33936200
      3.6656600              0.6144180              0.45092100
      1.4674600              0.4037980              0.23858600
SP   3   1.00
      2.1562300             -0.2529230             -0.01776530
      0.7489970              0.0328517              0.27405800
      0.2831450              1.0812500              0.78542100
SP   1   1.00
      0.0998317              1.0000000              1.00000000
D    1   1.00
      1.1000000              1.0000000
D    1   1.00
      0.2750000              1.0000000
F    1   1.00
      0.4500000              1.0000000
****
S     0
S    6   1.00
  21917.1000000              0.0018690
   3301.4900000              0.0142300
    754.1460000              0.0696960
    212.7110000              0.2384870
     67.9896000              0.4833070
     23.0515000              0.3380740
SP   6   1.00
    423.7350000             -0.0023767              0.0040610
    100.7100000             -0.0316930              0.0306810
     32.1599000             -0.1133170              0.1304520
     11.8079000              0.0560900              0.3272050
      4.6311000              0.5922550              0.4528510
      1.8702500              0.4550060              0.2560420
SP   3   1.00
      2.6158400             -0.2503740             -0.0145110
      0.9221670              0.0669570              0.3102630
      0.3412870              1.0545100              0.7544830
SP   1   1.00
      0.1171670              1.0000000              1.0000000
D    1   1.00
      1.3000000              1.0000000
D    1   1.00
      0.3250000              1.0000000
F    1   1.00
      0.5500000              1.0000000
****
Cl     0
S    6   1.00
  25180.1000000              0.0018330
   3780.3500000              0.0140340
    860.4740000              0.0690970
    242.1450000              0.2374520
     77.3349000              0.4830340
     26.2470000              0.3398560
SP   6   1.00
    491.7650000             -0.0022974              0.0039894
    116.9840000             -0.0307140              0.0303180
     37.4153000             -0.1125280              0.1298800
     13.7834000              0.0450160              0.3279510
      5.4521500              0.5893530              0.4535270
      2.2258800              0.4652060              0.2521540
SP   3   1.00
      3.1864900             -0.2518300             -0.0142990
      1.1442700              0.0615890              0.3235720
      0.4203770              1.0601800              0.7435070
SP   1   1.00
      0.1426570              1.0000000              1.0000000
D    1   1.00
      1.5000000              1.0000000
D    1   1.00
      0.3750000              1.0000000
F    1   1.00
      0.7000000              1.0000000
****
}

set {
reference uhf
freeze_core true
e_convergence 10
d_convergence 10
dft_spherical_points 1202
dft_radial_points 99
}

e = energy('b3lyp')

print_out('Grab this energy {0}'.format(e))
--------------------------------------------------------------------------

    Molecular point group: c1

    Geometry (in Bohr), charge = 0, multiplicity = 2:

       Center              X                  Y                   Z               Mass
    ------------   -----------------  -----------------  -----------------  -----------------
         C           -0.323338494808    -0.000001736567    -0.003978760520    12.000000000000
         C            0.061011593892    -1.399584017667    -2.425818966420    12.000000000000
         C            0.061020460692     2.801755365633     0.001224941080    12.000000000000
         C            0.061267640392    -1.402166928467     2.426945095480    12.000000000000
         H            2.087143210692    -1.642016279567    -2.846676567820     1.007825032230
         H           -0.763414482908    -0.388940473867    -4.021788033720     1.007825032230
         H           -0.767468208308    -3.294241108567    -2.346577145220     1.007825032230
         H            2.086795693192     3.288098994733     0.004967544380     1.007825032230
         H           -0.762449340208     3.680594739533     1.676836215580     1.007825032230
         H           -0.768847348508     3.679896794333    -1.676162923520     1.007825032230
         H            2.086730730292    -1.646177693267     2.848209270180     1.007825032230
         H           -0.763674335008    -3.289751392267     2.351395240480     1.007825032230
         H           -0.767397920808    -0.387495526267     4.029177030180     1.007825032230

  Charge       = 0
  Multiplicity = 2
  Basis Set: ANONYMOUS8D0B13C1
    Blend: 6-31G_2DFP_
  Basis Set: (ANONYMOUS8D0B13C1 AUX)
    Blend: DEF2-UNIVERSAL-JKFIT

    Orbital Energies [Eh]
    ---------------------

    Alpha Occupied:

       1A    -10.180342     2A    -10.167051     3A    -10.167020
       4A    -10.166973     5A     -0.797769     6A     -0.686377
       7A     -0.685999     8A     -0.530777     9A     -0.441131
      10A     -0.434883    11A     -0.434455    12A     -0.382717
      13A     -0.382484    14A     -0.363608    15A     -0.338517
      16A     -0.337478    17A     -0.168960

    Alpha Virtual:

      18A      0.076071    19A      0.134130    20A      0.134160
      21A      0.142458    22A      0.142809    23A      0.154878
      24A      0.178774    25A      0.178788    26A      0.203542
      27A      0.214805    28A      0.275696    29A      0.276273
      30A      0.399104    31A      0.399353    32A      0.403344
      33A      0.424095    34A      0.424098    35A      0.456591
      36A      0.495341    37A      0.495438    38A      0.512159
      39A      0.513978    40A      0.578619    41A      0.579008
      42A      0.591636    43A      0.591647    44A      0.602572
      45A      0.624707    46A      0.631827    47A      0.636097
      48A      0.636399    49A      0.663346    50A      0.663480
      51A      0.683813    52A      0.683913    53A      0.734994
      54A      0.825298    55A      0.825514    56A      0.853915
      57A      0.914910    58A      0.915136    59A      0.944100
      60A      0.944645    61A      0.961115    62A      0.961464
      63A      1.003457    64A      1.127846    65A      1.128338
      66A      1.142260    67A      1.162880    68A      1.163655
      69A      1.223326    70A      1.274025    71A      1.274960
      72A      1.279347    73A      1.324247    74A      1.324438
      75A      1.355987    76A      1.365786    77A      1.366325
      78A      1.392455    79A      1.403995    80A      1.404098
      81A      1.416803    82A      1.417438    83A      1.427924
      84A      1.491454    85A      1.499102    86A      1.542821
      87A      1.542833    88A      1.574430    89A      1.574474
      90A      1.669833    91A      1.739211    92A      1.739614
      93A      1.768308    94A      1.831140    95A      1.831660
      96A      1.971703    97A      2.018303    98A      2.018517
      99A      2.019622   100A      2.052121   101A      2.053185
     102A      2.738246   103A      2.738723   104A      2.790924
     105A      2.811426   106A      2.889390   107A      2.890511
     108A      2.894935   109A      2.929105   110A      2.929884
     111A      2.958989   112A      2.964233   113A      2.964542
     114A      3.033988   115A      3.070791   116A      3.071802
     117A      3.084368   118A      3.168680   119A      3.168830
     120A      3.180661   121A      3.285005   122A      3.285602
     123A      3.326784   124A      3.327551   125A      3.375603
     126A      3.489627   127A      3.490680   128A      3.514014
     129A      3.525346   130A      3.568157   131A      3.568622
     132A      3.575139   133A      3.666072   134A      3.666686
     135A      3.679678   136A      3.694085   137A      3.694140
     138A      3.776056   139A      3.777528   140A      3.789169
     141A      3.911768   142A      3.912692   143A      4.034427
     144A      4.110984   145A      4.111618   146A      4.147192
     147A      4.149143   148A      4.173134   149A      4.202145
     150A      4.202966   151A      4.203679   152A      4.211038
     153A      4.315402   154A      4.316527   155A      4.358973
     156A      4.424391   157A      4.424516   158A      4.443452
     159A      4.516713   160A      4.516976   161A      4.577910
     162A      4.578339   163A      4.617835   164A      4.709467
     165A      4.774056   166A      4.775177   167A      4.836889
     168A      4.962838   169A      5.002726   170A      5.003242
     171A      5.228027   172A      5.246715   173A      5.246774
     174A      5.355030   175A      5.356150   176A      5.479380

    Beta Occupied:

       1A    -10.167803     2A    -10.167776     3A    -10.167744
       4A    -10.166519     5A     -0.781094     6A     -0.684167
       7A     -0.683813     8A     -0.511749     9A     -0.431256
      10A     -0.430834    11A     -0.421818    12A     -0.376761
      13A     -0.376611    14A     -0.362591    15A     -0.333650
      16A     -0.332591

    Beta Virtual:

      17A     -0.025743    18A      0.077080    19A      0.135029
      20A      0.135040    21A      0.144340    22A      0.144670
      23A      0.163338    24A      0.182433    25A      0.182470
      26A      0.215028    27A      0.218931    28A      0.282079
      29A      0.282586    30A      0.400277    31A      0.400520
      32A      0.419791    33A      0.426897    34A      0.426919
      35A      0.468498    36A      0.497599    37A      0.497701
      38A      0.513896    39A      0.556320    40A      0.584148
      41A      0.584583    42A      0.597813    43A      0.597827
      44A      0.609995    45A      0.628052    46A      0.632014
      47A      0.639370    48A      0.639700    49A      0.666917
      50A      0.667038    51A      0.686446    52A      0.686549
      53A      0.757517    54A      0.830471    55A      0.830679
      56A      0.855269    57A      0.922854    58A      0.923134
      59A      0.945959    60A      0.953551    61A      0.966413
      62A      0.966778    63A      1.008697    64A      1.131908
      65A      1.132351    66A      1.155621    67A      1.167958
      68A      1.168721    69A      1.232298    70A      1.279676
      71A      1.280506    72A      1.285099    73A      1.329247
      74A      1.329414    75A      1.365401    76A      1.371079
      77A      1.371522    78A      1.393515    79A      1.407406
      80A      1.407616    81A      1.421860    82A      1.422480
      83A      1.428197    84A      1.492515    85A      1.509533
      86A      1.547226    87A      1.547247    88A      1.582317
      89A      1.582328    90A      1.674679    91A      1.744968
      92A      1.745380    93A      1.779088    94A      1.834981
      95A      1.835530    96A      1.972576    97A      2.024890
      98A      2.026009    99A      2.039704   100A      2.058851
     101A      2.059890   102A      2.746551   103A      2.747089
     104A      2.811834   105A      2.816064   106A      2.902165
     107A      2.903110   108A      2.924642   109A      2.931533
     110A      2.932421   111A      2.960055   112A      2.968779
     113A      2.969083   114A      3.041919   115A      3.080778
     116A      3.081635   117A      3.086188   118A      3.184353
     119A      3.184545   120A      3.188455   121A      3.289844
     122A      3.290359   123A      3.330588   124A      3.331358
     125A      3.383422   126A      3.492346   127A      3.493416
     128A      3.512387   129A      3.528387   130A      3.574995
     131A      3.581547   132A      3.581923   133A      3.670893
     134A      3.671353   135A      3.692970   136A      3.725599
     137A      3.725895   138A      3.780602   139A      3.782057
     140A      3.817682   141A      3.921589   142A      3.922510
     143A      4.045314   144A      4.117840   145A      4.118384
     146A      4.154434   147A      4.156335   148A      4.187147
     149A      4.208502   150A      4.209314   151A      4.210780
     152A      4.215587   153A      4.322780   154A      4.324032
     155A      4.362337   156A      4.432608   157A      4.432722
     158A      4.446340   159A      4.524457   160A      4.524813
     161A      4.588493   162A      4.588936   163A      4.625050
     164A      4.719814   165A      4.780973   166A      4.782167
     167A      4.839805   168A      4.967630   169A      5.006781
     170A      5.007268   171A      5.233743   172A      5.248510
     173A      5.248558   174A      5.361480   175A      5.362652
     176A      5.481702

    Final Occupation by Irrep:
              A
    DOCC [    16 ]
    SOCC [     1 ]

  @DF-UKS Final Energy:  -157.81305284715154

   => Energetics <=

    Nuclear Repulsion Energy =            125.3947209842551018
    One-Electron Energy =                -458.7490569657369406
    Two-Electron Energy =                 195.8484323352702177
    DFT Exchange-Correlation Energy =     -20.3071492009399215
    Empirical Dispersion Energy =           0.0000000000000000
    VV10 Nonlocal Energy =                  0.0000000000000000
    Total Energy =                       -157.8130528471515390

  UHF NO Occupations:
  HONO-2 :   15  A 1.9996009
  HONO-1 :   16  A 1.9989805
  HONO-0 :   17  A 1.0000000
  LUNO+0 :   18  A 0.0010195
  LUNO+1 :   19  A 0.0003991
  LUNO+2 :   20  A 0.0001986
  LUNO+3 :   21  A 0.0001965

Computation Completed

Properties will be evaluated at   0.000000,   0.000000,   0.000000 [a0]

Properties computed using the SCF density matrix

  Nuclear Dipole Moment: [e a0]
     X:     0.8272      Y:    -0.0000      Z:     0.0096

  Electronic Dipole Moment: [e a0]
     X:    -0.7493      Y:     0.0000      Z:    -0.0108

  Dipole Moment: [e a0]
     X:     0.0779      Y:     0.0000      Z:    -0.0012     Total:     0.0779

  Dipole Moment: [D]
     X:     0.1980      Y:     0.0000      Z:    -0.0031     Total:     0.1981

*** tstop() called on n065 at Fri Nov  5 13:55:08 2021
Module time:
	user time   =     547.36 seconds =       9.12 minutes
	system time =      11.99 seconds =       0.20 minutes
	total time  =        141 seconds =       2.35 minutes
Total time:
	user time   =     547.36 seconds =       9.12 minutes
	system time =      11.99 seconds =       0.20 minutes
	total time  =        141 seconds =       2.35 minutes
Grab this energy -157.81305284715154
    Psi4 stopped on: Friday, 05 November 2021 01:55PM
    Psi4 wall time for execution: 0:02:20.64

*** Psi4 exiting successfully. Buy a developer a beer!
