                               Psi4 1.4a2.dev629

  ==> Input File <==

--------------------------------------------------------------------------
import os
memory 14 GB

molecule {
 C   -0.3233405611   -0.0000006400   -0.0002690640
 C    0.0613688029   -1.4024218341   -2.4286148913
 C    0.0610201412    2.8017609645    0.0004426167
 C    0.0609107009   -1.3993312383    2.4241465709
 H    2.0833845977   -1.6439506426   -2.8473442775
 H   -0.7636477542   -0.3906046094   -4.0226368573
 H   -0.7637814786   -3.2888005535   -2.3499500341
 H    2.0867988290    3.2881042321   -0.0001570046
 H   -0.7656172018    3.6807619248    1.6767361472
 H   -0.7656762186    3.6797491273   -1.6762649799
 H    2.0904865924   -1.6442480808    2.8475448803
 H   -0.7673539021   -3.2951979885    2.3480345482
 H   -0.7671604244   -0.3858449752    4.0283323455
units bohr
0 2
}

basis {

assign 6-31g_2dfp_

[ 6-31g_2dfp_ ]

spherical

!----------------------------------------------------------------------
! Basis Set Exchange
! Version v0.8.13
! https://www.basissetexchange.org
!----------------------------------------------------------------------
!   Basis set: 6-31G(2df,p)
! Description: 6-31G(2df,p)
!        Role: orbital
!     Version: 0  (Data from the original Basis Set Exchange)
!----------------------------------------------------------------------

****
H     0
S    3   1.00
     18.7311370              0.03349460
      2.8253937              0.23472695
      0.6401217              0.81375733
S    1   1.00
      0.1612778              1.00000000
P    1   1.00
      1.5000000              1.0000000
P    1   1.00
      0.3750000              1.0000000
****
B     0
S    6   1.00
   2068.8823000              0.0018663
    310.6495700              0.0142515
     70.6830330              0.0695516
     19.8610800              0.2325729
      6.2993048              0.4670787
      2.1270270              0.3634314
SP   3   1.00
      4.7279710             -0.1303938              0.0745976
      1.1903377             -0.1307889              0.3078467
      0.3594117              1.1309444              0.7434568
SP   1   1.00
      0.1267512              1.0000000              1.0000000
D    1   1.00
      0.8020000              1.0000000
D    1   1.00
      0.2005000              1.0000000
F    1   1.00
      0.5000000              1.0000000
****
C     0
S    6   1.00
   3047.5249000              0.0018347
    457.3695100              0.0140373
    103.9486900              0.0688426
     29.2101550              0.2321844
      9.2866630              0.4679413
      3.1639270              0.3623120
SP   3   1.00
      7.8682724             -0.1193324              0.0689991
      1.8812885             -0.1608542              0.3164240
      0.5442493              1.1434564              0.7443083
SP   1   1.00
      0.1687144              1.0000000              1.0000000
D    1   1.00
      1.2520000              1.0000000
D    1   1.00
      0.3130000              1.0000000
F    1   1.00
      0.8000000              1.0000000
****
N     0
S    6   1.00
   4173.5110000              0.0018348
    627.4579000              0.0139950
    142.9021000              0.0685870
     40.2343300              0.2322410
     12.8202100              0.4690700
      4.3904370              0.3604550
SP   3   1.00
     11.6263580             -0.1149610              0.0675800
      2.7162800             -0.1691180              0.3239070
      0.7722180              1.1458520              0.7408950
SP   1   1.00
      0.2120313              1.0000000              1.0000000
D    1   1.00
      1.8260000              1.0000000
D    1   1.00
      0.4565000              1.0000000
F    1   1.00
      1.0000000              1.0000000
****
O     0
S    6   1.00
   5484.6717000              0.0018311
    825.2349500              0.0139501
    188.0469600              0.0684451
     52.9645000              0.2327143
     16.8975700              0.4701930
      5.7996353              0.3585209
SP   3   1.00
     15.5396160             -0.1107775              0.0708743
      3.5999336             -0.1480263              0.3397528
      1.0137618              1.1307670              0.7271586
SP   1   1.00
      0.2700058              1.0000000              1.0000000
D    1   1.00
      2.5840000              1.0000000
D    1   1.00
      0.6460000              1.0000000
F    1   1.00
      1.4000000              1.0000000
****
F     0
S    6   1.00
   7001.7130900              0.0018196169
   1051.3660900              0.0139160796
    239.2856900              0.0684053245
     67.3974453              0.233185760
     21.5199573              0.471267439
      7.40310130             0.356618546
SP   3   1.00
     20.8479528             -0.108506975            0.0716287243
      4.80830834            -0.146451658            0.3459121030
      1.34406986             1.128688580            0.7224699570
SP   1   1.00
      0.358151393            1.0000000              1.0000000
D    1   1.00
      3.5000000              1.0000000
D    1   1.00
      0.8750000              1.0000000
F    1   1.00
      1.8500000              1.0000000
****
Al     0
S    6   1.00
  13983.1000000              0.00194267
   2098.7500000              0.0148599
    477.7050000              0.0728494
    134.3600000              0.2468300
     42.8709000              0.4872580
     14.5189000              0.3234960
SP   6   1.00
    239.6680000             -0.00292619             0.00460285
     57.4419000             -0.0374080              0.0331990
     18.2859000             -0.1144870              0.1362820
      6.5991400              0.1156350              0.3304760
      2.4904900              0.6125950              0.4491460
      0.9445400              0.3937990              0.2657040
SP   3   1.00
      1.2779000             -0.2276060             -0.0175130
      0.3975900              0.00144583             0.2445330
      0.1600950              1.0927900              0.8049340
SP   1   1.00
      0.0556577              1.0000000              1.0000000
D    1   1.00
      0.6500000              1.0000000
D    1   1.00
      0.1625000              1.0000000
F    1   1.00
      0.2500000              1.0000000
****
Si     0
S    6   1.00
  16115.9000000              0.00195948
   2425.5800000              0.01492880
    553.8670000              0.07284780
    156.3400000              0.24613000
     50.0683000              0.48591400
     17.0178000              0.32500200
SP   6   1.00
    292.7180000             -0.00278094             0.00443826
     69.8731000             -0.03571460             0.03266790
     22.3363000             -0.11498500             0.13472100
      8.1503900              0.09356340             0.32867800
      3.1345800              0.60301700             0.44964000
      1.2254300              0.41895900             0.26137200
SP   3   1.00
      1.7273800             -0.24463000            -0.01779510
      0.5729220              0.00431572             0.25353900
      0.2221920              1.09818000             0.80066900
SP   1   1.00
      0.0778369              1.00000000             1.00000000
D    1   1.00
      0.9000000              1.0000000
D    1   1.00
      0.2250000              1.0000000
F    1   1.00
      0.3200000              1.0000000
****
P     0
S    6   1.00
  19413.3000000              0.0018516
   2909.4200000              0.0142062
    661.3640000              0.0699995
    185.7590000              0.2400790
     59.1943000              0.4847620
     20.0310000              0.3352000
SP   6   1.00
    339.4780000             -0.00278217             0.00456462
     81.0101000             -0.0360499              0.03369360
     25.8780000             -0.1166310              0.13975500
      9.4522100              0.0968328              0.33936200
      3.6656600              0.6144180              0.45092100
      1.4674600              0.4037980              0.23858600
SP   3   1.00
      2.1562300             -0.2529230             -0.01776530
      0.7489970              0.0328517              0.27405800
      0.2831450              1.0812500              0.78542100
SP   1   1.00
      0.0998317              1.0000000              1.00000000
D    1   1.00
      1.1000000              1.0000000
D    1   1.00
      0.2750000              1.0000000
F    1   1.00
      0.4500000              1.0000000
****
S     0
S    6   1.00
  21917.1000000              0.0018690
   3301.4900000              0.0142300
    754.1460000              0.0696960
    212.7110000              0.2384870
     67.9896000              0.4833070
     23.0515000              0.3380740
SP   6   1.00
    423.7350000             -0.0023767              0.0040610
    100.7100000             -0.0316930              0.0306810
     32.1599000             -0.1133170              0.1304520
     11.8079000              0.0560900              0.3272050
      4.6311000              0.5922550              0.4528510
      1.8702500              0.4550060              0.2560420
SP   3   1.00
      2.6158400             -0.2503740             -0.0145110
      0.9221670              0.0669570              0.3102630
      0.3412870              1.0545100              0.7544830
SP   1   1.00
      0.1171670              1.0000000              1.0000000
D    1   1.00
      1.3000000              1.0000000
D    1   1.00
      0.3250000              1.0000000
F    1   1.00
      0.5500000              1.0000000
****
Cl     0
S    6   1.00
  25180.1000000              0.0018330
   3780.3500000              0.0140340
    860.4740000              0.0690970
    242.1450000              0.2374520
     77.3349000              0.4830340
     26.2470000              0.3398560
SP   6   1.00
    491.7650000             -0.0022974              0.0039894
    116.9840000             -0.0307140              0.0303180
     37.4153000             -0.1125280              0.1298800
     13.7834000              0.0450160              0.3279510
      5.4521500              0.5893530              0.4535270
      2.2258800              0.4652060              0.2521540
SP   3   1.00
      3.1864900             -0.2518300             -0.0142990
      1.1442700              0.0615890              0.3235720
      0.4203770              1.0601800              0.7435070
SP   1   1.00
      0.1426570              1.0000000              1.0000000
D    1   1.00
      1.5000000              1.0000000
D    1   1.00
      0.3750000              1.0000000
F    1   1.00
      0.7000000              1.0000000
****
}

set {
reference uhf
freeze_core true
e_convergence 10
d_convergence 10
dft_spherical_points 1202
dft_radial_points 99
}

e = energy('b3lyp')

print_out('Grab this energy {0}'.format(e))
--------------------------------------------------------------------------

    Molecular point group: c1

    Geometry (in Bohr), charge = 0, multiplicity = 2:

       Center              X                  Y                   Z               Mass
    ------------   -----------------  -----------------  -----------------  -----------------
         C           -0.323340381733    -0.000001607443     0.000558139191    12.000000000000
         C            0.061368982267    -1.402422801543    -2.427787688109    12.000000000000
         C            0.061020320567     2.801759997057     0.001269819891    12.000000000000
         C            0.060910880267    -1.399332205743     2.424973774091    12.000000000000
         H            2.083384777067    -1.643951610043    -2.846517074309     1.007825032230
         H           -0.763647574833    -0.390605576843    -4.021809654109     1.007825032230
         H           -0.763781299233    -3.288801520943    -2.349122830909     1.007825032230
         H            2.086799008367     3.288103264657     0.000670198591     1.007825032230
         H           -0.765617022433     3.680760957357     1.677563350391     1.007825032230
         H           -0.765676039233     3.679748159857    -1.675437776709     1.007825032230
         H            2.090486771767    -1.644249048243     2.848372083491     1.007825032230
         H           -0.767353722733    -3.295198955943     2.348861751391     1.007825032230
         H           -0.767160245033    -0.385845942643     4.029159548691     1.007825032230

  Charge       = 0
  Multiplicity = 2
  Basis Set: ANONYMOUS15C18B87
    Blend: 6-31G_2DFP_
  Basis Set: (ANONYMOUS15C18B87 AUX)
    Blend: DEF2-UNIVERSAL-JKFIT

    Orbital Energies [Eh]
    ---------------------

    Alpha Occupied:

       1A    -10.180343     2A    -10.167632     3A    -10.167016
       4A    -10.166397     5A     -0.797767     6A     -0.686534
       7A     -0.685844     8A     -0.530774     9A     -0.441126
      10A     -0.434841    11A     -0.434503    12A     -0.382912
      13A     -0.382286    14A     -0.363616    15A     -0.338236
      16A     -0.337757    17A     -0.168962

    Alpha Virtual:

      18A      0.076071    19A      0.134126    20A      0.134158
      21A      0.142473    22A      0.142806    23A      0.154874
      24A      0.178375    25A      0.179185    26A      0.203544
      27A      0.214806    28A      0.275716    29A      0.276257
      30A      0.399155    31A      0.399294    32A      0.403349
      33A      0.423957    34A      0.424237    35A      0.456591
      36A      0.495341    37A      0.495437    38A      0.512161
      39A      0.513979    40A      0.578721    41A      0.578893
      42A      0.591265    43A      0.591986    44A      0.602601
      45A      0.624766    46A      0.631656    47A      0.635765
      48A      0.636855    49A      0.663292    50A      0.663536
      51A      0.683527    52A      0.684197    53A      0.734994
      54A      0.825060    55A      0.825748    56A      0.853917
      57A      0.915000    58A      0.915053    59A      0.944128
      60A      0.944610    61A      0.961081    62A      0.961514
      63A      1.003452    64A      1.127859    65A      1.128365
      66A      1.142222    67A      1.162890    68A      1.163638
      69A      1.223328    70A      1.274362    71A      1.274605
      72A      1.279359    73A      1.323933    74A      1.324773
      75A      1.355987    76A      1.365944    77A      1.366166
      78A      1.392437    79A      1.403480    80A      1.404602
      81A      1.416941    82A      1.417265    83A      1.427933
      84A      1.491488    85A      1.499088    86A      1.542699
      87A      1.542952    88A      1.573973    89A      1.574924
      90A      1.669773    91A      1.739364    92A      1.739478
      93A      1.768310    94A      1.829352    95A      1.833560
      96A      1.971712    97A      2.018135    98A      2.018496
      99A      2.019700   100A      2.051945   101A      2.053431
     102A      2.738160   103A      2.738811   104A      2.790926
     105A      2.811430   106A      2.889708   107A      2.890111
     108A      2.895023   109A      2.929333   110A      2.929664
     111A      2.959013   112A      2.963936   113A      2.964830
     114A      3.034018   115A      3.070931   116A      3.071649
     117A      3.084369   118A      3.168468   119A      3.169107
     120A      3.180587   121A      3.285244   122A      3.285402
     123A      3.326928   124A      3.327389   125A      3.375608
     126A      3.488998   127A      3.491322   128A      3.514012
     129A      3.525324   130A      3.568318   131A      3.568417
     132A      3.575212   133A      3.664859   134A      3.667683
     135A      3.679698   136A      3.693592   137A      3.694767
     138A      3.776414   139A      3.777225   140A      3.789124
     141A      3.911904   142A      3.912514   143A      4.034441
     144A      4.110732   145A      4.111874   146A      4.145817
     147A      4.150396   148A      4.173332   149A      4.200420
     150A      4.203016   151A      4.205333   152A      4.211091
     153A      4.315863   154A      4.315968   155A      4.358955
     156A      4.423119   157A      4.425428   158A      4.443879
     159A      4.516429   160A      4.517278   161A      4.577818
     162A      4.578756   163A      4.617522   164A      4.709479
     165A      4.774161   166A      4.774999   167A      4.836859
     168A      4.962799   169A      5.001746   170A      5.004317
     171A      5.227841   172A      5.242923   173A      5.250685
     174A      5.352656   175A      5.358563   176A      5.479424

    Beta Occupied:

       1A    -10.168396     2A    -10.167775     3A    -10.167156
       4A    -10.166516     5A     -0.781093     6A     -0.684341
       7A     -0.683641     8A     -0.511745     9A     -0.431225
      10A     -0.430862    11A     -0.421825    12A     -0.377025
      13A     -0.376341    14A     -0.362599    15A     -0.333353
      16A     -0.332886

    Beta Virtual:

      17A     -0.025744    18A      0.077080    19A      0.134971
      20A      0.135094    21A      0.144407    22A      0.144611
      23A      0.163335    24A      0.182067    25A      0.182835
      26A      0.215036    27A      0.218926    28A      0.282071
      29A      0.282598    30A      0.400320    31A      0.400473
      32A      0.419791    33A      0.426765    34A      0.427052
      35A      0.468499    36A      0.497608    37A      0.497691
      38A      0.513896    39A      0.556324    40A      0.584270
      41A      0.584445    42A      0.597469    43A      0.598145
      44A      0.610021    45A      0.628141    46A      0.631869
      47A      0.639047    48A      0.640089    49A      0.666847
      50A      0.667107    51A      0.686210    52A      0.686786
      53A      0.757517    54A      0.830208    55A      0.830937
      56A      0.855271    57A      0.922971    58A      0.923024
      59A      0.945965    60A      0.953537    61A      0.966413
      62A      0.966795    63A      1.008692    64A      1.131867
      65A      1.132415    66A      1.155601    67A      1.167931
      68A      1.168742    69A      1.232301    70A      1.279957
      71A      1.280204    72A      1.285113    73A      1.328889
      74A      1.329795    75A      1.365399    76A      1.371174
      77A      1.371426    78A      1.393501    79A      1.406976
      80A      1.408033    81A      1.421926    82A      1.422376
      83A      1.428206    84A      1.492536    85A      1.509530
      86A      1.547053    87A      1.547413    88A      1.581848
      89A      1.582793    90A      1.674618    91A      1.745108
      92A      1.745263    93A      1.779088    94A      1.833246
      95A      1.837376    96A      1.972574    97A      2.024855
      98A      2.026019    99A      2.039608   100A      2.058613
     101A      2.060219   102A      2.746459   103A      2.747184
     104A      2.811842   105A      2.816062   106A      2.902488
     107A      2.902766   108A      2.924658   109A      2.931886
     110A      2.932084   111A      2.960076   112A      2.968456
     113A      2.969400   114A      3.041952   115A      3.080784
     116A      3.081600   117A      3.086201   118A      3.184168
     119A      3.184908   120A      3.188267   121A      3.290043
     122A      3.290200   123A      3.330761   124A      3.331164
     125A      3.383427   126A      3.491738   127A      3.494042
     128A      3.512379   129A      3.528370   130A      3.574921
     131A      3.581676   132A      3.581887   133A      3.669545
     134A      3.672542   135A      3.693030   136A      3.725176
     137A      3.726361   138A      3.781013   139A      3.781677
     140A      3.817671   141A      3.921759   142A      3.922294
     143A      4.045322   144A      4.117854   145A      4.118357
     146A      4.153353   147A      4.157322   148A      4.187374
     149A      4.207245   150A      4.208981   151A      4.212397
     152A      4.215562   153A      4.323164   154A      4.323538
     155A      4.362324   156A      4.431339   157A      4.433490
     158A      4.446915   159A      4.524165   160A      4.525123
     161A      4.588448   162A      4.589325   163A      4.624714
     164A      4.719822   165A      4.781101   166A      4.781964
     167A      4.839776   168A      4.967598   169A      5.005815
     170A      5.008323   171A      5.233556   172A      5.244722
     173A      5.252464   174A      5.359169   175A      5.365005
     176A      5.481745

    Final Occupation by Irrep:
              A
    DOCC [    16 ]
    SOCC [     1 ]

  @DF-UKS Final Energy:  -157.81305084535668

   => Energetics <=

    Nuclear Repulsion Energy =            125.3946727288577847
    One-Electron Energy =                -458.7489495707388869
    Two-Electron Energy =                 195.8483761848407596
    DFT Exchange-Correlation Energy =     -20.3071501883163741
    Empirical Dispersion Energy =           0.0000000000000000
    VV10 Nonlocal Energy =                  0.0000000000000000
    Total Energy =                       -157.8130508453566847

  UHF NO Occupations:
  HONO-2 :   15  A 1.9996008
  HONO-1 :   16  A 1.9989804
  HONO-0 :   17  A 1.0000000
  LUNO+0 :   18  A 0.0010196
  LUNO+1 :   19  A 0.0003992
  LUNO+2 :   20  A 0.0001979
  LUNO+3 :   21  A 0.0001972

Computation Completed

Properties will be evaluated at   0.000000,   0.000000,   0.000000 [a0]

Properties computed using the SCF density matrix

  Nuclear Dipole Moment: [e a0]
     X:     0.8272      Y:    -0.0000      Z:     0.0058

  Electronic Dipole Moment: [e a0]
     X:    -0.7493      Y:     0.0000      Z:    -0.0083

  Dipole Moment: [e a0]
     X:     0.0779      Y:     0.0000      Z:    -0.0025     Total:     0.0780

  Dipole Moment: [D]
     X:     0.1980      Y:     0.0000      Z:    -0.0064     Total:     0.1981

*** tstop() called on n021 at Fri Nov  5 13:12:31 2021
Module time:
	user time   =     634.65 seconds =      10.58 minutes
	system time =      12.20 seconds =       0.20 minutes
	total time  =        163 seconds =       2.72 minutes
Total time:
	user time   =     634.65 seconds =      10.58 minutes
	system time =      12.20 seconds =       0.20 minutes
	total time  =        163 seconds =       2.72 minutes
Grab this energy -157.81305084535668
    Psi4 stopped on: Friday, 05 November 2021 01:12PM
    Psi4 wall time for execution: 0:02:42.64

*** Psi4 exiting successfully. Buy a developer a beer!
