                               Psi4 1.4a2.dev629

  ==> Input File <==

--------------------------------------------------------------------------
import os
memory 14 GB

molecule {
 C   -0.3233402630    0.0004298201    0.0004969333
 C    0.0621776278   -1.3999863163   -2.4268605095
 C    0.0613299831    2.8016521504    0.0003851954
 C    0.0597935169   -1.3997407642    2.4271955627
 H    2.0838226828   -1.6417650903   -2.8492686809
 H   -0.7617509258   -0.3876756493   -4.0251961438
 H   -0.7662659048   -3.2959003125   -2.3474028949
 H    2.0858877584    3.2881117088    0.0001835844
 H   -0.7640989945    3.6796398259    1.6771164352
 H   -0.7664965334    3.6805705649   -1.6777169579
 H    2.0909656790   -1.6411795707    2.8486241964
 H   -0.7707736592   -3.2917459686    2.3504402662
 H   -0.7638588442   -0.3924347119    4.0220030133
units bohr
0 2
}

basis {

assign 6-31g_2dfp_

[ 6-31g_2dfp_ ]

spherical

!----------------------------------------------------------------------
! Basis Set Exchange
! Version v0.8.13
! https://www.basissetexchange.org
!----------------------------------------------------------------------
!   Basis set: 6-31G(2df,p)
! Description: 6-31G(2df,p)
!        Role: orbital
!     Version: 0  (Data from the original Basis Set Exchange)
!----------------------------------------------------------------------

****
H     0
S    3   1.00
     18.7311370              0.03349460
      2.8253937              0.23472695
      0.6401217              0.81375733
S    1   1.00
      0.1612778              1.00000000
P    1   1.00
      1.5000000              1.0000000
P    1   1.00
      0.3750000              1.0000000
****
B     0
S    6   1.00
   2068.8823000              0.0018663
    310.6495700              0.0142515
     70.6830330              0.0695516
     19.8610800              0.2325729
      6.2993048              0.4670787
      2.1270270              0.3634314
SP   3   1.00
      4.7279710             -0.1303938              0.0745976
      1.1903377             -0.1307889              0.3078467
      0.3594117              1.1309444              0.7434568
SP   1   1.00
      0.1267512              1.0000000              1.0000000
D    1   1.00
      0.8020000              1.0000000
D    1   1.00
      0.2005000              1.0000000
F    1   1.00
      0.5000000              1.0000000
****
C     0
S    6   1.00
   3047.5249000              0.0018347
    457.3695100              0.0140373
    103.9486900              0.0688426
     29.2101550              0.2321844
      9.2866630              0.4679413
      3.1639270              0.3623120
SP   3   1.00
      7.8682724             -0.1193324              0.0689991
      1.8812885             -0.1608542              0.3164240
      0.5442493              1.1434564              0.7443083
SP   1   1.00
      0.1687144              1.0000000              1.0000000
D    1   1.00
      1.2520000              1.0000000
D    1   1.00
      0.3130000              1.0000000
F    1   1.00
      0.8000000              1.0000000
****
N     0
S    6   1.00
   4173.5110000              0.0018348
    627.4579000              0.0139950
    142.9021000              0.0685870
     40.2343300              0.2322410
     12.8202100              0.4690700
      4.3904370              0.3604550
SP   3   1.00
     11.6263580             -0.1149610              0.0675800
      2.7162800             -0.1691180              0.3239070
      0.7722180              1.1458520              0.7408950
SP   1   1.00
      0.2120313              1.0000000              1.0000000
D    1   1.00
      1.8260000              1.0000000
D    1   1.00
      0.4565000              1.0000000
F    1   1.00
      1.0000000              1.0000000
****
O     0
S    6   1.00
   5484.6717000              0.0018311
    825.2349500              0.0139501
    188.0469600              0.0684451
     52.9645000              0.2327143
     16.8975700              0.4701930
      5.7996353              0.3585209
SP   3   1.00
     15.5396160             -0.1107775              0.0708743
      3.5999336             -0.1480263              0.3397528
      1.0137618              1.1307670              0.7271586
SP   1   1.00
      0.2700058              1.0000000              1.0000000
D    1   1.00
      2.5840000              1.0000000
D    1   1.00
      0.6460000              1.0000000
F    1   1.00
      1.4000000              1.0000000
****
F     0
S    6   1.00
   7001.7130900              0.0018196169
   1051.3660900              0.0139160796
    239.2856900              0.0684053245
     67.3974453              0.233185760
     21.5199573              0.471267439
      7.40310130             0.356618546
SP   3   1.00
     20.8479528             -0.108506975            0.0716287243
      4.80830834            -0.146451658            0.3459121030
      1.34406986             1.128688580            0.7224699570
SP   1   1.00
      0.358151393            1.0000000              1.0000000
D    1   1.00
      3.5000000              1.0000000
D    1   1.00
      0.8750000              1.0000000
F    1   1.00
      1.8500000              1.0000000
****
Al     0
S    6   1.00
  13983.1000000              0.00194267
   2098.7500000              0.0148599
    477.7050000              0.0728494
    134.3600000              0.2468300
     42.8709000              0.4872580
     14.5189000              0.3234960
SP   6   1.00
    239.6680000             -0.00292619             0.00460285
     57.4419000             -0.0374080              0.0331990
     18.2859000             -0.1144870              0.1362820
      6.5991400              0.1156350              0.3304760
      2.4904900              0.6125950              0.4491460
      0.9445400              0.3937990              0.2657040
SP   3   1.00
      1.2779000             -0.2276060             -0.0175130
      0.3975900              0.00144583             0.2445330
      0.1600950              1.0927900              0.8049340
SP   1   1.00
      0.0556577              1.0000000              1.0000000
D    1   1.00
      0.6500000              1.0000000
D    1   1.00
      0.1625000              1.0000000
F    1   1.00
      0.2500000              1.0000000
****
Si     0
S    6   1.00
  16115.9000000              0.00195948
   2425.5800000              0.01492880
    553.8670000              0.07284780
    156.3400000              0.24613000
     50.0683000              0.48591400
     17.0178000              0.32500200
SP   6   1.00
    292.7180000             -0.00278094             0.00443826
     69.8731000             -0.03571460             0.03266790
     22.3363000             -0.11498500             0.13472100
      8.1503900              0.09356340             0.32867800
      3.1345800              0.60301700             0.44964000
      1.2254300              0.41895900             0.26137200
SP   3   1.00
      1.7273800             -0.24463000            -0.01779510
      0.5729220              0.00431572             0.25353900
      0.2221920              1.09818000             0.80066900
SP   1   1.00
      0.0778369              1.00000000             1.00000000
D    1   1.00
      0.9000000              1.0000000
D    1   1.00
      0.2250000              1.0000000
F    1   1.00
      0.3200000              1.0000000
****
P     0
S    6   1.00
  19413.3000000              0.0018516
   2909.4200000              0.0142062
    661.3640000              0.0699995
    185.7590000              0.2400790
     59.1943000              0.4847620
     20.0310000              0.3352000
SP   6   1.00
    339.4780000             -0.00278217             0.00456462
     81.0101000             -0.0360499              0.03369360
     25.8780000             -0.1166310              0.13975500
      9.4522100              0.0968328              0.33936200
      3.6656600              0.6144180              0.45092100
      1.4674600              0.4037980              0.23858600
SP   3   1.00
      2.1562300             -0.2529230             -0.01776530
      0.7489970              0.0328517              0.27405800
      0.2831450              1.0812500              0.78542100
SP   1   1.00
      0.0998317              1.0000000              1.00000000
D    1   1.00
      1.1000000              1.0000000
D    1   1.00
      0.2750000              1.0000000
F    1   1.00
      0.4500000              1.0000000
****
S     0
S    6   1.00
  21917.1000000              0.0018690
   3301.4900000              0.0142300
    754.1460000              0.0696960
    212.7110000              0.2384870
     67.9896000              0.4833070
     23.0515000              0.3380740
SP   6   1.00
    423.7350000             -0.0023767              0.0040610
    100.7100000             -0.0316930              0.0306810
     32.1599000             -0.1133170              0.1304520
     11.8079000              0.0560900              0.3272050
      4.6311000              0.5922550              0.4528510
      1.8702500              0.4550060              0.2560420
SP   3   1.00
      2.6158400             -0.2503740             -0.0145110
      0.9221670              0.0669570              0.3102630
      0.3412870              1.0545100              0.7544830
SP   1   1.00
      0.1171670              1.0000000              1.0000000
D    1   1.00
      1.3000000              1.0000000
D    1   1.00
      0.3250000              1.0000000
F    1   1.00
      0.5500000              1.0000000
****
Cl     0
S    6   1.00
  25180.1000000              0.0018330
   3780.3500000              0.0140340
    860.4740000              0.0690970
    242.1450000              0.2374520
     77.3349000              0.4830340
     26.2470000              0.3398560
SP   6   1.00
    491.7650000             -0.0022974              0.0039894
    116.9840000             -0.0307140              0.0303180
     37.4153000             -0.1125280              0.1298800
     13.7834000              0.0450160              0.3279510
      5.4521500              0.5893530              0.4535270
      2.2258800              0.4652060              0.2521540
SP   3   1.00
      3.1864900             -0.2518300             -0.0142990
      1.1442700              0.0615890              0.3235720
      0.4203770              1.0601800              0.7435070
SP   1   1.00
      0.1426570              1.0000000              1.0000000
D    1   1.00
      1.5000000              1.0000000
D    1   1.00
      0.3750000              1.0000000
F    1   1.00
      0.7000000              1.0000000
****
}

set {
reference uhf
freeze_core true
e_convergence 10
d_convergence 10
dft_spherical_points 1202
dft_radial_points 99
}

e = energy('b3lyp')

print_out('Grab this energy {0}'.format(e))
--------------------------------------------------------------------------

    Molecular point group: c1

    Geometry (in Bohr), charge = 0, multiplicity = 2:

       Center              X                  Y                   Z               Mass
    ------------   -----------------  -----------------  -----------------  -----------------
         C           -0.323340426644    -0.000023319312     0.000262495301    12.000000000000
         C            0.062177464156    -1.400439455712    -2.427094947499    12.000000000000
         C            0.061329819456     2.801199010988     0.000150757401    12.000000000000
         C            0.059793353256    -1.400193903612     2.426961124701    12.000000000000
         H            2.083822519156    -1.642218229712    -2.849503118899     1.007825032230
         H           -0.761751089444    -0.388128788712    -4.025430581799     1.007825032230
         H           -0.766266068444    -3.296353451912    -2.347637332899     1.007825032230
         H            2.085887594756     3.287658569388    -0.000050853599     1.007825032230
         H           -0.764099158144     3.679186686488     1.676881997201     1.007825032230
         H           -0.766496697044     3.680117425488    -1.677951395899     1.007825032230
         H            2.090965515356    -1.641632710112     2.848389758401     1.007825032230
         H           -0.770773822844    -3.292199108012     2.350205828201     1.007825032230
         H           -0.763859007844    -0.392887851312     4.021768575301     1.007825032230

  Charge       = 0
  Multiplicity = 2
  Basis Set: ANONYMOUS834479BA
    Blend: 6-31G_2DFP_
  Basis Set: (ANONYMOUS834479BA AUX)
    Blend: DEF2-UNIVERSAL-JKFIT

    Orbital Energies [Eh]
    ---------------------

    Alpha Occupied:

       1A    -10.180342     2A    -10.167044     3A    -10.167024
       4A    -10.166976     5A     -0.797767     6A     -0.686250
       7A     -0.686128     8A     -0.530780     9A     -0.441128
      10A     -0.434857    11A     -0.434481    12A     -0.382632
      13A     -0.382565    14A     -0.363612    15A     -0.338163
      16A     -0.337834    17A     -0.168961

    Alpha Virtual:

      18A      0.076069    19A      0.133952    20A      0.134352
      21A      0.142411    22A      0.142840    23A      0.154883
      24A      0.178651    25A      0.178906    26A      0.203548
      27A      0.214804    28A      0.275852    29A      0.276120
      30A      0.398976    31A      0.399478    32A      0.403344
      33A      0.423914    34A      0.424280    35A      0.456592
      36A      0.495235    37A      0.495542    38A      0.512161
      39A      0.513981    40A      0.578634    41A      0.578997
      42A      0.591416    43A      0.591840    44A      0.602580
      45A      0.624717    46A      0.631750    47A      0.635949
      48A      0.636614    49A      0.662995    50A      0.663841
      51A      0.683593    52A      0.684133    53A      0.734995
      54A      0.825151    55A      0.825654    56A      0.853921
      57A      0.914724    58A      0.915325    59A      0.944125
      60A      0.944605    61A      0.961143    62A      0.961452
      63A      1.003454    64A      1.127819    65A      1.128404
      66A      1.142214    67A      1.163128    68A      1.163417
      69A      1.223324    70A      1.274185    71A      1.274776
      72A      1.279371    73A      1.324138    74A      1.324564
      75A      1.355956    76A      1.365740    77A      1.366360
      78A      1.392446    79A      1.403594    80A      1.404516
      81A      1.416239    82A      1.417996    83A      1.427903
      84A      1.491494    85A      1.499069    86A      1.542393
      87A      1.543298    88A      1.574193    89A      1.574703
      90A      1.669826    91A      1.738662    92A      1.740127
      93A      1.768357    94A      1.830284    95A      1.832495
      96A      1.971741    97A      2.017798    98A      2.018348
      99A      2.020242   100A      2.051592   101A      2.053735
     102A      2.738037   103A      2.738932   104A      2.790925
     105A      2.811425   106A      2.889775   107A      2.890104
     108A      2.894965   109A      2.929476   110A      2.929521
     111A      2.958964   112A      2.964065   113A      2.964727
     114A      3.034017   115A      3.070742   116A      3.071752
     117A      3.084453   118A      3.168310   119A      3.169249
     120A      3.180604   121A      3.284952   122A      3.285671
     123A      3.326733   124A      3.327588   125A      3.375635
     126A      3.489848   127A      3.490472   128A      3.514018
     129A      3.525325   130A      3.567945   131A      3.568837
     132A      3.575133   133A      3.665543   134A      3.667262
     135A      3.679636   136A      3.693873   137A      3.694411
     138A      3.776694   139A      3.776892   140A      3.789135
     141A      3.911633   142A      3.912820   143A      4.034427
     144A      4.110619   145A      4.112026   146A      4.147349
     147A      4.148767   148A      4.173326   149A      4.201887
     150A      4.202428   151A      4.204347   152A      4.211069
     153A      4.314916   154A      4.317075   155A      4.358980
     156A      4.423828   157A      4.425109   158A      4.443446
     159A      4.515598   160A      4.518096   161A      4.578127
     162A      4.578395   163A      4.617573   164A      4.709431
     165A      4.773521   166A      4.775699   167A      4.836906
     168A      4.962869   169A      5.002118   170A      5.003791
     171A      5.227552   172A      5.244898   173A      5.249118
     174A      5.353797   175A      5.357305   176A      5.479442

    Beta Occupied:

       1A    -10.167799     2A    -10.167782     3A    -10.167743
       4A    -10.166520     5A     -0.781092     6A     -0.684055
       7A     -0.683929     8A     -0.511751     9A     -0.431230
      10A     -0.430857    11A     -0.421818    12A     -0.376733
      13A     -0.376634    14A     -0.362596    15A     -0.333281
      16A     -0.332962

    Beta Virtual:

      17A     -0.025743    18A      0.077078    19A      0.134835
      20A      0.135252    21A      0.144261    22A      0.144732
      23A      0.163339    24A      0.182310    25A      0.182590
      26A      0.215034    27A      0.218930    28A      0.282199
      29A      0.282469    30A      0.400142    31A      0.400652
      32A      0.419790    33A      0.426726    34A      0.427092
      35A      0.468500    36A      0.497488    37A      0.497812
      38A      0.513896    39A      0.556325    40A      0.584199
      41A      0.584532    42A      0.597565    43A      0.598051
      44A      0.610002    45A      0.628096    46A      0.631916
      47A      0.639251    48A      0.639871    49A      0.666596
      50A      0.667371    51A      0.686257    52A      0.686738
      53A      0.757518    54A      0.830331    55A      0.830810
      56A      0.855275    57A      0.922720    58A      0.923272
      59A      0.945962    60A      0.953531    61A      0.966416
      62A      0.966793    63A      1.008695    64A      1.131857
      65A      1.132423    66A      1.155589    67A      1.168171
      68A      1.168524    69A      1.232296    70A      1.279758
      71A      1.280394    72A      1.285128    73A      1.329130
      74A      1.329551    75A      1.365367    76A      1.371048
      77A      1.371540    78A      1.393506    79A      1.407016
      80A      1.408025    81A      1.421319    82A      1.423018
      83A      1.428171    84A      1.492544    85A      1.509512
      86A      1.546812    87A      1.547695    88A      1.582071
      89A      1.582567    90A      1.674673    91A      1.744415
      92A      1.745907    93A      1.779128    94A      1.834131
      95A      1.836359    96A      1.972603    97A      2.024726
      98A      2.026126    99A      2.039690   100A      2.058357
     101A      2.060422   102A      2.746376   103A      2.747265
     104A      2.811837   105A      2.816060   106A      2.902433
     107A      2.902844   108A      2.924649   109A      2.931929
     110A      2.932027   111A      2.960040   112A      2.968593
     113A      2.969281   114A      3.041950   115A      3.080633
     116A      3.081516   117A      3.086437   118A      3.184026
     119A      3.185008   120A      3.188311   121A      3.289737
     122A      3.290484   123A      3.330497   124A      3.331434
     125A      3.383452   126A      3.492608   127A      3.493174
     128A      3.512383   129A      3.528371   130A      3.574971
     131A      3.581216   132A      3.582266   133A      3.670313
     134A      3.671988   135A      3.692943   136A      3.725604
     137A      3.725927   138A      3.781183   139A      3.781466
     140A      3.817670   141A      3.921379   142A      3.922706
     143A      4.045314   144A      4.117276   145A      4.119004
     146A      4.154486   147A      4.156068   148A      4.187354
     149A      4.207868   150A      4.209531   151A      4.211090
     152A      4.215571   153A      4.322380   154A      4.324492
     155A      4.362343   156A      4.432056   157A      4.433307
     158A      4.446331   159A      4.523380   160A      4.525892
     161A      4.588708   162A      4.589016   163A      4.624767
     164A      4.719775   165A      4.780499   166A      4.782628
     167A      4.839823   168A      4.967664   169A      5.006175
     170A      5.007813   171A      5.233161   172A      5.246743
     173A      5.250953   174A      5.360275   175A      5.363782
     176A      5.481764

    Final Occupation by Irrep:
              A
    DOCC [    16 ]
    SOCC [     1 ]

  @DF-UKS Final Energy:  -157.81305030731230

   => Energetics <=

    Nuclear Repulsion Energy =            125.3946708055158865
    One-Electron Energy =                -458.7489473766539732
    Two-Electron Energy =                 195.8483754061512911
    DFT Exchange-Correlation Energy =     -20.3071491423255068
    Empirical Dispersion Energy =           0.0000000000000000
    VV10 Nonlocal Energy =                  0.0000000000000000
    Total Energy =                       -157.8130503073122952

  UHF NO Occupations:
  HONO-2 :   15  A 1.9996008
  HONO-1 :   16  A 1.9989804
  HONO-0 :   17  A 1.0000000
  LUNO+0 :   18  A 0.0010196
  LUNO+1 :   19  A 0.0003992
  LUNO+2 :   20  A 0.0001976
  LUNO+3 :   21  A 0.0001975

Computation Completed

Properties will be evaluated at   0.000000,   0.000000,   0.000000 [a0]

Properties computed using the SCF density matrix

  Nuclear Dipole Moment: [e a0]
     X:     0.8272      Y:    -0.0032      Z:    -0.0017

  Electronic Dipole Moment: [e a0]
     X:    -0.7493      Y:     0.0050      Z:     0.0023

  Dipole Moment: [e a0]
     X:     0.0779      Y:     0.0017      Z:     0.0006     Total:     0.0779

  Dipole Moment: [D]
     X:     0.1980      Y:     0.0044      Z:     0.0016     Total:     0.1981

*** tstop() called on n073 at Fri Nov  5 14:03:34 2021
Module time:
	user time   =     532.09 seconds =       8.87 minutes
	system time =      12.24 seconds =       0.20 minutes
	total time  =        137 seconds =       2.28 minutes
Total time:
	user time   =     532.09 seconds =       8.87 minutes
	system time =      12.24 seconds =       0.20 minutes
	total time  =        137 seconds =       2.28 minutes
Grab this energy -157.8130503073123
    Psi4 stopped on: Friday, 05 November 2021 02:03PM
    Psi4 wall time for execution: 0:02:17.10

*** Psi4 exiting successfully. Buy a developer a beer!
