                               Psi4 1.4a2.dev629

  ==> Input File <==

--------------------------------------------------------------------------
import os
memory 14 GB

molecule {
 C   -0.3279621360   -0.0000021622    0.0000000000
 C    0.0606706392   -1.4009184368   -2.4264514663
 C    0.0605508301    2.8018411334    0.0000000000
 C    0.0606706392   -1.4009184368    2.4264514663
 H    2.0872207811   -1.6442486184   -2.8477024062
 H   -0.7645421082   -0.3877974400   -4.0254392652
 H   -0.7647054235   -3.2921749647   -2.3485994580
 H    2.0870818524    3.2884048589    0.0000000000
 H   -0.7647831001    3.6800053881    1.6768461197
 H   -0.7647831001    3.6800053881   -1.6768461197
 H    2.0872207811   -1.6442486184    2.8477024062
 H   -0.7647054235   -3.2921749647    2.3485994580
 H   -0.7645421082   -0.3877974400    4.0254392652
units bohr
0 2
}

basis {

assign 6-31g_2dfp_

[ 6-31g_2dfp_ ]

spherical

!----------------------------------------------------------------------
! Basis Set Exchange
! Version v0.8.13
! https://www.basissetexchange.org
!----------------------------------------------------------------------
!   Basis set: 6-31G(2df,p)
! Description: 6-31G(2df,p)
!        Role: orbital
!     Version: 0  (Data from the original Basis Set Exchange)
!----------------------------------------------------------------------

****
H     0
S    3   1.00
     18.7311370              0.03349460
      2.8253937              0.23472695
      0.6401217              0.81375733
S    1   1.00
      0.1612778              1.00000000
P    1   1.00
      1.5000000              1.0000000
P    1   1.00
      0.3750000              1.0000000
****
B     0
S    6   1.00
   2068.8823000              0.0018663
    310.6495700              0.0142515
     70.6830330              0.0695516
     19.8610800              0.2325729
      6.2993048              0.4670787
      2.1270270              0.3634314
SP   3   1.00
      4.7279710             -0.1303938              0.0745976
      1.1903377             -0.1307889              0.3078467
      0.3594117              1.1309444              0.7434568
SP   1   1.00
      0.1267512              1.0000000              1.0000000
D    1   1.00
      0.8020000              1.0000000
D    1   1.00
      0.2005000              1.0000000
F    1   1.00
      0.5000000              1.0000000
****
C     0
S    6   1.00
   3047.5249000              0.0018347
    457.3695100              0.0140373
    103.9486900              0.0688426
     29.2101550              0.2321844
      9.2866630              0.4679413
      3.1639270              0.3623120
SP   3   1.00
      7.8682724             -0.1193324              0.0689991
      1.8812885             -0.1608542              0.3164240
      0.5442493              1.1434564              0.7443083
SP   1   1.00
      0.1687144              1.0000000              1.0000000
D    1   1.00
      1.2520000              1.0000000
D    1   1.00
      0.3130000              1.0000000
F    1   1.00
      0.8000000              1.0000000
****
N     0
S    6   1.00
   4173.5110000              0.0018348
    627.4579000              0.0139950
    142.9021000              0.0685870
     40.2343300              0.2322410
     12.8202100              0.4690700
      4.3904370              0.3604550
SP   3   1.00
     11.6263580             -0.1149610              0.0675800
      2.7162800             -0.1691180              0.3239070
      0.7722180              1.1458520              0.7408950
SP   1   1.00
      0.2120313              1.0000000              1.0000000
D    1   1.00
      1.8260000              1.0000000
D    1   1.00
      0.4565000              1.0000000
F    1   1.00
      1.0000000              1.0000000
****
O     0
S    6   1.00
   5484.6717000              0.0018311
    825.2349500              0.0139501
    188.0469600              0.0684451
     52.9645000              0.2327143
     16.8975700              0.4701930
      5.7996353              0.3585209
SP   3   1.00
     15.5396160             -0.1107775              0.0708743
      3.5999336             -0.1480263              0.3397528
      1.0137618              1.1307670              0.7271586
SP   1   1.00
      0.2700058              1.0000000              1.0000000
D    1   1.00
      2.5840000              1.0000000
D    1   1.00
      0.6460000              1.0000000
F    1   1.00
      1.4000000              1.0000000
****
F     0
S    6   1.00
   7001.7130900              0.0018196169
   1051.3660900              0.0139160796
    239.2856900              0.0684053245
     67.3974453              0.233185760
     21.5199573              0.471267439
      7.40310130             0.356618546
SP   3   1.00
     20.8479528             -0.108506975            0.0716287243
      4.80830834            -0.146451658            0.3459121030
      1.34406986             1.128688580            0.7224699570
SP   1   1.00
      0.358151393            1.0000000              1.0000000
D    1   1.00
      3.5000000              1.0000000
D    1   1.00
      0.8750000              1.0000000
F    1   1.00
      1.8500000              1.0000000
****
Al     0
S    6   1.00
  13983.1000000              0.00194267
   2098.7500000              0.0148599
    477.7050000              0.0728494
    134.3600000              0.2468300
     42.8709000              0.4872580
     14.5189000              0.3234960
SP   6   1.00
    239.6680000             -0.00292619             0.00460285
     57.4419000             -0.0374080              0.0331990
     18.2859000             -0.1144870              0.1362820
      6.5991400              0.1156350              0.3304760
      2.4904900              0.6125950              0.4491460
      0.9445400              0.3937990              0.2657040
SP   3   1.00
      1.2779000             -0.2276060             -0.0175130
      0.3975900              0.00144583             0.2445330
      0.1600950              1.0927900              0.8049340
SP   1   1.00
      0.0556577              1.0000000              1.0000000
D    1   1.00
      0.6500000              1.0000000
D    1   1.00
      0.1625000              1.0000000
F    1   1.00
      0.2500000              1.0000000
****
Si     0
S    6   1.00
  16115.9000000              0.00195948
   2425.5800000              0.01492880
    553.8670000              0.07284780
    156.3400000              0.24613000
     50.0683000              0.48591400
     17.0178000              0.32500200
SP   6   1.00
    292.7180000             -0.00278094             0.00443826
     69.8731000             -0.03571460             0.03266790
     22.3363000             -0.11498500             0.13472100
      8.1503900              0.09356340             0.32867800
      3.1345800              0.60301700             0.44964000
      1.2254300              0.41895900             0.26137200
SP   3   1.00
      1.7273800             -0.24463000            -0.01779510
      0.5729220              0.00431572             0.25353900
      0.2221920              1.09818000             0.80066900
SP   1   1.00
      0.0778369              1.00000000             1.00000000
D    1   1.00
      0.9000000              1.0000000
D    1   1.00
      0.2250000              1.0000000
F    1   1.00
      0.3200000              1.0000000
****
P     0
S    6   1.00
  19413.3000000              0.0018516
   2909.4200000              0.0142062
    661.3640000              0.0699995
    185.7590000              0.2400790
     59.1943000              0.4847620
     20.0310000              0.3352000
SP   6   1.00
    339.4780000             -0.00278217             0.00456462
     81.0101000             -0.0360499              0.03369360
     25.8780000             -0.1166310              0.13975500
      9.4522100              0.0968328              0.33936200
      3.6656600              0.6144180              0.45092100
      1.4674600              0.4037980              0.23858600
SP   3   1.00
      2.1562300             -0.2529230             -0.01776530
      0.7489970              0.0328517              0.27405800
      0.2831450              1.0812500              0.78542100
SP   1   1.00
      0.0998317              1.0000000              1.00000000
D    1   1.00
      1.1000000              1.0000000
D    1   1.00
      0.2750000              1.0000000
F    1   1.00
      0.4500000              1.0000000
****
S     0
S    6   1.00
  21917.1000000              0.0018690
   3301.4900000              0.0142300
    754.1460000              0.0696960
    212.7110000              0.2384870
     67.9896000              0.4833070
     23.0515000              0.3380740
SP   6   1.00
    423.7350000             -0.0023767              0.0040610
    100.7100000             -0.0316930              0.0306810
     32.1599000             -0.1133170              0.1304520
     11.8079000              0.0560900              0.3272050
      4.6311000              0.5922550              0.4528510
      1.8702500              0.4550060              0.2560420
SP   3   1.00
      2.6158400             -0.2503740             -0.0145110
      0.9221670              0.0669570              0.3102630
      0.3412870              1.0545100              0.7544830
SP   1   1.00
      0.1171670              1.0000000              1.0000000
D    1   1.00
      1.3000000              1.0000000
D    1   1.00
      0.3250000              1.0000000
F    1   1.00
      0.5500000              1.0000000
****
Cl     0
S    6   1.00
  25180.1000000              0.0018330
   3780.3500000              0.0140340
    860.4740000              0.0690970
    242.1450000              0.2374520
     77.3349000              0.4830340
     26.2470000              0.3398560
SP   6   1.00
    491.7650000             -0.0022974              0.0039894
    116.9840000             -0.0307140              0.0303180
     37.4153000             -0.1125280              0.1298800
     13.7834000              0.0450160              0.3279510
      5.4521500              0.5893530              0.4535270
      2.2258800              0.4652060              0.2521540
SP   3   1.00
      3.1864900             -0.2518300             -0.0142990
      1.1442700              0.0615890              0.3235720
      0.4203770              1.0601800              0.7435070
SP   1   1.00
      0.1426570              1.0000000              1.0000000
D    1   1.00
      1.5000000              1.0000000
D    1   1.00
      0.3750000              1.0000000
F    1   1.00
      0.7000000              1.0000000
****
}

set {
reference uhf
freeze_core true
e_convergence 10
d_convergence 10
dft_spherical_points 1202
dft_radial_points 99
}

e = energy('b3lyp')

print_out('Grab this energy {0}'.format(e))
--------------------------------------------------------------------------

    Molecular point group: cs

    Geometry (in Bohr), charge = 0, multiplicity = 2:

       Center              X                  Y                   Z               Mass
    ------------   -----------------  -----------------  -----------------  -----------------
         C           -0.326800706356    -0.000002136853     0.000000000000    12.000000000000
         C            0.061832068844    -1.400918411453    -2.426451466300    12.000000000000
         C            0.061712259744     2.801841158747     0.000000000000    12.000000000000
         C            0.061832068844    -1.400918411453     2.426451466300    12.000000000000
         H            2.088382210744    -1.644248593053    -2.847702406200     1.007825032230
         H           -0.763380678556    -0.387797414653    -4.025439265200     1.007825032230
         H           -0.763543993856    -3.292174939353    -2.348599458000     1.007825032230
         H            2.088243282044     3.288404884247     0.000000000000     1.007825032230
         H           -0.763621670456     3.680005413447     1.676846119700     1.007825032230
         H           -0.763621670456     3.680005413447    -1.676846119700     1.007825032230
         H            2.088382210744    -1.644248593053     2.847702406200     1.007825032230
         H           -0.763543993856    -3.292174939353     2.348599458000     1.007825032230
         H           -0.763380678556    -0.387797414653     4.025439265200     1.007825032230

  Charge       = 0
  Multiplicity = 2
  Basis Set: ANONYMOUSEA3CB288
    Blend: 6-31G_2DFP_
  Basis Set: (ANONYMOUSEA3CB288 AUX)
    Blend: DEF2-UNIVERSAL-JKFIT

    Orbital Energies [Eh]
    ---------------------

    Alpha Occupied:

       1Ap   -10.180520     2Ap   -10.167045     1App  -10.167045
       3Ap   -10.167000     4Ap    -0.797696     5Ap    -0.686156
       2App   -0.686156     6Ap    -0.530803     7Ap    -0.440945
       3App   -0.434753     8Ap    -0.434753     9Ap    -0.382460
       4App   -0.382458     5App   -0.363767     6App   -0.337955
      10Ap    -0.337955    11Ap    -0.169261

    Alpha Virtual:

      12Ap     0.076093    13Ap     0.134158     7App    0.134159
      14Ap     0.142687     8App    0.142688    15Ap     0.154893
      16Ap     0.178743     9App    0.178743    17Ap     0.203527
      10App    0.214887    11App    0.275673    18Ap     0.275675
      19Ap     0.399190    12App    0.399194    20Ap     0.403224
      13App    0.424063    21Ap     0.424063    22Ap     0.456682
      23Ap     0.495415    14App    0.495416    15App    0.512102
      24Ap     0.513884    25Ap     0.579032    16App    0.579041
      17App    0.591355    26Ap     0.591357    27Ap     0.602479
      28Ap     0.624824    18App    0.631858    19App    0.636217
      29Ap     0.636221    30Ap     0.663397    20App    0.663398
      31Ap     0.683766    21App    0.683767    32Ap     0.734668
      22App    0.825176    33Ap     0.825178    23App    0.853965
      24App    0.914794    34Ap     0.914800    25App    0.944072
      35Ap     0.944641    26App    0.961393    36Ap     0.961409
      37Ap     1.004338    38Ap     1.128421    27App    1.128433
      39Ap     1.141868    40Ap     1.163556    28App    1.163569
      41Ap     1.222741    42Ap     1.274140    29App    1.274144
      43Ap     1.279444    30App    1.324217    44Ap     1.324219
      45Ap     1.355203    31App    1.366026    46Ap     1.366031
      32App    1.392543    47Ap     1.403475    33App    1.403477
      34App    1.416736    48Ap     1.416742    35App    1.427777
      36App    1.491777    49Ap     1.498969    37App    1.543258
      50Ap     1.543261    51Ap     1.574258    38App    1.574260
      52Ap     1.670089    53Ap     1.738961    39App    1.738973
      54Ap     1.768159    40App    1.831333    55Ap     1.831334
      41App    1.972022    56Ap     2.017011    57Ap     2.019035
      42App    2.019038    58Ap     2.052655    43App    2.052656
      44App    2.737958    59Ap     2.737959    60Ap     2.790905
      45App    2.811672    61Ap     2.889526    46App    2.889532
      62Ap     2.895297    63Ap     2.929661    47App    2.929669
      48App    2.959092    64Ap     2.964225    49App    2.964239
      65Ap     3.034315    50App    3.069815    66Ap     3.069829
      51App    3.084340    67Ap     3.168880    52App    3.168887
      68Ap     3.180750    69Ap     3.286453    53App    3.286453
      70Ap     3.328457    54App    3.328464    71Ap     3.375480
      55App    3.489744    72Ap     3.489765    56App    3.513376
      73Ap     3.525953    57App    3.567666    74Ap     3.567686
      58App    3.575311    75Ap     3.665791    59App    3.665800
      76Ap     3.680457    60App    3.693884    77Ap     3.693900
      78Ap     3.775649    61App    3.775675    79Ap     3.786532
      80Ap     3.912305    62App    3.912311    81Ap     4.032976
      82Ap     4.111515    63App    4.111519    83Ap     4.148317
      64App    4.148325    84Ap     4.173057    85Ap     4.201903
      65App    4.203020    86Ap     4.203024    66App    4.210799
      87Ap     4.315948    67App    4.315968    68App    4.359553
      88Ap     4.423667    69App    4.423669    70App    4.444057
      71App    4.517283    89Ap     4.517284    72App    4.578479
      90Ap     4.578492    91Ap     4.616151    92Ap     4.709368
      93Ap     4.774180    73App    4.774188    74App    4.835468
      94Ap     4.963021    75App    5.002385    95Ap     5.002397
      96Ap     5.227866    76App    5.246712    97Ap     5.246713
      98Ap     5.355666    77App    5.355679    78App    5.478464

    Beta Occupied:

       1Ap   -10.167795     1App  -10.167795     2Ap   -10.167772
       3Ap   -10.166695     4Ap    -0.781042     5Ap    -0.683961
       2App   -0.683960     6Ap    -0.511770     3App   -0.431125
       7Ap    -0.431125     8Ap    -0.421667     9Ap    -0.376543
       4App   -0.376542     5App   -0.362751     6App   -0.333079
      10Ap    -0.333079

    Beta Virtual:

      11Ap    -0.025992    12Ap     0.077099    13Ap     0.135070
       7App    0.135071    14Ap     0.144551     8App    0.144551
      15Ap     0.163373    16Ap     0.182404     9App    0.182404
      10App    0.215113    17Ap     0.218866    11App    0.282045
      18Ap     0.282047    19Ap     0.400362    12App    0.400367
      20Ap     0.419703    13App    0.426873    21Ap     0.426874
      22Ap     0.468541    23Ap     0.497680    14App    0.497681
      15App    0.513837    24Ap     0.556182    25Ap     0.584559
      16App    0.584568    17App    0.597557    26Ap     0.597558
      27Ap     0.609903    28Ap     0.628189    18App    0.632013
      19App    0.639492    29Ap     0.639496    30Ap     0.666991
      20App    0.666992    31Ap     0.686392    21App    0.686394
      32Ap     0.757218    22App    0.830368    33Ap     0.830371
      23App    0.855317    24App    0.922779    34Ap     0.922785
      25App    0.945904    35Ap     0.953530    26App    0.966648
      36Ap     0.966664    37Ap     1.009645    38Ap     1.132353
      27App    1.132364    39Ap     1.155227    40Ap     1.168686
      28App    1.168699    41Ap     1.231703    42Ap     1.279770
      29App    1.279774    43Ap     1.285198    30App    1.329273
      44Ap     1.329275    45Ap     1.364577    31App    1.371269
      46Ap     1.371273    32App    1.393604    47Ap     1.406921
      33App    1.406923    34App    1.421750    48Ap     1.421757
      35App    1.428032    36App    1.492827    49Ap     1.509400
      50Ap     1.547775    37App    1.547775    38App    1.582026
      51Ap     1.582027    52Ap     1.674937    53Ap     1.744729
      39App    1.744740    54Ap     1.778925    40App    1.835173
      55Ap     1.835174    41App    1.972877    56Ap     2.025396
      42App    2.025399    57Ap     2.038418    58Ap     2.059412
      43App    2.059413    44App    2.746296    59Ap     2.746297
      45App    2.812092    60Ap     2.815970    61Ap     2.902272
      46App    2.902278    62Ap     2.924907    63Ap     2.932102
      47App    2.932111    48App    2.960154    64Ap     2.968795
      49App    2.968810    65Ap     3.042249    50App    3.079789
      66Ap     3.079800    51App    3.086157    67Ap     3.184461
      52App    3.184466    68Ap     3.188537    69Ap     3.291171
      53App    3.291172    70Ap     3.332284    54App    3.332289
      71Ap     3.383270    55App    3.492501    72Ap     3.492521
      56App    3.511746    73Ap     3.528971    57App    3.575167
      58App    3.581118    74Ap     3.581140    75Ap     3.670451
      59App    3.670462    76Ap     3.693729    60App    3.725541
      77Ap     3.725557    78Ap     3.780260    61App    3.780286
      79Ap     3.815096    80Ap     3.922086    62App    3.922093
      81Ap     4.043904    82Ap     4.118294    63App    4.118296
      83Ap     4.155554    64App    4.155563    84Ap     4.187109
      65App    4.208956    85Ap     4.208959    86Ap     4.209868
      66App    4.215283    87Ap     4.323398    67App    4.323418
      68App    4.362928    88Ap     4.431899    69App    4.431901
      70App    4.446909    71App    4.525059    89Ap     4.525060
      72App    4.589092    90Ap     4.589104    91Ap     4.623263
      92Ap     4.719827    93Ap     4.781125    73App    4.781133
      74App    4.838393    94Ap     4.967828    75App    5.006423
      95Ap     5.006435    96Ap     5.233553    76App    5.248487
      97Ap     5.248487    98Ap     5.362138    77App    5.362151
      78App    5.480791

    Final Occupation by Irrep:
             Ap   App
    DOCC [    10,    6 ]
    SOCC [     1,    0 ]

  @DF-UKS Final Energy:  -157.81305943955533

   => Energetics <=

    Nuclear Repulsion Energy =            125.3834622551216285
    One-Electron Energy =                -458.7266666445054852
    Two-Electron Energy =                 195.8369625864117154
    DFT Exchange-Correlation Energy =     -20.3068176365831938
    Empirical Dispersion Energy =           0.0000000000000000
    VV10 Nonlocal Energy =                  0.0000000000000000
    Total Energy =                       -157.8130594395553317

  UHF NO Occupations:
  HONO-2 :    9 Ap 1.9996014
  HONO-1 :   10 Ap 1.9989829
  HONO-0 :   11 Ap 1.0000000
  LUNO+0 :   12 Ap 0.0010171
  LUNO+1 :   13 Ap 0.0003986
  LUNO+2 :    7App 0.0001977
  LUNO+3 :   14 Ap 0.0001977

Computation Completed

Properties will be evaluated at   0.000000,   0.000000,   0.000000 [a0]

Properties computed using the SCF density matrix

  Nuclear Dipole Moment: [e a0]
     X:     0.8354      Y:    -0.0000      Z:     0.0000

  Electronic Dipole Moment: [e a0]
     X:    -0.7568      Y:     0.0000      Z:     0.0000

  Dipole Moment: [e a0]
     X:     0.0786      Y:    -0.0000      Z:     0.0000     Total:     0.0786

  Dipole Moment: [D]
     X:     0.1997      Y:    -0.0000      Z:     0.0000     Total:     0.1997

*** tstop() called on n065 at Fri Nov  5 11:32:07 2021
Module time:
	user time   =     543.64 seconds =       9.06 minutes
	system time =      12.13 seconds =       0.20 minutes
	total time  =        140 seconds =       2.33 minutes
Total time:
	user time   =     543.64 seconds =       9.06 minutes
	system time =      12.13 seconds =       0.20 minutes
	total time  =        140 seconds =       2.33 minutes
Grab this energy -157.81305943955533
    Psi4 stopped on: Friday, 05 November 2021 11:32AM
    Psi4 wall time for execution: 0:02:19.79

*** Psi4 exiting successfully. Buy a developer a beer!
