                               Psi4 1.4a2.dev629

  ==> Input File <==

--------------------------------------------------------------------------
import os
memory 14 GB

molecule {
 C   -0.3251191525   -0.0000024837    0.0004941798
 C    0.0604969891   -1.4006529045   -2.4259505402
 C    0.0604631224    2.8020167320    0.0000404329
 C    0.0606690940   -1.4013603617    2.4272567462
 H    2.0908752166   -1.6408480052   -2.8418408999
 H   -0.7668293439   -0.3875008699   -4.0304356928
 H   -0.7670829186   -3.2961203524   -2.3505760559
 H    2.0871163996    3.2820692095   -0.0000292644
 H   -0.7653204338    3.6829870938    1.6756116338
 H   -0.7651402414    3.6839769236   -1.6762653046
 H    2.0836352394   -1.6413132569    2.8425889927
 H   -0.7632222667   -3.2901345819    2.3535507714
 H   -0.7631495808   -0.3931414564    4.0255550011
units bohr
0 2
}

basis {

assign 6-31g_2dfp_

[ 6-31g_2dfp_ ]

spherical

!----------------------------------------------------------------------
! Basis Set Exchange
! Version v0.8.13
! https://www.basissetexchange.org
!----------------------------------------------------------------------
!   Basis set: 6-31G(2df,p)
! Description: 6-31G(2df,p)
!        Role: orbital
!     Version: 0  (Data from the original Basis Set Exchange)
!----------------------------------------------------------------------

****
H     0
S    3   1.00
     18.7311370              0.03349460
      2.8253937              0.23472695
      0.6401217              0.81375733
S    1   1.00
      0.1612778              1.00000000
P    1   1.00
      1.5000000              1.0000000
P    1   1.00
      0.3750000              1.0000000
****
B     0
S    6   1.00
   2068.8823000              0.0018663
    310.6495700              0.0142515
     70.6830330              0.0695516
     19.8610800              0.2325729
      6.2993048              0.4670787
      2.1270270              0.3634314
SP   3   1.00
      4.7279710             -0.1303938              0.0745976
      1.1903377             -0.1307889              0.3078467
      0.3594117              1.1309444              0.7434568
SP   1   1.00
      0.1267512              1.0000000              1.0000000
D    1   1.00
      0.8020000              1.0000000
D    1   1.00
      0.2005000              1.0000000
F    1   1.00
      0.5000000              1.0000000
****
C     0
S    6   1.00
   3047.5249000              0.0018347
    457.3695100              0.0140373
    103.9486900              0.0688426
     29.2101550              0.2321844
      9.2866630              0.4679413
      3.1639270              0.3623120
SP   3   1.00
      7.8682724             -0.1193324              0.0689991
      1.8812885             -0.1608542              0.3164240
      0.5442493              1.1434564              0.7443083
SP   1   1.00
      0.1687144              1.0000000              1.0000000
D    1   1.00
      1.2520000              1.0000000
D    1   1.00
      0.3130000              1.0000000
F    1   1.00
      0.8000000              1.0000000
****
N     0
S    6   1.00
   4173.5110000              0.0018348
    627.4579000              0.0139950
    142.9021000              0.0685870
     40.2343300              0.2322410
     12.8202100              0.4690700
      4.3904370              0.3604550
SP   3   1.00
     11.6263580             -0.1149610              0.0675800
      2.7162800             -0.1691180              0.3239070
      0.7722180              1.1458520              0.7408950
SP   1   1.00
      0.2120313              1.0000000              1.0000000
D    1   1.00
      1.8260000              1.0000000
D    1   1.00
      0.4565000              1.0000000
F    1   1.00
      1.0000000              1.0000000
****
O     0
S    6   1.00
   5484.6717000              0.0018311
    825.2349500              0.0139501
    188.0469600              0.0684451
     52.9645000              0.2327143
     16.8975700              0.4701930
      5.7996353              0.3585209
SP   3   1.00
     15.5396160             -0.1107775              0.0708743
      3.5999336             -0.1480263              0.3397528
      1.0137618              1.1307670              0.7271586
SP   1   1.00
      0.2700058              1.0000000              1.0000000
D    1   1.00
      2.5840000              1.0000000
D    1   1.00
      0.6460000              1.0000000
F    1   1.00
      1.4000000              1.0000000
****
F     0
S    6   1.00
   7001.7130900              0.0018196169
   1051.3660900              0.0139160796
    239.2856900              0.0684053245
     67.3974453              0.233185760
     21.5199573              0.471267439
      7.40310130             0.356618546
SP   3   1.00
     20.8479528             -0.108506975            0.0716287243
      4.80830834            -0.146451658            0.3459121030
      1.34406986             1.128688580            0.7224699570
SP   1   1.00
      0.358151393            1.0000000              1.0000000
D    1   1.00
      3.5000000              1.0000000
D    1   1.00
      0.8750000              1.0000000
F    1   1.00
      1.8500000              1.0000000
****
Al     0
S    6   1.00
  13983.1000000              0.00194267
   2098.7500000              0.0148599
    477.7050000              0.0728494
    134.3600000              0.2468300
     42.8709000              0.4872580
     14.5189000              0.3234960
SP   6   1.00
    239.6680000             -0.00292619             0.00460285
     57.4419000             -0.0374080              0.0331990
     18.2859000             -0.1144870              0.1362820
      6.5991400              0.1156350              0.3304760
      2.4904900              0.6125950              0.4491460
      0.9445400              0.3937990              0.2657040
SP   3   1.00
      1.2779000             -0.2276060             -0.0175130
      0.3975900              0.00144583             0.2445330
      0.1600950              1.0927900              0.8049340
SP   1   1.00
      0.0556577              1.0000000              1.0000000
D    1   1.00
      0.6500000              1.0000000
D    1   1.00
      0.1625000              1.0000000
F    1   1.00
      0.2500000              1.0000000
****
Si     0
S    6   1.00
  16115.9000000              0.00195948
   2425.5800000              0.01492880
    553.8670000              0.07284780
    156.3400000              0.24613000
     50.0683000              0.48591400
     17.0178000              0.32500200
SP   6   1.00
    292.7180000             -0.00278094             0.00443826
     69.8731000             -0.03571460             0.03266790
     22.3363000             -0.11498500             0.13472100
      8.1503900              0.09356340             0.32867800
      3.1345800              0.60301700             0.44964000
      1.2254300              0.41895900             0.26137200
SP   3   1.00
      1.7273800             -0.24463000            -0.01779510
      0.5729220              0.00431572             0.25353900
      0.2221920              1.09818000             0.80066900
SP   1   1.00
      0.0778369              1.00000000             1.00000000
D    1   1.00
      0.9000000              1.0000000
D    1   1.00
      0.2250000              1.0000000
F    1   1.00
      0.3200000              1.0000000
****
P     0
S    6   1.00
  19413.3000000              0.0018516
   2909.4200000              0.0142062
    661.3640000              0.0699995
    185.7590000              0.2400790
     59.1943000              0.4847620
     20.0310000              0.3352000
SP   6   1.00
    339.4780000             -0.00278217             0.00456462
     81.0101000             -0.0360499              0.03369360
     25.8780000             -0.1166310              0.13975500
      9.4522100              0.0968328              0.33936200
      3.6656600              0.6144180              0.45092100
      1.4674600              0.4037980              0.23858600
SP   3   1.00
      2.1562300             -0.2529230             -0.01776530
      0.7489970              0.0328517              0.27405800
      0.2831450              1.0812500              0.78542100
SP   1   1.00
      0.0998317              1.0000000              1.00000000
D    1   1.00
      1.1000000              1.0000000
D    1   1.00
      0.2750000              1.0000000
F    1   1.00
      0.4500000              1.0000000
****
S     0
S    6   1.00
  21917.1000000              0.0018690
   3301.4900000              0.0142300
    754.1460000              0.0696960
    212.7110000              0.2384870
     67.9896000              0.4833070
     23.0515000              0.3380740
SP   6   1.00
    423.7350000             -0.0023767              0.0040610
    100.7100000             -0.0316930              0.0306810
     32.1599000             -0.1133170              0.1304520
     11.8079000              0.0560900              0.3272050
      4.6311000              0.5922550              0.4528510
      1.8702500              0.4550060              0.2560420
SP   3   1.00
      2.6158400             -0.2503740             -0.0145110
      0.9221670              0.0669570              0.3102630
      0.3412870              1.0545100              0.7544830
SP   1   1.00
      0.1171670              1.0000000              1.0000000
D    1   1.00
      1.3000000              1.0000000
D    1   1.00
      0.3250000              1.0000000
F    1   1.00
      0.5500000              1.0000000
****
Cl     0
S    6   1.00
  25180.1000000              0.0018330
   3780.3500000              0.0140340
    860.4740000              0.0690970
    242.1450000              0.2374520
     77.3349000              0.4830340
     26.2470000              0.3398560
SP   6   1.00
    491.7650000             -0.0022974              0.0039894
    116.9840000             -0.0307140              0.0303180
     37.4153000             -0.1125280              0.1298800
     13.7834000              0.0450160              0.3279510
      5.4521500              0.5893530              0.4535270
      2.2258800              0.4652060              0.2521540
SP   3   1.00
      3.1864900             -0.2518300             -0.0142990
      1.1442700              0.0615890              0.3235720
      0.4203770              1.0601800              0.7435070
SP   1   1.00
      0.1426570              1.0000000              1.0000000
D    1   1.00
      1.5000000              1.0000000
D    1   1.00
      0.3750000              1.0000000
F    1   1.00
      0.7000000              1.0000000
****
}

set {
reference uhf
freeze_core true
e_convergence 10
d_convergence 10
dft_spherical_points 1202
dft_radial_points 99
}

e = energy('b3lyp')

print_out('Grab this energy {0}'.format(e))
--------------------------------------------------------------------------

    Molecular point group: c1

    Geometry (in Bohr), charge = 0, multiplicity = 2:

       Center              X                  Y                   Z               Mass
    ------------   -----------------  -----------------  -----------------  -----------------
         C           -0.324454664942    -0.000002243496     0.000139624858    12.000000000000
         C            0.061161476658    -1.400652664296    -2.426305095142    12.000000000000
         C            0.061127609958     2.802016972204    -0.000314122042    12.000000000000
         C            0.061333581558    -1.401360121496     2.426902191258    12.000000000000
         H            2.091539704158    -1.640847764996    -2.842195454842     1.007825032230
         H           -0.766164856342    -0.387500629696    -4.030790247742     1.007825032230
         H           -0.766418431042    -3.296120112196    -2.350930610842     1.007825032230
         H            2.087780887158     3.282069449704    -0.000383819342     1.007825032230
         H           -0.764655946242     3.682987334004     1.675257078858     1.007825032230
         H           -0.764475753842     3.683977163804    -1.676619859542     1.007825032230
         H            2.084299726958    -1.641313016696     2.842234437758     1.007825032230
         H           -0.762557779142    -3.290134341696     2.353196216458     1.007825032230
         H           -0.762485093242    -0.393141216196     4.025200446158     1.007825032230

  Charge       = 0
  Multiplicity = 2
  Basis Set: ANONYMOUS704F9428
    Blend: 6-31G_2DFP_
  Basis Set: (ANONYMOUS704F9428 AUX)
    Blend: DEF2-UNIVERSAL-JKFIT

    Orbital Energies [Eh]
    ---------------------

    Alpha Occupied:

       1A    -10.180355     2A    -10.167642     3A    -10.167062
       4A    -10.166480     5A     -0.797703     6A     -0.686472
       7A     -0.685828     8A     -0.530763     9A     -0.441294
      10A     -0.434547    11A     -0.434374    12A     -0.382975
      13A     -0.382529    14A     -0.363474    15A     -0.338007
      16A     -0.337943    17A     -0.168871

    Alpha Virtual:

      18A      0.076035    19A      0.134193    20A      0.134201
      21A      0.142464    22A      0.142666    23A      0.154669
      24A      0.178494    25A      0.179141    26A      0.203415
      27A      0.214584    28A      0.275902    29A      0.275991
      30A      0.398923    31A      0.399081    32A      0.403418
      33A      0.424153    34A      0.424345    35A      0.456356
      36A      0.495342    37A      0.495483    38A      0.512351
      39A      0.513923    40A      0.578530    41A      0.578773
      42A      0.591523    43A      0.592126    44A      0.602823
      45A      0.624704    46A      0.631446    47A      0.635812
      48A      0.636576    49A      0.662955    50A      0.663321
      51A      0.683630    52A      0.684259    53A      0.734910
      54A      0.825103    55A      0.825900    56A      0.853576
      57A      0.914872    58A      0.914897    59A      0.943909
      60A      0.945407    61A      0.961327    62A      0.961823
      63A      1.002725    64A      1.127330    65A      1.127985
      66A      1.142809    67A      1.162632    68A      1.162804
      69A      1.223405    70A      1.274329    71A      1.274694
      72A      1.279138    73A      1.323711    74A      1.324435
      75A      1.356394    76A      1.365472    77A      1.365997
      78A      1.392644    79A      1.403926    80A      1.404703
      81A      1.416941    82A      1.417579    83A      1.427300
      84A      1.490894    85A      1.499399    86A      1.542710
      87A      1.542825    88A      1.574790    89A      1.575359
      90A      1.669736    91A      1.739459    92A      1.739621
      93A      1.768475    94A      1.829553    95A      1.832749
      96A      1.971604    97A      2.017842    98A      2.018216
      99A      2.018841   100A      2.052123   101A      2.052255
     102A      2.738457   103A      2.739350   104A      2.790699
     105A      2.810913   106A      2.889487   107A      2.890050
     108A      2.894732   109A      2.928934   110A      2.929142
     111A      2.958945   112A      2.963813   113A      2.964851
     114A      3.033541   115A      3.071532   116A      3.071978
     117A      3.084739   118A      3.168722   119A      3.168978
     120A      3.180436   121A      3.285656   122A      3.285787
     123A      3.326013   124A      3.326096   125A      3.375896
     126A      3.489818   127A      3.491486   128A      3.513739
     129A      3.525169   130A      3.567783   131A      3.567874
     132A      3.574385   133A      3.665664   134A      3.667123
     135A      3.678565   136A      3.694196   137A      3.695128
     138A      3.775071   139A      3.776246   140A      3.790436
     141A      3.911673   142A      3.912565   143A      4.035556
     144A      4.110493   145A      4.111876   146A      4.146364
     147A      4.150254   148A      4.173373   149A      4.200499
     150A      4.202221   151A      4.204787   152A      4.210670
     153A      4.314964   154A      4.316350   155A      4.357767
     156A      4.424683   157A      4.425132   158A      4.442576
     159A      4.515725   160A      4.516267   161A      4.576855
     162A      4.577804   163A      4.616994   164A      4.709200
     165A      4.774117   166A      4.774322   167A      4.837890
     168A      4.962348   169A      5.002512   170A      5.003660
     171A      5.227483   172A      5.243181   173A      5.250529
     174A      5.352010   175A      5.358037   176A      5.479169

    Beta Occupied:

       1A    -10.168403     2A    -10.167820     3A    -10.167239
       4A    -10.166524     5A     -0.781024     6A     -0.684276
       7A     -0.683633     8A     -0.511738     9A     -0.430937
      10A     -0.430742    11A     -0.421987    12A     -0.377079
      13A     -0.376615    14A     -0.362464    15A     -0.333119
      16A     -0.333070

    Beta Virtual:

      17A     -0.025577    18A      0.077047    19A      0.135012
      20A      0.135134    21A      0.144372    22A      0.144477
      23A      0.163079    24A      0.182182    25A      0.182810
      26A      0.214812    27A      0.218836    28A      0.282258
      29A      0.282353    30A      0.400084    31A      0.400249
      32A      0.419843    33A      0.426967    34A      0.427165
      35A      0.468186    36A      0.497588    37A      0.497729
      38A      0.514081    39A      0.556352    40A      0.584052
      41A      0.584311    42A      0.597752    43A      0.598310
      44A      0.610222    45A      0.628077    46A      0.631632
      47A      0.639110    48A      0.639831    49A      0.666482
      50A      0.666874    51A      0.686319    52A      0.686879
      53A      0.757469    54A      0.830230    55A      0.831078
      56A      0.854928    57A      0.922799    58A      0.922820
      59A      0.945746    60A      0.954253    61A      0.966688
      62A      0.967127    63A      1.007937    64A      1.131341
      65A      1.132028    66A      1.156404    67A      1.167698
      68A      1.167898    69A      1.232274    70A      1.279906
      71A      1.280275    72A      1.284825    73A      1.328616
      74A      1.329432    75A      1.365861    76A      1.370739
      77A      1.371239    78A      1.393687    79A      1.407359
      80A      1.408171    81A      1.421998    82A      1.422728
      83A      1.427565    84A      1.491953    85A      1.509865
      86A      1.547077    87A      1.547283    88A      1.582659
      89A      1.583213    90A      1.674579    91A      1.745238
      92A      1.745366    93A      1.779238    94A      1.833440
      95A      1.836578    96A      1.972460    97A      2.024531
      98A      2.024597    99A      2.039865   100A      2.058795
     101A      2.059047   102A      2.746768   103A      2.747689
     104A      2.811320   105A      2.815830   106A      2.902337
     107A      2.902738   108A      2.924421   109A      2.931450
     110A      2.931560   111A      2.960006   112A      2.968280
     113A      2.969397   114A      3.041484   115A      3.081381
     116A      3.081938   117A      3.086593   118A      3.184433
     119A      3.184766   120A      3.188117   121A      3.290452
     122A      3.290636   123A      3.329861   124A      3.329904
     125A      3.383742   126A      3.492513   127A      3.494118
     128A      3.512096   129A      3.528251   130A      3.574157
     131A      3.581237   132A      3.581314   133A      3.670454
     134A      3.672031   135A      3.691936   136A      3.725658
     137A      3.726572   138A      3.779564   139A      3.780681
     140A      3.818957   141A      3.921550   142A      3.922417
     143A      4.046385   144A      4.117430   145A      4.118370
     146A      4.153877   147A      4.157346   148A      4.187460
     149A      4.206929   150A      4.208372   151A      4.212070
     152A      4.215121   153A      4.322512   154A      4.323648
     155A      4.361110   156A      4.432901   157A      4.433275
     158A      4.445540   159A      4.523590   160A      4.524011
     161A      4.587481   162A      4.588336   163A      4.624263
     164A      4.719438   165A      4.781051   166A      4.781321
     167A      4.840803   168A      4.967147   169A      5.006552
     170A      5.007666   171A      5.233206   172A      5.244970
     173A      5.252313   174A      5.358501   175A      5.364500
     176A      5.481485

    Final Occupation by Irrep:
              A
    DOCC [    16 ]
    SOCC [     1 ]

  @DF-UKS Final Energy:  -157.81304727371378

   => Energetics <=

    Nuclear Repulsion Energy =            125.3830654083848657
    One-Electron Energy =                -458.7263009056933925
    Two-Electron Energy =                 195.8369904497326957
    DFT Exchange-Correlation Energy =     -20.3068022261379681
    Empirical Dispersion Energy =           0.0000000000000000
    VV10 Nonlocal Energy =                  0.0000000000000000
    Total Energy =                       -157.8130472737137779

  UHF NO Occupations:
  HONO-2 :   15  A 1.9996022
  HONO-1 :   16  A 1.9989785
  HONO-0 :   17  A 1.0000000
  LUNO+0 :   18  A 0.0010215
  LUNO+1 :   19  A 0.0003978
  LUNO+2 :   20  A 0.0001979
  LUNO+3 :   21  A 0.0001978

Computation Completed

Properties will be evaluated at   0.000000,   0.000000,   0.000000 [a0]

Properties computed using the SCF density matrix

  Nuclear Dipole Moment: [e a0]
     X:     0.8319      Y:    -0.0000      Z:    -0.0025

  Electronic Dipole Moment: [e a0]
     X:    -0.7535      Y:     0.0000      Z:     0.0049

  Dipole Moment: [e a0]
     X:     0.0783      Y:     0.0000      Z:     0.0024     Total:     0.0784

  Dipole Moment: [D]
     X:     0.1991      Y:     0.0000      Z:     0.0062     Total:     0.1992

*** tstop() called on n032 at Fri Nov  5 15:06:15 2021
Module time:
	user time   =     633.55 seconds =      10.56 minutes
	system time =      12.15 seconds =       0.20 minutes
	total time  =        162 seconds =       2.70 minutes
Total time:
	user time   =     633.55 seconds =      10.56 minutes
	system time =      12.15 seconds =       0.20 minutes
	total time  =        162 seconds =       2.70 minutes
Grab this energy -157.81304727371378
    Psi4 stopped on: Friday, 05 November 2021 03:06PM
    Psi4 wall time for execution: 0:02:42.32

*** Psi4 exiting successfully. Buy a developer a beer!
