                               Psi4 1.4a2.dev629

  ==> Input File <==

--------------------------------------------------------------------------
import os
memory 14 GB

molecule {
 C   -0.3233408121   -0.0024296355   -0.0019981161
 C    0.0606079716   -1.4006370621   -2.4249498014
 C    0.0618155721    2.8030136282   -0.0011545672
 C    0.0608750652   -1.4023679397    2.4256418230
 H    2.0858394696   -1.6380323266   -2.8468293741
 H   -0.7701284514   -0.3910733720   -4.0227451071
 H   -0.7613759919   -3.2935963822   -2.3462714316
 H    2.0893647431    3.2872850414   -0.0040989657
 H   -0.7628569983    3.6775145885    1.6770494863
 H   -0.7655971045    3.6887594725   -1.6754524521
 H    2.0854505588   -1.6455463566    2.8516653737
 H   -0.7636285691   -3.2966764918    2.3505456305
 H   -0.7696333298   -0.3862374778    4.0185975018
units bohr
0 2
}

basis {

assign 6-31g_2dfp_

[ 6-31g_2dfp_ ]

spherical

!----------------------------------------------------------------------
! Basis Set Exchange
! Version v0.8.13
! https://www.basissetexchange.org
!----------------------------------------------------------------------
!   Basis set: 6-31G(2df,p)
! Description: 6-31G(2df,p)
!        Role: orbital
!     Version: 0  (Data from the original Basis Set Exchange)
!----------------------------------------------------------------------

****
H     0
S    3   1.00
     18.7311370              0.03349460
      2.8253937              0.23472695
      0.6401217              0.81375733
S    1   1.00
      0.1612778              1.00000000
P    1   1.00
      1.5000000              1.0000000
P    1   1.00
      0.3750000              1.0000000
****
B     0
S    6   1.00
   2068.8823000              0.0018663
    310.6495700              0.0142515
     70.6830330              0.0695516
     19.8610800              0.2325729
      6.2993048              0.4670787
      2.1270270              0.3634314
SP   3   1.00
      4.7279710             -0.1303938              0.0745976
      1.1903377             -0.1307889              0.3078467
      0.3594117              1.1309444              0.7434568
SP   1   1.00
      0.1267512              1.0000000              1.0000000
D    1   1.00
      0.8020000              1.0000000
D    1   1.00
      0.2005000              1.0000000
F    1   1.00
      0.5000000              1.0000000
****
C     0
S    6   1.00
   3047.5249000              0.0018347
    457.3695100              0.0140373
    103.9486900              0.0688426
     29.2101550              0.2321844
      9.2866630              0.4679413
      3.1639270              0.3623120
SP   3   1.00
      7.8682724             -0.1193324              0.0689991
      1.8812885             -0.1608542              0.3164240
      0.5442493              1.1434564              0.7443083
SP   1   1.00
      0.1687144              1.0000000              1.0000000
D    1   1.00
      1.2520000              1.0000000
D    1   1.00
      0.3130000              1.0000000
F    1   1.00
      0.8000000              1.0000000
****
N     0
S    6   1.00
   4173.5110000              0.0018348
    627.4579000              0.0139950
    142.9021000              0.0685870
     40.2343300              0.2322410
     12.8202100              0.4690700
      4.3904370              0.3604550
SP   3   1.00
     11.6263580             -0.1149610              0.0675800
      2.7162800             -0.1691180              0.3239070
      0.7722180              1.1458520              0.7408950
SP   1   1.00
      0.2120313              1.0000000              1.0000000
D    1   1.00
      1.8260000              1.0000000
D    1   1.00
      0.4565000              1.0000000
F    1   1.00
      1.0000000              1.0000000
****
O     0
S    6   1.00
   5484.6717000              0.0018311
    825.2349500              0.0139501
    188.0469600              0.0684451
     52.9645000              0.2327143
     16.8975700              0.4701930
      5.7996353              0.3585209
SP   3   1.00
     15.5396160             -0.1107775              0.0708743
      3.5999336             -0.1480263              0.3397528
      1.0137618              1.1307670              0.7271586
SP   1   1.00
      0.2700058              1.0000000              1.0000000
D    1   1.00
      2.5840000              1.0000000
D    1   1.00
      0.6460000              1.0000000
F    1   1.00
      1.4000000              1.0000000
****
F     0
S    6   1.00
   7001.7130900              0.0018196169
   1051.3660900              0.0139160796
    239.2856900              0.0684053245
     67.3974453              0.233185760
     21.5199573              0.471267439
      7.40310130             0.356618546
SP   3   1.00
     20.8479528             -0.108506975            0.0716287243
      4.80830834            -0.146451658            0.3459121030
      1.34406986             1.128688580            0.7224699570
SP   1   1.00
      0.358151393            1.0000000              1.0000000
D    1   1.00
      3.5000000              1.0000000
D    1   1.00
      0.8750000              1.0000000
F    1   1.00
      1.8500000              1.0000000
****
Al     0
S    6   1.00
  13983.1000000              0.00194267
   2098.7500000              0.0148599
    477.7050000              0.0728494
    134.3600000              0.2468300
     42.8709000              0.4872580
     14.5189000              0.3234960
SP   6   1.00
    239.6680000             -0.00292619             0.00460285
     57.4419000             -0.0374080              0.0331990
     18.2859000             -0.1144870              0.1362820
      6.5991400              0.1156350              0.3304760
      2.4904900              0.6125950              0.4491460
      0.9445400              0.3937990              0.2657040
SP   3   1.00
      1.2779000             -0.2276060             -0.0175130
      0.3975900              0.00144583             0.2445330
      0.1600950              1.0927900              0.8049340
SP   1   1.00
      0.0556577              1.0000000              1.0000000
D    1   1.00
      0.6500000              1.0000000
D    1   1.00
      0.1625000              1.0000000
F    1   1.00
      0.2500000              1.0000000
****
Si     0
S    6   1.00
  16115.9000000              0.00195948
   2425.5800000              0.01492880
    553.8670000              0.07284780
    156.3400000              0.24613000
     50.0683000              0.48591400
     17.0178000              0.32500200
SP   6   1.00
    292.7180000             -0.00278094             0.00443826
     69.8731000             -0.03571460             0.03266790
     22.3363000             -0.11498500             0.13472100
      8.1503900              0.09356340             0.32867800
      3.1345800              0.60301700             0.44964000
      1.2254300              0.41895900             0.26137200
SP   3   1.00
      1.7273800             -0.24463000            -0.01779510
      0.5729220              0.00431572             0.25353900
      0.2221920              1.09818000             0.80066900
SP   1   1.00
      0.0778369              1.00000000             1.00000000
D    1   1.00
      0.9000000              1.0000000
D    1   1.00
      0.2250000              1.0000000
F    1   1.00
      0.3200000              1.0000000
****
P     0
S    6   1.00
  19413.3000000              0.0018516
   2909.4200000              0.0142062
    661.3640000              0.0699995
    185.7590000              0.2400790
     59.1943000              0.4847620
     20.0310000              0.3352000
SP   6   1.00
    339.4780000             -0.00278217             0.00456462
     81.0101000             -0.0360499              0.03369360
     25.8780000             -0.1166310              0.13975500
      9.4522100              0.0968328              0.33936200
      3.6656600              0.6144180              0.45092100
      1.4674600              0.4037980              0.23858600
SP   3   1.00
      2.1562300             -0.2529230             -0.01776530
      0.7489970              0.0328517              0.27405800
      0.2831450              1.0812500              0.78542100
SP   1   1.00
      0.0998317              1.0000000              1.00000000
D    1   1.00
      1.1000000              1.0000000
D    1   1.00
      0.2750000              1.0000000
F    1   1.00
      0.4500000              1.0000000
****
S     0
S    6   1.00
  21917.1000000              0.0018690
   3301.4900000              0.0142300
    754.1460000              0.0696960
    212.7110000              0.2384870
     67.9896000              0.4833070
     23.0515000              0.3380740
SP   6   1.00
    423.7350000             -0.0023767              0.0040610
    100.7100000             -0.0316930              0.0306810
     32.1599000             -0.1133170              0.1304520
     11.8079000              0.0560900              0.3272050
      4.6311000              0.5922550              0.4528510
      1.8702500              0.4550060              0.2560420
SP   3   1.00
      2.6158400             -0.2503740             -0.0145110
      0.9221670              0.0669570              0.3102630
      0.3412870              1.0545100              0.7544830
SP   1   1.00
      0.1171670              1.0000000              1.0000000
D    1   1.00
      1.3000000              1.0000000
D    1   1.00
      0.3250000              1.0000000
F    1   1.00
      0.5500000              1.0000000
****
Cl     0
S    6   1.00
  25180.1000000              0.0018330
   3780.3500000              0.0140340
    860.4740000              0.0690970
    242.1450000              0.2374520
     77.3349000              0.4830340
     26.2470000              0.3398560
SP   6   1.00
    491.7650000             -0.0022974              0.0039894
    116.9840000             -0.0307140              0.0303180
     37.4153000             -0.1125280              0.1298800
     13.7834000              0.0450160              0.3279510
      5.4521500              0.5893530              0.4535270
      2.2258800              0.4652060              0.2521540
SP   3   1.00
      3.1864900             -0.2518300             -0.0142990
      1.1442700              0.0615890              0.3235720
      0.4203770              1.0601800              0.7435070
SP   1   1.00
      0.1426570              1.0000000              1.0000000
D    1   1.00
      1.5000000              1.0000000
D    1   1.00
      0.3750000              1.0000000
F    1   1.00
      0.7000000              1.0000000
****
}

set {
reference uhf
freeze_core true
e_convergence 10
d_convergence 10
dft_spherical_points 1202
dft_radial_points 99
}

e = energy('b3lyp')

print_out('Grab this energy {0}'.format(e))
--------------------------------------------------------------------------

    Molecular point group: c1

    Geometry (in Bohr), charge = 0, multiplicity = 2:

       Center              X                  Y                   Z               Mass
    ------------   -----------------  -----------------  -----------------  -----------------
         C           -0.323340384829    -0.001962902346    -0.001524174933    12.000000000000
         C            0.060608398871    -1.400170328946    -2.424475860233    12.000000000000
         C            0.061815999371     2.803480361354    -0.000680626033    12.000000000000
         C            0.060875492471    -1.401901206546     2.426115764167    12.000000000000
         H            2.085839896871    -1.637565593446    -2.846355432933     1.007825032230
         H           -0.770128024129    -0.390606638846    -4.022271165933     1.007825032230
         H           -0.761375564629    -3.293129649046    -2.345797490433     1.007825032230
         H            2.089365170371     3.287751774554    -0.003625024533     1.007825032230
         H           -0.762856571029     3.677981321654     1.677523427467     1.007825032230
         H           -0.765596677229     3.689226205654    -1.674978510933     1.007825032230
         H            2.085450986071    -1.645079623446     2.852139314867     1.007825032230
         H           -0.763628141829    -3.296209758646     2.351019571667     1.007825032230
         H           -0.769632902529    -0.385770744646     4.019071442967     1.007825032230

  Charge       = 0
  Multiplicity = 2
  Basis Set: ANONYMOUSE4F10AF1
    Blend: 6-31G_2DFP_
  Basis Set: (ANONYMOUSE4F10AF1 AUX)
    Blend: DEF2-UNIVERSAL-JKFIT

    Orbital Energies [Eh]
    ---------------------

    Alpha Occupied:

       1A    -10.180342     2A    -10.167233     3A    -10.167064
       4A    -10.166748     5A     -0.797768     6A     -0.686374
       7A     -0.685999     8A     -0.530776     9A     -0.441130
      10A     -0.434770    11A     -0.434570    12A     -0.382654
      13A     -0.382544    14A     -0.363611    15A     -0.338161
      16A     -0.337833    17A     -0.168960

    Alpha Virtual:

      18A      0.076073    19A      0.134085    20A      0.134227
      21A      0.142561    22A      0.142689    23A      0.154879
      24A      0.178738    25A      0.178816    26A      0.203548
      27A      0.214804    28A      0.275557    29A      0.276414
      30A      0.399191    31A      0.399247    32A      0.403364
      33A      0.424035    34A      0.424163    35A      0.456594
      36A      0.495312    37A      0.495466    38A      0.512159
      39A      0.513979    40A      0.578467    41A      0.579160
      42A      0.591266    43A      0.592001    44A      0.602579
      45A      0.624758    46A      0.631772    47A      0.636156
      48A      0.636355    49A      0.663205    50A      0.663619
      51A      0.683819    52A      0.683887    53A      0.734994
      54A      0.825189    55A      0.825624    56A      0.853916
      57A      0.914832    58A      0.915208    59A      0.944121
      60A      0.944612    61A      0.960607    62A      0.961988
      63A      1.003464    64A      1.127875    65A      1.128308
      66A      1.142209    67A      1.163130    68A      1.163453
      69A      1.223328    70A      1.274240    71A      1.274734
      72A      1.279356    73A      1.324234    74A      1.324480
      75A      1.355999    76A      1.365713    77A      1.366383
      78A      1.392445    79A      1.403608    80A      1.404499
      81A      1.416642    82A      1.417586    83A      1.427918
      84A      1.491494    85A      1.499081    86A      1.542519
      87A      1.543140    88A      1.574222    89A      1.574666
      90A      1.669836    91A      1.738954    92A      1.739888
      93A      1.768309    94A      1.830750    95A      1.832044
      96A      1.971729    97A      2.017955    98A      2.019060
      99A      2.019366   100A      2.051390   101A      2.053909
     102A      2.738194   103A      2.738767   104A      2.790934
     105A      2.811411   106A      2.889441   107A      2.890373
     108A      2.895050   109A      2.929329   110A      2.929670
     111A      2.958992   112A      2.964078   113A      2.964673
     114A      3.034008   115A      3.070967   116A      3.071600
     117A      3.084348   118A      3.168560   119A      3.168984
     120A      3.180613   121A      3.285251   122A      3.285378
     123A      3.326605   124A      3.327709   125A      3.375620
     126A      3.489866   127A      3.490429   128A      3.514013
     129A      3.525294   130A      3.567443   131A      3.569283
     132A      3.575237   133A      3.666070   134A      3.666620
     135A      3.679655   136A      3.693603   137A      3.694690
     138A      3.774995   139A      3.778572   140A      3.789206
     141A      3.911676   142A      3.912797   143A      4.034446
     144A      4.109725   145A      4.112991   146A      4.147066
     147A      4.149141   148A      4.173287   149A      4.202261
     150A      4.202985   151A      4.203533   152A      4.210887
     153A      4.314974   154A      4.316904   155A      4.359031
     156A      4.423896   157A      4.425012   158A      4.443456
     159A      4.515964   160A      4.517690   161A      4.577510
     162A      4.578983   163A      4.617522   164A      4.709453
     165A      4.773436   166A      4.775793   167A      4.836964
     168A      4.962845   169A      5.002244   170A      5.003678
     171A      5.228023   172A      5.246347   173A      5.247285
     174A      5.354309   175A      5.356707   176A      5.479358

    Beta Occupied:

       1A    -10.167989     2A    -10.167824     3A    -10.167510
       4A    -10.166518     5A     -0.781093     6A     -0.684163
       7A     -0.683815     8A     -0.511747     9A     -0.431142
      10A     -0.430947    11A     -0.421819    12A     -0.376728
      13A     -0.376641    14A     -0.362594    15A     -0.333283
      16A     -0.332958

    Beta Virtual:

      17A     -0.025742    18A      0.077082    19A      0.134974
      20A      0.135117    21A      0.144429    22A      0.144564
      23A      0.163338    24A      0.182427    25A      0.182470
      26A      0.215033    27A      0.218929    28A      0.281919
      29A      0.282747    30A      0.400362    31A      0.400430
      32A      0.419791    33A      0.426839    34A      0.426984
      35A      0.468502    36A      0.497580    37A      0.497720
      38A      0.513894    39A      0.556322    40A      0.584010
      41A      0.584718    42A      0.597467    43A      0.598158
      44A      0.609999    45A      0.628136    46A      0.631930
      47A      0.639415    48A      0.639667    49A      0.666779
      50A      0.667172    51A      0.686438    52A      0.686538
      53A      0.757517    54A      0.830337    55A      0.830812
      56A      0.855269    57A      0.922824    58A      0.923157
      59A      0.945958    60A      0.953535    61A      0.965971
      62A      0.967242    63A      1.008704    64A      1.131820
      65A      1.132423    66A      1.155583    67A      1.168302
      68A      1.168428    69A      1.232300    70A      1.279830
      71A      1.280335    72A      1.285113    73A      1.329236
      74A      1.329457    75A      1.365415    76A      1.371003
      77A      1.371577    78A      1.393505    79A      1.407033
      80A      1.408002    81A      1.421701    82A      1.422626
      83A      1.428190    84A      1.492542    85A      1.509525
      86A      1.546937    87A      1.547537    88A      1.582136
      89A      1.582496    90A      1.674683    91A      1.744701
      92A      1.745664    93A      1.779088    94A      1.834603
      95A      1.835902    96A      1.972589    97A      2.025330
      98A      2.025536    99A      2.039690   100A      2.058115
     101A      2.060619   102A      2.746542   103A      2.747093
     104A      2.811825   105A      2.816066   106A      2.902230
     107A      2.903044   108A      2.924653   109A      2.931813
     110A      2.932167   111A      2.960055   112A      2.968645
     113A      2.969197   114A      3.041943   115A      3.080918
     116A      3.081468   117A      3.086165   118A      3.184217
     119A      3.184774   120A      3.188348   121A      3.290028
     122A      3.290198   123A      3.330425   124A      3.331497
     125A      3.383439   126A      3.492585   127A      3.493168
     128A      3.512385   129A      3.528349   130A      3.574892
     131A      3.580956   132A      3.582634   133A      3.671037
     134A      3.671207   135A      3.692929   136A      3.725556
     137A      3.725966   138A      3.779588   139A      3.783058
     140A      3.817724   141A      3.921540   142A      3.922568
     143A      4.045333   144A      4.116628   145A      4.119721
     146A      4.154290   147A      4.156343   148A      4.187337
     149A      4.208461   150A      4.209466   151A      4.210689
     152A      4.215367   153A      4.322370   154A      4.324381
     155A      4.362400   156A      4.432147   157A      4.433184
     158A      4.446349   159A      4.523769   160A      4.525464
     161A      4.588106   162A      4.589583   163A      4.624722
     164A      4.719798   165A      4.780449   166A      4.782688
     167A      4.839883   168A      4.967639   169A      5.006263
     170A      5.007738   171A      5.233738   172A      5.248121
     173A      5.249079   174A      5.360759   175A      5.363217
     176A      5.481679

    Final Occupation by Irrep:
              A
    DOCC [    16 ]
    SOCC [     1 ]

  @DF-UKS Final Energy:  -157.81306430266915

   => Energetics <=

    Nuclear Repulsion Energy =            125.3946577404623639
    One-Electron Energy =                -458.7489673161537667
    Two-Electron Energy =                 195.8483900505806901
    DFT Exchange-Correlation Energy =     -20.3071447775584595
    Empirical Dispersion Energy =           0.0000000000000000
    VV10 Nonlocal Energy =                  0.0000000000000000
    Total Energy =                       -157.8130643026691473

  UHF NO Occupations:
  HONO-2 :   15  A 1.9996009
  HONO-1 :   16  A 1.9989804
  HONO-0 :   17  A 1.0000000
  LUNO+0 :   18  A 0.0010196
  LUNO+1 :   19  A 0.0003991
  LUNO+2 :   20  A 0.0001982
  LUNO+3 :   21  A 0.0001969

Computation Completed

Properties will be evaluated at   0.000000,   0.000000,   0.000000 [a0]

Properties computed using the SCF density matrix

  Nuclear Dipole Moment: [e a0]
     X:     0.8272      Y:     0.0033      Z:     0.0033

  Electronic Dipole Moment: [e a0]
     X:    -0.7493      Y:    -0.0032      Z:    -0.0034

  Dipole Moment: [e a0]
     X:     0.0779      Y:     0.0000      Z:    -0.0000     Total:     0.0779

  Dipole Moment: [D]
     X:     0.1980      Y:     0.0001      Z:    -0.0001     Total:     0.1980

*** tstop() called on n033 at Fri Nov  5 15:37:15 2021
Module time:
	user time   =     632.26 seconds =      10.54 minutes
	system time =      12.12 seconds =       0.20 minutes
	total time  =        162 seconds =       2.70 minutes
Total time:
	user time   =     632.26 seconds =      10.54 minutes
	system time =      12.12 seconds =       0.20 minutes
	total time  =        162 seconds =       2.70 minutes
Grab this energy -157.81306430266915
    Psi4 stopped on: Friday, 05 November 2021 03:37PM
    Psi4 wall time for execution: 0:02:41.99

*** Psi4 exiting successfully. Buy a developer a beer!
