                               Psi4 1.4a2.dev629

  ==> Input File <==

--------------------------------------------------------------------------
import os
memory 14 GB

molecule {
 C   -0.3218892219   -0.0000020113    0.0000000140
 C    0.0602850422   -1.4000875457   -2.4269453975
 C    0.0601652434    2.8018534200    0.0009666111
 C    0.0602850543   -1.4017616685    2.4259788338
 H    2.0869884371   -1.6418207314   -2.8487045835
 H   -0.7628854483   -0.3894448980   -4.0241863408
 H   -0.7677684264   -3.2938285746   -2.3485184913
 H    2.0868491978    3.2880588397    0.0026038712
 H   -0.7631261101    3.6797440925    1.6747930596
 H   -0.7678461711    3.6807619577   -1.6783190142
 H    2.0869877948   -1.6463305735    2.8461008673
 H   -0.7630483921   -3.2902665832    2.3493995125
 H   -0.7676048764   -0.3869000374    4.0268310578
units bohr
0 2
}

basis {

assign 6-31g_2dfp_

[ 6-31g_2dfp_ ]

spherical

!----------------------------------------------------------------------
! Basis Set Exchange
! Version v0.8.13
! https://www.basissetexchange.org
!----------------------------------------------------------------------
!   Basis set: 6-31G(2df,p)
! Description: 6-31G(2df,p)
!        Role: orbital
!     Version: 0  (Data from the original Basis Set Exchange)
!----------------------------------------------------------------------

****
H     0
S    3   1.00
     18.7311370              0.03349460
      2.8253937              0.23472695
      0.6401217              0.81375733
S    1   1.00
      0.1612778              1.00000000
P    1   1.00
      1.5000000              1.0000000
P    1   1.00
      0.3750000              1.0000000
****
B     0
S    6   1.00
   2068.8823000              0.0018663
    310.6495700              0.0142515
     70.6830330              0.0695516
     19.8610800              0.2325729
      6.2993048              0.4670787
      2.1270270              0.3634314
SP   3   1.00
      4.7279710             -0.1303938              0.0745976
      1.1903377             -0.1307889              0.3078467
      0.3594117              1.1309444              0.7434568
SP   1   1.00
      0.1267512              1.0000000              1.0000000
D    1   1.00
      0.8020000              1.0000000
D    1   1.00
      0.2005000              1.0000000
F    1   1.00
      0.5000000              1.0000000
****
C     0
S    6   1.00
   3047.5249000              0.0018347
    457.3695100              0.0140373
    103.9486900              0.0688426
     29.2101550              0.2321844
      9.2866630              0.4679413
      3.1639270              0.3623120
SP   3   1.00
      7.8682724             -0.1193324              0.0689991
      1.8812885             -0.1608542              0.3164240
      0.5442493              1.1434564              0.7443083
SP   1   1.00
      0.1687144              1.0000000              1.0000000
D    1   1.00
      1.2520000              1.0000000
D    1   1.00
      0.3130000              1.0000000
F    1   1.00
      0.8000000              1.0000000
****
N     0
S    6   1.00
   4173.5110000              0.0018348
    627.4579000              0.0139950
    142.9021000              0.0685870
     40.2343300              0.2322410
     12.8202100              0.4690700
      4.3904370              0.3604550
SP   3   1.00
     11.6263580             -0.1149610              0.0675800
      2.7162800             -0.1691180              0.3239070
      0.7722180              1.1458520              0.7408950
SP   1   1.00
      0.2120313              1.0000000              1.0000000
D    1   1.00
      1.8260000              1.0000000
D    1   1.00
      0.4565000              1.0000000
F    1   1.00
      1.0000000              1.0000000
****
O     0
S    6   1.00
   5484.6717000              0.0018311
    825.2349500              0.0139501
    188.0469600              0.0684451
     52.9645000              0.2327143
     16.8975700              0.4701930
      5.7996353              0.3585209
SP   3   1.00
     15.5396160             -0.1107775              0.0708743
      3.5999336             -0.1480263              0.3397528
      1.0137618              1.1307670              0.7271586
SP   1   1.00
      0.2700058              1.0000000              1.0000000
D    1   1.00
      2.5840000              1.0000000
D    1   1.00
      0.6460000              1.0000000
F    1   1.00
      1.4000000              1.0000000
****
F     0
S    6   1.00
   7001.7130900              0.0018196169
   1051.3660900              0.0139160796
    239.2856900              0.0684053245
     67.3974453              0.233185760
     21.5199573              0.471267439
      7.40310130             0.356618546
SP   3   1.00
     20.8479528             -0.108506975            0.0716287243
      4.80830834            -0.146451658            0.3459121030
      1.34406986             1.128688580            0.7224699570
SP   1   1.00
      0.358151393            1.0000000              1.0000000
D    1   1.00
      3.5000000              1.0000000
D    1   1.00
      0.8750000              1.0000000
F    1   1.00
      1.8500000              1.0000000
****
Al     0
S    6   1.00
  13983.1000000              0.00194267
   2098.7500000              0.0148599
    477.7050000              0.0728494
    134.3600000              0.2468300
     42.8709000              0.4872580
     14.5189000              0.3234960
SP   6   1.00
    239.6680000             -0.00292619             0.00460285
     57.4419000             -0.0374080              0.0331990
     18.2859000             -0.1144870              0.1362820
      6.5991400              0.1156350              0.3304760
      2.4904900              0.6125950              0.4491460
      0.9445400              0.3937990              0.2657040
SP   3   1.00
      1.2779000             -0.2276060             -0.0175130
      0.3975900              0.00144583             0.2445330
      0.1600950              1.0927900              0.8049340
SP   1   1.00
      0.0556577              1.0000000              1.0000000
D    1   1.00
      0.6500000              1.0000000
D    1   1.00
      0.1625000              1.0000000
F    1   1.00
      0.2500000              1.0000000
****
Si     0
S    6   1.00
  16115.9000000              0.00195948
   2425.5800000              0.01492880
    553.8670000              0.07284780
    156.3400000              0.24613000
     50.0683000              0.48591400
     17.0178000              0.32500200
SP   6   1.00
    292.7180000             -0.00278094             0.00443826
     69.8731000             -0.03571460             0.03266790
     22.3363000             -0.11498500             0.13472100
      8.1503900              0.09356340             0.32867800
      3.1345800              0.60301700             0.44964000
      1.2254300              0.41895900             0.26137200
SP   3   1.00
      1.7273800             -0.24463000            -0.01779510
      0.5729220              0.00431572             0.25353900
      0.2221920              1.09818000             0.80066900
SP   1   1.00
      0.0778369              1.00000000             1.00000000
D    1   1.00
      0.9000000              1.0000000
D    1   1.00
      0.2250000              1.0000000
F    1   1.00
      0.3200000              1.0000000
****
P     0
S    6   1.00
  19413.3000000              0.0018516
   2909.4200000              0.0142062
    661.3640000              0.0699995
    185.7590000              0.2400790
     59.1943000              0.4847620
     20.0310000              0.3352000
SP   6   1.00
    339.4780000             -0.00278217             0.00456462
     81.0101000             -0.0360499              0.03369360
     25.8780000             -0.1166310              0.13975500
      9.4522100              0.0968328              0.33936200
      3.6656600              0.6144180              0.45092100
      1.4674600              0.4037980              0.23858600
SP   3   1.00
      2.1562300             -0.2529230             -0.01776530
      0.7489970              0.0328517              0.27405800
      0.2831450              1.0812500              0.78542100
SP   1   1.00
      0.0998317              1.0000000              1.00000000
D    1   1.00
      1.1000000              1.0000000
D    1   1.00
      0.2750000              1.0000000
F    1   1.00
      0.4500000              1.0000000
****
S     0
S    6   1.00
  21917.1000000              0.0018690
   3301.4900000              0.0142300
    754.1460000              0.0696960
    212.7110000              0.2384870
     67.9896000              0.4833070
     23.0515000              0.3380740
SP   6   1.00
    423.7350000             -0.0023767              0.0040610
    100.7100000             -0.0316930              0.0306810
     32.1599000             -0.1133170              0.1304520
     11.8079000              0.0560900              0.3272050
      4.6311000              0.5922550              0.4528510
      1.8702500              0.4550060              0.2560420
SP   3   1.00
      2.6158400             -0.2503740             -0.0145110
      0.9221670              0.0669570              0.3102630
      0.3412870              1.0545100              0.7544830
SP   1   1.00
      0.1171670              1.0000000              1.0000000
D    1   1.00
      1.3000000              1.0000000
D    1   1.00
      0.3250000              1.0000000
F    1   1.00
      0.5500000              1.0000000
****
Cl     0
S    6   1.00
  25180.1000000              0.0018330
   3780.3500000              0.0140340
    860.4740000              0.0690970
    242.1450000              0.2374520
     77.3349000              0.4830340
     26.2470000              0.3398560
SP   6   1.00
    491.7650000             -0.0022974              0.0039894
    116.9840000             -0.0307140              0.0303180
     37.4153000             -0.1125280              0.1298800
     13.7834000              0.0450160              0.3279510
      5.4521500              0.5893530              0.4535270
      2.2258800              0.4652060              0.2521540
SP   3   1.00
      3.1864900             -0.2518300             -0.0142990
      1.1442700              0.0615890              0.3235720
      0.4203770              1.0601800              0.7435070
SP   1   1.00
      0.1426570              1.0000000              1.0000000
D    1   1.00
      1.5000000              1.0000000
D    1   1.00
      0.3750000              1.0000000
F    1   1.00
      0.7000000              1.0000000
****
}

set {
reference uhf
freeze_core true
e_convergence 10
d_convergence 10
dft_spherical_points 1202
dft_radial_points 99
}

e = energy('b3lyp')

print_out('Grab this energy {0}'.format(e))
--------------------------------------------------------------------------

    Molecular point group: c1

    Geometry (in Bohr), charge = 0, multiplicity = 2:

       Center              X                  Y                   Z               Mass
    ------------   -----------------  -----------------  -----------------  -----------------
         C           -0.321674677285    -0.000002004613     0.000000002174    12.000000000000
         C            0.060499586815    -1.400087539013    -2.426945409326    12.000000000000
         C            0.060379788015     2.801853426687     0.000966599274    12.000000000000
         C            0.060499598915    -1.401761661813     2.425978821974    12.000000000000
         H            2.087202981715    -1.641820724713    -2.848704595326     1.007825032230
         H           -0.762670903685    -0.389444891313    -4.024186352626     1.007825032230
         H           -0.767553881785    -3.293828567913    -2.348518503126     1.007825032230
         H            2.087063742415     3.288058846387     0.002603859374     1.007825032230
         H           -0.762911565485     3.679744099187     1.674793047774     1.007825032230
         H           -0.767631626485     3.680761964387    -1.678319026026     1.007825032230
         H            2.087202339415    -1.646330566813     2.846100855474     1.007825032230
         H           -0.762833847485    -3.290266576513     2.349399500674     1.007825032230
         H           -0.767390331785    -0.386900030713     4.026831045974     1.007825032230

  Charge       = 0
  Multiplicity = 2
  Basis Set: ANONYMOUSCF7A2849
    Blend: 6-31G_2DFP_
  Basis Set: (ANONYMOUSCF7A2849 AUX)
    Blend: DEF2-UNIVERSAL-JKFIT

    Orbital Energies [Eh]
    ---------------------

    Alpha Occupied:

       1A    -10.180277     2A    -10.167039     3A    -10.167038
       4A    -10.166993     5A     -0.797781     6A     -0.686206
       7A     -0.686205     8A     -0.530772     9A     -0.441066
      10A     -0.434735    11A     -0.434735    12A     -0.382493
      13A     -0.382491    14A     -0.363736    15A     -0.338090
      16A     -0.338090    17A     -0.168778

    Alpha Virtual:

      18A      0.076068    19A      0.134148    20A      0.134149
      21A      0.142659    22A      0.142659    23A      0.154798
      24A      0.178712    25A      0.178712    26A      0.203519
      27A      0.214852    28A      0.276157    29A      0.276159
      30A      0.399247    31A      0.399251    32A      0.403424
      33A      0.424124    34A      0.424125    35A      0.456497
      36A      0.495415    37A      0.495416    38A      0.512114
      39A      0.514079    40A      0.578685    41A      0.578693
      42A      0.591606    43A      0.591607    44A      0.602350
      45A      0.624799    46A      0.631889    47A      0.636396
      48A      0.636400    49A      0.663253    50A      0.663253
      51A      0.683972    52A      0.683973    53A      0.735190
      54A      0.825460    55A      0.825463    56A      0.853913
      57A      0.915088    58A      0.915094    59A      0.944052
      60A      0.944591    61A      0.961265    62A      0.961281
      63A      1.003456    64A      1.128012    65A      1.128024
      66A      1.142201    67A      1.162831    68A      1.162843
      69A      1.223484    70A      1.274555    71A      1.274558
      72A      1.279110    73A      1.324593    74A      1.324595
      75A      1.355748    76A      1.366427    77A      1.366432
      78A      1.392463    79A      1.404004    80A      1.404006
      81A      1.416876    82A      1.416883    83A      1.427860
      84A      1.491638    85A      1.498711    86A      1.542775
      87A      1.542777    88A      1.574733    89A      1.574736
      90A      1.670103    91A      1.739643    92A      1.739655
      93A      1.768255    94A      1.831790    95A      1.831791
      96A      1.971961    97A      2.018747    98A      2.018751
      99A      2.019348   100A      2.052254   101A      2.052254
     102A      2.738677   103A      2.738678   104A      2.790723
     105A      2.811461   106A      2.890201   107A      2.890207
     108A      2.894626   109A      2.929470   110A      2.929478
     111A      2.959061   112A      2.964486   113A      2.964500
     114A      3.033641   115A      3.072125   116A      3.072139
     117A      3.084441   118A      3.168659   119A      3.168666
     120A      3.180626   121A      3.284507   122A      3.284507
     123A      3.326815   124A      3.326821   125A      3.375447
     126A      3.490387   127A      3.490407   128A      3.514184
     129A      3.524876   130A      3.568672   131A      3.568692
     132A      3.574516   133A      3.666952   134A      3.666960
     135A      3.679893   136A      3.694045   137A      3.694061
     138A      3.777076   139A      3.777102   140A      3.790381
     141A      3.912248   142A      3.912254   143A      4.034758
     144A      4.111543   145A      4.111547   146A      4.148199
     147A      4.148207   148A      4.173153   149A      4.202815
     150A      4.202818   151A      4.202985   152A      4.210950
     153A      4.315748   154A      4.315767   155A      4.358486
     156A      4.424618   157A      4.424620   158A      4.443698
     159A      4.516545   160A      4.516546   161A      4.578154
     162A      4.578167   163A      4.618027   164A      4.709128
     165A      4.774749   166A      4.774757   167A      4.838093
     168A      4.962779   169A      5.002801   170A      5.002814
     171A      5.228135   172A      5.246843   173A      5.246843
     174A      5.355860   175A      5.355873   176A      5.479747

    Beta Occupied:

       1A    -10.167794     2A    -10.167794     3A    -10.167767
       4A    -10.166458     5A     -0.781102     6A     -0.684010
       7A     -0.684010     8A     -0.511752     9A     -0.431116
      10A     -0.431116    11A     -0.421733    12A     -0.376567
      13A     -0.376566    14A     -0.362721    15A     -0.333210
      16A     -0.333209

    Beta Virtual:

      17A     -0.025642    18A      0.077082    19A      0.135049
      20A      0.135050    21A      0.144526    22A      0.144527
      23A      0.163268    24A      0.182381    25A      0.182382
      26A      0.215075    27A      0.218931    28A      0.282493
      29A      0.282495    30A      0.400417    31A      0.400421
      32A      0.419897    33A      0.426933    34A      0.426934
      35A      0.468392    36A      0.497671    37A      0.497671
      38A      0.513855    39A      0.556423    40A      0.584248
      41A      0.584256    42A      0.597780    43A      0.597781
      44A      0.609799    45A      0.628122    46A      0.632075
      47A      0.639677    48A      0.639681    49A      0.666815
      50A      0.666816    51A      0.686612    52A      0.686613
      53A      0.757693    54A      0.830625    55A      0.830627
      56A      0.855271    57A      0.923049    58A      0.923056
      59A      0.945915    60A      0.953503    61A      0.966604
      62A      0.966620    63A      1.008677    64A      1.132033
      65A      1.132045    66A      1.155612    67A      1.167906
      68A      1.167919    69A      1.232461    70A      1.280136
      71A      1.280140    72A      1.284855    73A      1.329573
      74A      1.329575    75A      1.365188    76A      1.371675
      77A      1.371679    78A      1.393528    79A      1.407471
      80A      1.407474    81A      1.421948    82A      1.421955
      83A      1.428123    84A      1.492703    85A      1.509133
      86A      1.547186    87A      1.547186    88A      1.582604
      89A      1.582605    90A      1.674933    91A      1.745406
      92A      1.745418    93A      1.779057    94A      1.835654
      95A      1.835655    96A      1.972836    97A      2.025156
      98A      2.025160    99A      2.040701   100A      2.058947
     101A      2.058948   102A      2.747013   103A      2.747014
     104A      2.811859   105A      2.815883   106A      2.902844
     107A      2.902850   108A      2.924353   109A      2.931962
     110A      2.931971   111A      2.960125   112A      2.969020
     113A      2.969034   114A      3.041614   115A      3.081997
     116A      3.082009   117A      3.086266   118A      3.184515
     119A      3.184519   120A      3.188249   121A      3.289344
     122A      3.289344   123A      3.330612   124A      3.330618
     125A      3.383256   126A      3.493100   127A      3.493120
     128A      3.512548   129A      3.527908   130A      3.574378
     131A      3.581966   132A      3.581988   133A      3.671717
     134A      3.671728   135A      3.693188   136A      3.725671
     137A      3.725687   138A      3.781561   139A      3.781587
     140A      3.818937   141A      3.922101   142A      3.922108
     143A      4.045617   144A      4.118368   145A      4.118371
     146A      4.155402   147A      4.155411   148A      4.187207
     149A      4.208750   150A      4.208753   151A      4.210921
     152A      4.215513   153A      4.323169   154A      4.323189
     155A      4.361848   156A      4.432875   157A      4.432878
     158A      4.446574   159A      4.524353   160A      4.524354
     161A      4.588722   162A      4.588735   163A      4.625227
     164A      4.719448   165A      4.781688   166A      4.781695
     167A      4.840998   168A      4.967577   169A      5.006854
     170A      5.006867   171A      5.233849   172A      5.248632
     173A      5.248632   174A      5.362327   175A      5.362341
     176A      5.482061

    Final Occupation by Irrep:
              A
    DOCC [    16 ]
    SOCC [     1 ]

  @DF-UKS Final Energy:  -157.81306900080833

   => Energetics <=

    Nuclear Repulsion Energy =            125.3970557903991505
    One-Electron Energy =                -458.7535839323363120
    Two-Electron Energy =                 195.8506733390288161
    DFT Exchange-Correlation Energy =     -20.3072141979000129
    Empirical Dispersion Energy =           0.0000000000000000
    VV10 Nonlocal Energy =                  0.0000000000000000
    Total Energy =                       -157.8130690008083263

  UHF NO Occupations:
  HONO-2 :   15  A 1.9995994
  HONO-1 :   16  A 1.9989790
  HONO-0 :   17  A 1.0000000
  LUNO+0 :   18  A 0.0010210
  LUNO+1 :   19  A 0.0004006
  LUNO+2 :   20  A 0.0001974
  LUNO+3 :   21  A 0.0001974

Computation Completed

Properties will be evaluated at   0.000000,   0.000000,   0.000000 [a0]

Properties computed using the SCF density matrix

  Nuclear Dipole Moment: [e a0]
     X:     0.8287      Y:    -0.0000      Z:    -0.0000

  Electronic Dipole Moment: [e a0]
     X:    -0.7516      Y:     0.0000      Z:     0.0000

  Dipole Moment: [e a0]
     X:     0.0771      Y:     0.0000      Z:     0.0000     Total:     0.0771

  Dipole Moment: [D]
     X:     0.1961      Y:     0.0000      Z:     0.0000     Total:     0.1961

*** tstop() called on n082 at Fri Nov  5 11:35:31 2021
Module time:
	user time   =     465.92 seconds =       7.77 minutes
	system time =       4.31 seconds =       0.07 minutes
	total time  =        119 seconds =       1.98 minutes
Total time:
	user time   =     465.92 seconds =       7.77 minutes
	system time =       4.31 seconds =       0.07 minutes
	total time  =        119 seconds =       1.98 minutes
Grab this energy -157.81306900080833
    Psi4 stopped on: Friday, 05 November 2021 11:35AM
    Psi4 wall time for execution: 0:01:58.28

*** Psi4 exiting successfully. Buy a developer a beer!
