                               Psi4 1.4a2.dev629

  ==> Input File <==

--------------------------------------------------------------------------
import os
memory 14 GB

molecule {
 C   -0.3233393121   -0.0010235637    0.0004932737
 C    0.0614300165   -1.3990733949   -2.4263371962
 C    0.0602724642    2.8021531826    0.0000410010
 C    0.0615974073   -1.3997830259    2.4276415671
 H    2.0905176180   -1.6444201985   -2.8468111671
 H   -0.7674791863   -0.3857067450   -4.0278728964
 H   -0.7674759350   -3.2951418328   -2.3473602423
 H    2.0868810121    3.2880063297   -0.0000267169
 H   -0.7655248026    3.6796795844    1.6762675042
 H   -0.7653424002    3.6806704860   -1.6769217882
 H    2.0832740195   -1.6448689011    2.8475447763
 H   -0.7636190705   -3.2891621064    2.3503452494
 H   -0.7637997075   -0.3913541281    4.0229966356
units bohr
0 2
}

basis {

assign 6-31g_2dfp_

[ 6-31g_2dfp_ ]

spherical

!----------------------------------------------------------------------
! Basis Set Exchange
! Version v0.8.13
! https://www.basissetexchange.org
!----------------------------------------------------------------------
!   Basis set: 6-31G(2df,p)
! Description: 6-31G(2df,p)
!        Role: orbital
!     Version: 0  (Data from the original Basis Set Exchange)
!----------------------------------------------------------------------

****
H     0
S    3   1.00
     18.7311370              0.03349460
      2.8253937              0.23472695
      0.6401217              0.81375733
S    1   1.00
      0.1612778              1.00000000
P    1   1.00
      1.5000000              1.0000000
P    1   1.00
      0.3750000              1.0000000
****
B     0
S    6   1.00
   2068.8823000              0.0018663
    310.6495700              0.0142515
     70.6830330              0.0695516
     19.8610800              0.2325729
      6.2993048              0.4670787
      2.1270270              0.3634314
SP   3   1.00
      4.7279710             -0.1303938              0.0745976
      1.1903377             -0.1307889              0.3078467
      0.3594117              1.1309444              0.7434568
SP   1   1.00
      0.1267512              1.0000000              1.0000000
D    1   1.00
      0.8020000              1.0000000
D    1   1.00
      0.2005000              1.0000000
F    1   1.00
      0.5000000              1.0000000
****
C     0
S    6   1.00
   3047.5249000              0.0018347
    457.3695100              0.0140373
    103.9486900              0.0688426
     29.2101550              0.2321844
      9.2866630              0.4679413
      3.1639270              0.3623120
SP   3   1.00
      7.8682724             -0.1193324              0.0689991
      1.8812885             -0.1608542              0.3164240
      0.5442493              1.1434564              0.7443083
SP   1   1.00
      0.1687144              1.0000000              1.0000000
D    1   1.00
      1.2520000              1.0000000
D    1   1.00
      0.3130000              1.0000000
F    1   1.00
      0.8000000              1.0000000
****
N     0
S    6   1.00
   4173.5110000              0.0018348
    627.4579000              0.0139950
    142.9021000              0.0685870
     40.2343300              0.2322410
     12.8202100              0.4690700
      4.3904370              0.3604550
SP   3   1.00
     11.6263580             -0.1149610              0.0675800
      2.7162800             -0.1691180              0.3239070
      0.7722180              1.1458520              0.7408950
SP   1   1.00
      0.2120313              1.0000000              1.0000000
D    1   1.00
      1.8260000              1.0000000
D    1   1.00
      0.4565000              1.0000000
F    1   1.00
      1.0000000              1.0000000
****
O     0
S    6   1.00
   5484.6717000              0.0018311
    825.2349500              0.0139501
    188.0469600              0.0684451
     52.9645000              0.2327143
     16.8975700              0.4701930
      5.7996353              0.3585209
SP   3   1.00
     15.5396160             -0.1107775              0.0708743
      3.5999336             -0.1480263              0.3397528
      1.0137618              1.1307670              0.7271586
SP   1   1.00
      0.2700058              1.0000000              1.0000000
D    1   1.00
      2.5840000              1.0000000
D    1   1.00
      0.6460000              1.0000000
F    1   1.00
      1.4000000              1.0000000
****
F     0
S    6   1.00
   7001.7130900              0.0018196169
   1051.3660900              0.0139160796
    239.2856900              0.0684053245
     67.3974453              0.233185760
     21.5199573              0.471267439
      7.40310130             0.356618546
SP   3   1.00
     20.8479528             -0.108506975            0.0716287243
      4.80830834            -0.146451658            0.3459121030
      1.34406986             1.128688580            0.7224699570
SP   1   1.00
      0.358151393            1.0000000              1.0000000
D    1   1.00
      3.5000000              1.0000000
D    1   1.00
      0.8750000              1.0000000
F    1   1.00
      1.8500000              1.0000000
****
Al     0
S    6   1.00
  13983.1000000              0.00194267
   2098.7500000              0.0148599
    477.7050000              0.0728494
    134.3600000              0.2468300
     42.8709000              0.4872580
     14.5189000              0.3234960
SP   6   1.00
    239.6680000             -0.00292619             0.00460285
     57.4419000             -0.0374080              0.0331990
     18.2859000             -0.1144870              0.1362820
      6.5991400              0.1156350              0.3304760
      2.4904900              0.6125950              0.4491460
      0.9445400              0.3937990              0.2657040
SP   3   1.00
      1.2779000             -0.2276060             -0.0175130
      0.3975900              0.00144583             0.2445330
      0.1600950              1.0927900              0.8049340
SP   1   1.00
      0.0556577              1.0000000              1.0000000
D    1   1.00
      0.6500000              1.0000000
D    1   1.00
      0.1625000              1.0000000
F    1   1.00
      0.2500000              1.0000000
****
Si     0
S    6   1.00
  16115.9000000              0.00195948
   2425.5800000              0.01492880
    553.8670000              0.07284780
    156.3400000              0.24613000
     50.0683000              0.48591400
     17.0178000              0.32500200
SP   6   1.00
    292.7180000             -0.00278094             0.00443826
     69.8731000             -0.03571460             0.03266790
     22.3363000             -0.11498500             0.13472100
      8.1503900              0.09356340             0.32867800
      3.1345800              0.60301700             0.44964000
      1.2254300              0.41895900             0.26137200
SP   3   1.00
      1.7273800             -0.24463000            -0.01779510
      0.5729220              0.00431572             0.25353900
      0.2221920              1.09818000             0.80066900
SP   1   1.00
      0.0778369              1.00000000             1.00000000
D    1   1.00
      0.9000000              1.0000000
D    1   1.00
      0.2250000              1.0000000
F    1   1.00
      0.3200000              1.0000000
****
P     0
S    6   1.00
  19413.3000000              0.0018516
   2909.4200000              0.0142062
    661.3640000              0.0699995
    185.7590000              0.2400790
     59.1943000              0.4847620
     20.0310000              0.3352000
SP   6   1.00
    339.4780000             -0.00278217             0.00456462
     81.0101000             -0.0360499              0.03369360
     25.8780000             -0.1166310              0.13975500
      9.4522100              0.0968328              0.33936200
      3.6656600              0.6144180              0.45092100
      1.4674600              0.4037980              0.23858600
SP   3   1.00
      2.1562300             -0.2529230             -0.01776530
      0.7489970              0.0328517              0.27405800
      0.2831450              1.0812500              0.78542100
SP   1   1.00
      0.0998317              1.0000000              1.00000000
D    1   1.00
      1.1000000              1.0000000
D    1   1.00
      0.2750000              1.0000000
F    1   1.00
      0.4500000              1.0000000
****
S     0
S    6   1.00
  21917.1000000              0.0018690
   3301.4900000              0.0142300
    754.1460000              0.0696960
    212.7110000              0.2384870
     67.9896000              0.4833070
     23.0515000              0.3380740
SP   6   1.00
    423.7350000             -0.0023767              0.0040610
    100.7100000             -0.0316930              0.0306810
     32.1599000             -0.1133170              0.1304520
     11.8079000              0.0560900              0.3272050
      4.6311000              0.5922550              0.4528510
      1.8702500              0.4550060              0.2560420
SP   3   1.00
      2.6158400             -0.2503740             -0.0145110
      0.9221670              0.0669570              0.3102630
      0.3412870              1.0545100              0.7544830
SP   1   1.00
      0.1171670              1.0000000              1.0000000
D    1   1.00
      1.3000000              1.0000000
D    1   1.00
      0.3250000              1.0000000
F    1   1.00
      0.5500000              1.0000000
****
Cl     0
S    6   1.00
  25180.1000000              0.0018330
   3780.3500000              0.0140340
    860.4740000              0.0690970
    242.1450000              0.2374520
     77.3349000              0.4830340
     26.2470000              0.3398560
SP   6   1.00
    491.7650000             -0.0022974              0.0039894
    116.9840000             -0.0307140              0.0303180
     37.4153000             -0.1125280              0.1298800
     13.7834000              0.0450160              0.3279510
      5.4521500              0.5893530              0.4535270
      2.2258800              0.4652060              0.2521540
SP   3   1.00
      3.1864900             -0.2518300             -0.0142990
      1.1442700              0.0615890              0.3235720
      0.4203770              1.0601800              0.7435070
SP   1   1.00
      0.1426570              1.0000000              1.0000000
D    1   1.00
      1.5000000              1.0000000
D    1   1.00
      0.3750000              1.0000000
F    1   1.00
      0.7000000              1.0000000
****
}

set {
reference uhf
freeze_core true
e_convergence 10
d_convergence 10
dft_spherical_points 1202
dft_radial_points 99
}

e = energy('b3lyp')

print_out('Grab this energy {0}'.format(e))
--------------------------------------------------------------------------

    Molecular point group: c1

    Geometry (in Bohr), charge = 0, multiplicity = 2:

       Center              X                  Y                   Z               Mass
    ------------   -----------------  -----------------  -----------------  -----------------
         C           -0.323339420105    -0.001460968664     0.000139137311    12.000000000000
         C            0.061429908495    -1.399510799864    -2.426691332589    12.000000000000
         C            0.060272356195     2.801715777636    -0.000313135389    12.000000000000
         C            0.061597299295    -1.400220430864     2.427287430711    12.000000000000
         H            2.090517509995    -1.644857603464    -2.847165303489     1.007825032230
         H           -0.767479294305    -0.386144149964    -4.028227032789     1.007825032230
         H           -0.767476043005    -3.295579237764    -2.347714378689     1.007825032230
         H            2.086880904095     3.287568924736    -0.000380853289     1.007825032230
         H           -0.765524910605     3.679242179436     1.675913367811     1.007825032230
         H           -0.765342508205     3.680233081036    -1.677275924589     1.007825032230
         H            2.083273911495    -1.645306306064     2.847190639911     1.007825032230
         H           -0.763619178505    -3.289599511364     2.349991113011     1.007825032230
         H           -0.763799815505    -0.391791533064     4.022642499211     1.007825032230

  Charge       = 0
  Multiplicity = 2
  Basis Set: ANONYMOUSCAC49130
    Blend: 6-31G_2DFP_
  Basis Set: (ANONYMOUSCAC49130 AUX)
    Blend: DEF2-UNIVERSAL-JKFIT

    Orbital Energies [Eh]
    ---------------------

    Alpha Occupied:

       1A    -10.180342     2A    -10.167611     3A    -10.166985
       4A    -10.166449     5A     -0.797767     6A     -0.686519
       7A     -0.685856     8A     -0.530775     9A     -0.441126
      10A     -0.434758    11A     -0.434584    12A     -0.382826
      13A     -0.382373    14A     -0.363610    15A     -0.338294
      16A     -0.337702    17A     -0.168961

    Alpha Virtual:

      18A      0.076070    19A      0.134109    20A      0.134187
      21A      0.142513    22A      0.142756    23A      0.154875
      24A      0.178453    25A      0.179107    26A      0.203546
      27A      0.214806    28A      0.275853    29A      0.276119
      30A      0.399092    31A      0.399364    32A      0.403343
      33A      0.424002    34A      0.424193    35A      0.456592
      36A      0.495312    37A      0.495467    38A      0.512162
      39A      0.513978    40A      0.578684    41A      0.578946
      42A      0.591329    43A      0.591917    44A      0.602592
      45A      0.624764    46A      0.631684    47A      0.635939
      48A      0.636651    49A      0.663209    50A      0.663619
      51A      0.683549    52A      0.684173    53A      0.734994
      54A      0.825005    55A      0.825800    56A      0.853917
      57A      0.914918    58A      0.915135    59A      0.944130
      60A      0.944611    61A      0.961040    62A      0.961552
      63A      1.003455    64A      1.127781    65A      1.128440
      66A      1.142211    67A      1.163178    68A      1.163363
      69A      1.223324    70A      1.274233    71A      1.274742
      72A      1.279354    73A      1.323994    74A      1.324714
      75A      1.355980    76A      1.365702    77A      1.366406
      78A      1.392436    79A      1.403600    80A      1.404505
      81A      1.416699    82A      1.417517    83A      1.427921
      84A      1.491491    85A      1.499086    86A      1.542654
      87A      1.543010    88A      1.574031    89A      1.574874
      90A      1.669789    91A      1.739278    92A      1.739518
      93A      1.768347    94A      1.829839    95A      1.833028
      96A      1.971696    97A      2.017901    98A      2.018923
      99A      2.019552   100A      2.052065   101A      2.053270
     102A      2.738035   103A      2.738937   104A      2.790924
     105A      2.811430   106A      2.889222   107A      2.890632
     108A      2.894984   109A      2.929293   110A      2.929698
     111A      2.959005   112A      2.963786   113A      2.964987
     114A      3.034021   115A      3.071021   116A      3.071541
     117A      3.084380   118A      3.168592   119A      3.168949
     120A      3.180614   121A      3.285091   122A      3.285544
     123A      3.327106   124A      3.327216   125A      3.375613
     126A      3.489334   127A      3.490983   128A      3.514018
     129A      3.525343   130A      3.568261   131A      3.568469
     132A      3.575198   133A      3.665529   134A      3.667134
     135A      3.679677   136A      3.693690   137A      3.694606
     138A      3.776228   139A      3.777404   140A      3.789119
     141A      3.911641   142A      3.912785   143A      4.034443
     144A      4.110560   145A      4.112059   146A      4.146073
     147A      4.150081   148A      4.173322   149A      4.200721
     150A      4.202998   151A      4.205000   152A      4.211166
     153A      4.314881   154A      4.317031   155A      4.358941
     156A      4.423804   157A      4.424972   158A      4.443584
     159A      4.516532   160A      4.517114   161A      4.577763
     162A      4.578822   163A      4.617529   164A      4.709491
     165A      4.774406   166A      4.774784   167A      4.836881
     168A      4.962865   169A      5.002339   170A      5.003601
     171A      5.227834   172A      5.243101   173A      5.250505
     174A      5.352581   175A      5.358618   176A      5.479437

    Beta Occupied:

       1A    -10.168373     2A    -10.167744     3A    -10.167210
       4A    -10.166516     5A     -0.781092     6A     -0.684321
       7A     -0.683660     8A     -0.511747     9A     -0.431143
      10A     -0.430944    11A     -0.421822    12A     -0.376921
      13A     -0.376448    14A     -0.362593    15A     -0.333416
      16A     -0.332827

    Beta Virtual:

      17A     -0.025743    18A      0.077079    19A      0.134960
      20A      0.135116    21A      0.144432    22A      0.144576
      23A      0.163334    24A      0.182135    25A      0.182768
      26A      0.215035    27A      0.218929    28A      0.282213
      29A      0.282454    30A      0.400259    31A      0.400537
      32A      0.419788    33A      0.426811    34A      0.427007
      35A      0.468500    36A      0.497574    37A      0.497727
      38A      0.513897    39A      0.556324    40A      0.584227
      41A      0.584502    42A      0.597531    43A      0.598079
      44A      0.610010    45A      0.628141    46A      0.631883
      47A      0.639214    48A      0.639906    49A      0.666759
      50A      0.667197    51A      0.686219    52A      0.686773
      53A      0.757518    54A      0.830147    55A      0.830994
      56A      0.855271    57A      0.922889    58A      0.923106
      59A      0.945967    60A      0.953539    61A      0.966377
      62A      0.966828    63A      1.008695    64A      1.131795
      65A      1.132483    66A      1.155580    67A      1.168235
      68A      1.168461    69A      1.232297    70A      1.279808
      71A      1.280360    72A      1.285109    73A      1.328935
      74A      1.329751    75A      1.365388    76A      1.370943
      77A      1.371658    78A      1.393497    79A      1.407042
      80A      1.407992    81A      1.421725    82A      1.422588
      83A      1.428194    84A      1.492541    85A      1.509529
      86A      1.547031    87A      1.547448    88A      1.581913
      89A      1.582735    90A      1.674636    91A      1.745047
      92A      1.745278    93A      1.779121    94A      1.833723
      95A      1.836855    96A      1.972560    97A      2.025019
      98A      2.025852    99A      2.039672   100A      2.058755
     101A      2.060016   102A      2.746357   103A      2.747286
     104A      2.811841   105A      2.816060   106A      2.901949
     107A      2.903313   108A      2.924651   109A      2.931768
     110A      2.932192   111A      2.960070   112A      2.968301
     113A      2.969558   114A      3.041955   115A      3.080855
     116A      3.081493   117A      3.086232   118A      3.184256
     119A      3.184739   120A      3.188342   121A      3.289908
     122A      3.290324   123A      3.330912   124A      3.331019
     125A      3.383431   126A      3.492094   127A      3.493682
     128A      3.512383   129A      3.528388   130A      3.574943
     131A      3.581673   132A      3.581849   133A      3.670219
     134A      3.671963   135A      3.692992   136A      3.725262
     137A      3.726251   138A      3.780781   139A      3.781906
     140A      3.817664   141A      3.921455   142A      3.922606
     143A      4.045324   144A      4.117574   145A      4.118653
     146A      4.153513   147A      4.157093   148A      4.187374
     149A      4.207400   150A      4.209125   151A      4.212033
     152A      4.215649   153A      4.322368   154A      4.324420
     155A      4.362306   156A      4.432025   157A      4.433120
     158A      4.446529   159A      4.524380   160A      4.524849
     161A      4.588414   162A      4.589372   163A      4.624720
     164A      4.719835   165A      4.781352   166A      4.781744
     167A      4.839798   168A      4.967660   169A      5.006392
     170A      5.007625   171A      5.233545   172A      5.244889
     173A      5.252295   174A      5.359073   175A      5.365083
     176A      5.481758

    Final Occupation by Irrep:
              A
    DOCC [    16 ]
    SOCC [     1 ]

  @DF-UKS Final Energy:  -157.81305573837346

   => Energetics <=

    Nuclear Repulsion Energy =            125.3946645842212746
    One-Electron Energy =                -458.7489556627260185
    Two-Electron Energy =                 195.8483829244593153
    DFT Exchange-Correlation Energy =     -20.3071475843280389
    Empirical Dispersion Energy =           0.0000000000000000
    VV10 Nonlocal Energy =                  0.0000000000000000
    Total Energy =                       -157.8130557383734640

  UHF NO Occupations:
  HONO-2 :   15  A 1.9996009
  HONO-1 :   16  A 1.9989805
  HONO-0 :   17  A 1.0000000
  LUNO+0 :   18  A 0.0010195
  LUNO+1 :   19  A 0.0003991
  LUNO+2 :   20  A 0.0001980
  LUNO+3 :   21  A 0.0001971

Computation Completed

Properties will be evaluated at   0.000000,   0.000000,   0.000000 [a0]

Properties computed using the SCF density matrix

  Nuclear Dipole Moment: [e a0]
     X:     0.8272      Y:    -0.0031      Z:    -0.0025

  Electronic Dipole Moment: [e a0]
     X:    -0.7493      Y:     0.0030      Z:     0.0049

  Dipole Moment: [e a0]
     X:     0.0779      Y:    -0.0000      Z:     0.0024     Total:     0.0780

  Dipole Moment: [D]
     X:     0.1980      Y:    -0.0001      Z:     0.0062     Total:     0.1981

*** tstop() called on n089 at Fri Nov  5 11:51:58 2021
Module time:
	user time   =     514.57 seconds =       8.58 minutes
	system time =       4.70 seconds =       0.08 minutes
	total time  =        131 seconds =       2.18 minutes
Total time:
	user time   =     514.57 seconds =       8.58 minutes
	system time =       4.70 seconds =       0.08 minutes
	total time  =        131 seconds =       2.18 minutes
Grab this energy -157.81305573837346
    Psi4 stopped on: Friday, 05 November 2021 11:51AM
    Psi4 wall time for execution: 0:02:10.54

*** Psi4 exiting successfully. Buy a developer a beer!
