                               Psi4 1.4a2.dev629

  ==> Input File <==

--------------------------------------------------------------------------
import os
memory 14 GB

molecule {
 C   -0.3265086724    0.0002544582    0.0000000000
 C    0.0608399461   -1.4015395952   -2.4261998853
 C    0.0576458806    2.8019474158   -0.0000000000
 C    0.0608399461   -1.4015395952    2.4261998853
 H    2.0871692856   -1.6440540821   -2.8477725090
 H   -0.7645816783   -0.3876908080   -4.0254502892
 H   -0.7649847279   -3.2920245048   -2.3487280763
 H    2.0873352721    3.2883571367    0.0000000000
 H   -0.7639830040    3.6800173279    1.6771072926
 H   -0.7639830040    3.6800173279   -1.6771072926
 H    2.0871692856   -1.6440540821    2.8477725090
 H   -0.7649847279   -3.2920245048    2.3487280763
 H   -0.7645816783   -0.3876908080    4.0254502892
units bohr
0 2
}

basis {

assign 6-31g_2dfp_

[ 6-31g_2dfp_ ]

spherical

!----------------------------------------------------------------------
! Basis Set Exchange
! Version v0.8.13
! https://www.basissetexchange.org
!----------------------------------------------------------------------
!   Basis set: 6-31G(2df,p)
! Description: 6-31G(2df,p)
!        Role: orbital
!     Version: 0  (Data from the original Basis Set Exchange)
!----------------------------------------------------------------------

****
H     0
S    3   1.00
     18.7311370              0.03349460
      2.8253937              0.23472695
      0.6401217              0.81375733
S    1   1.00
      0.1612778              1.00000000
P    1   1.00
      1.5000000              1.0000000
P    1   1.00
      0.3750000              1.0000000
****
B     0
S    6   1.00
   2068.8823000              0.0018663
    310.6495700              0.0142515
     70.6830330              0.0695516
     19.8610800              0.2325729
      6.2993048              0.4670787
      2.1270270              0.3634314
SP   3   1.00
      4.7279710             -0.1303938              0.0745976
      1.1903377             -0.1307889              0.3078467
      0.3594117              1.1309444              0.7434568
SP   1   1.00
      0.1267512              1.0000000              1.0000000
D    1   1.00
      0.8020000              1.0000000
D    1   1.00
      0.2005000              1.0000000
F    1   1.00
      0.5000000              1.0000000
****
C     0
S    6   1.00
   3047.5249000              0.0018347
    457.3695100              0.0140373
    103.9486900              0.0688426
     29.2101550              0.2321844
      9.2866630              0.4679413
      3.1639270              0.3623120
SP   3   1.00
      7.8682724             -0.1193324              0.0689991
      1.8812885             -0.1608542              0.3164240
      0.5442493              1.1434564              0.7443083
SP   1   1.00
      0.1687144              1.0000000              1.0000000
D    1   1.00
      1.2520000              1.0000000
D    1   1.00
      0.3130000              1.0000000
F    1   1.00
      0.8000000              1.0000000
****
N     0
S    6   1.00
   4173.5110000              0.0018348
    627.4579000              0.0139950
    142.9021000              0.0685870
     40.2343300              0.2322410
     12.8202100              0.4690700
      4.3904370              0.3604550
SP   3   1.00
     11.6263580             -0.1149610              0.0675800
      2.7162800             -0.1691180              0.3239070
      0.7722180              1.1458520              0.7408950
SP   1   1.00
      0.2120313              1.0000000              1.0000000
D    1   1.00
      1.8260000              1.0000000
D    1   1.00
      0.4565000              1.0000000
F    1   1.00
      1.0000000              1.0000000
****
O     0
S    6   1.00
   5484.6717000              0.0018311
    825.2349500              0.0139501
    188.0469600              0.0684451
     52.9645000              0.2327143
     16.8975700              0.4701930
      5.7996353              0.3585209
SP   3   1.00
     15.5396160             -0.1107775              0.0708743
      3.5999336             -0.1480263              0.3397528
      1.0137618              1.1307670              0.7271586
SP   1   1.00
      0.2700058              1.0000000              1.0000000
D    1   1.00
      2.5840000              1.0000000
D    1   1.00
      0.6460000              1.0000000
F    1   1.00
      1.4000000              1.0000000
****
F     0
S    6   1.00
   7001.7130900              0.0018196169
   1051.3660900              0.0139160796
    239.2856900              0.0684053245
     67.3974453              0.233185760
     21.5199573              0.471267439
      7.40310130             0.356618546
SP   3   1.00
     20.8479528             -0.108506975            0.0716287243
      4.80830834            -0.146451658            0.3459121030
      1.34406986             1.128688580            0.7224699570
SP   1   1.00
      0.358151393            1.0000000              1.0000000
D    1   1.00
      3.5000000              1.0000000
D    1   1.00
      0.8750000              1.0000000
F    1   1.00
      1.8500000              1.0000000
****
Al     0
S    6   1.00
  13983.1000000              0.00194267
   2098.7500000              0.0148599
    477.7050000              0.0728494
    134.3600000              0.2468300
     42.8709000              0.4872580
     14.5189000              0.3234960
SP   6   1.00
    239.6680000             -0.00292619             0.00460285
     57.4419000             -0.0374080              0.0331990
     18.2859000             -0.1144870              0.1362820
      6.5991400              0.1156350              0.3304760
      2.4904900              0.6125950              0.4491460
      0.9445400              0.3937990              0.2657040
SP   3   1.00
      1.2779000             -0.2276060             -0.0175130
      0.3975900              0.00144583             0.2445330
      0.1600950              1.0927900              0.8049340
SP   1   1.00
      0.0556577              1.0000000              1.0000000
D    1   1.00
      0.6500000              1.0000000
D    1   1.00
      0.1625000              1.0000000
F    1   1.00
      0.2500000              1.0000000
****
Si     0
S    6   1.00
  16115.9000000              0.00195948
   2425.5800000              0.01492880
    553.8670000              0.07284780
    156.3400000              0.24613000
     50.0683000              0.48591400
     17.0178000              0.32500200
SP   6   1.00
    292.7180000             -0.00278094             0.00443826
     69.8731000             -0.03571460             0.03266790
     22.3363000             -0.11498500             0.13472100
      8.1503900              0.09356340             0.32867800
      3.1345800              0.60301700             0.44964000
      1.2254300              0.41895900             0.26137200
SP   3   1.00
      1.7273800             -0.24463000            -0.01779510
      0.5729220              0.00431572             0.25353900
      0.2221920              1.09818000             0.80066900
SP   1   1.00
      0.0778369              1.00000000             1.00000000
D    1   1.00
      0.9000000              1.0000000
D    1   1.00
      0.2250000              1.0000000
F    1   1.00
      0.3200000              1.0000000
****
P     0
S    6   1.00
  19413.3000000              0.0018516
   2909.4200000              0.0142062
    661.3640000              0.0699995
    185.7590000              0.2400790
     59.1943000              0.4847620
     20.0310000              0.3352000
SP   6   1.00
    339.4780000             -0.00278217             0.00456462
     81.0101000             -0.0360499              0.03369360
     25.8780000             -0.1166310              0.13975500
      9.4522100              0.0968328              0.33936200
      3.6656600              0.6144180              0.45092100
      1.4674600              0.4037980              0.23858600
SP   3   1.00
      2.1562300             -0.2529230             -0.01776530
      0.7489970              0.0328517              0.27405800
      0.2831450              1.0812500              0.78542100
SP   1   1.00
      0.0998317              1.0000000              1.00000000
D    1   1.00
      1.1000000              1.0000000
D    1   1.00
      0.2750000              1.0000000
F    1   1.00
      0.4500000              1.0000000
****
S     0
S    6   1.00
  21917.1000000              0.0018690
   3301.4900000              0.0142300
    754.1460000              0.0696960
    212.7110000              0.2384870
     67.9896000              0.4833070
     23.0515000              0.3380740
SP   6   1.00
    423.7350000             -0.0023767              0.0040610
    100.7100000             -0.0316930              0.0306810
     32.1599000             -0.1133170              0.1304520
     11.8079000              0.0560900              0.3272050
      4.6311000              0.5922550              0.4528510
      1.8702500              0.4550060              0.2560420
SP   3   1.00
      2.6158400             -0.2503740             -0.0145110
      0.9221670              0.0669570              0.3102630
      0.3412870              1.0545100              0.7544830
SP   1   1.00
      0.1171670              1.0000000              1.0000000
D    1   1.00
      1.3000000              1.0000000
D    1   1.00
      0.3250000              1.0000000
F    1   1.00
      0.5500000              1.0000000
****
Cl     0
S    6   1.00
  25180.1000000              0.0018330
   3780.3500000              0.0140340
    860.4740000              0.0690970
    242.1450000              0.2374520
     77.3349000              0.4830340
     26.2470000              0.3398560
SP   6   1.00
    491.7650000             -0.0022974              0.0039894
    116.9840000             -0.0307140              0.0303180
     37.4153000             -0.1125280              0.1298800
     13.7834000              0.0450160              0.3279510
      5.4521500              0.5893530              0.4535270
      2.2258800              0.4652060              0.2521540
SP   3   1.00
      3.1864900             -0.2518300             -0.0142990
      1.1442700              0.0615890              0.3235720
      0.4203770              1.0601800              0.7435070
SP   1   1.00
      0.1426570              1.0000000              1.0000000
D    1   1.00
      1.5000000              1.0000000
D    1   1.00
      0.3750000              1.0000000
F    1   1.00
      0.7000000              1.0000000
****
}

set {
reference uhf
freeze_core true
e_convergence 10
d_convergence 10
dft_spherical_points 1202
dft_radial_points 99
}

e = energy('b3lyp')

print_out('Grab this energy {0}'.format(e))
--------------------------------------------------------------------------

    Molecular point group: cs

    Geometry (in Bohr), charge = 0, multiplicity = 2:

       Center              X                  Y                   Z               Mass
    ------------   -----------------  -----------------  -----------------  -----------------
         C           -0.325132895570     0.000423865021     0.000000000000    12.000000000000
         C            0.062215722930    -1.401370188379    -2.426199885300    12.000000000000
         C            0.059021657430     2.802116822621     0.000000000000    12.000000000000
         C            0.062215722930    -1.401370188379     2.426199885300    12.000000000000
         H            2.088545062430    -1.643884675279    -2.847772509000     1.007825032230
         H           -0.763205901470    -0.387521401179    -4.025450289200     1.007825032230
         H           -0.763608951070    -3.291855097979    -2.348728076300     1.007825032230
         H            2.088711048930     3.288526543521     0.000000000000     1.007825032230
         H           -0.762607227170     3.680186734721     1.677107292600     1.007825032230
         H           -0.762607227170     3.680186734721    -1.677107292600     1.007825032230
         H            2.088545062430    -1.643884675279     2.847772509000     1.007825032230
         H           -0.763608951070    -3.291855097979     2.348728076300     1.007825032230
         H           -0.763205901470    -0.387521401179     4.025450289200     1.007825032230

  Charge       = 0
  Multiplicity = 2
  Basis Set: ANONYMOUS64FF109E
    Blend: 6-31G_2DFP_
  Basis Set: (ANONYMOUS64FF109E AUX)
    Blend: DEF2-UNIVERSAL-JKFIT

    Orbital Energies [Eh]
    ---------------------

    Alpha Occupied:

       1Ap   -10.180455     2Ap   -10.167078     1App  -10.167037
       3Ap   -10.167000     4Ap    -0.797712     5Ap    -0.686208
       2App   -0.686141     6Ap    -0.530797     7Ap    -0.440890
       3App   -0.434918     8Ap    -0.434713     4App   -0.382502
       9Ap    -0.382201     5App   -0.363893    10Ap    -0.338133
       6App   -0.337961    11Ap    -0.169077

    Alpha Virtual:

      12Ap     0.076089    13Ap     0.134127     7App    0.134195
      14Ap     0.142648     8App    0.142774    15Ap     0.154814
      16Ap     0.178561     9App    0.178788    17Ap     0.203501
      10App    0.214934    11App    0.275791    18Ap     0.275902
      12App    0.399056    19Ap     0.399363    20Ap     0.403306
      13App    0.424043    21Ap     0.424138    22Ap     0.456589
      14App    0.495413    23Ap     0.495469    15App    0.512057
      24Ap     0.513982    25Ap     0.578817    16App    0.578999
      26Ap     0.591209    17App    0.591448    27Ap     0.602262
      28Ap     0.624904    18App    0.631917    29Ap     0.636272
      19App    0.636484    30Ap     0.663073    20App    0.663409
      21App    0.683728    31Ap     0.684023    32Ap     0.734866
      22App    0.825217    33Ap     0.825248    23App    0.853963
      34Ap     0.914844    24App    0.914879    25App    0.944023
      35Ap     0.944594    36Ap     0.961312    26App    0.961453
      37Ap     1.004333    38Ap     1.128213    27App    1.128450
      39Ap     1.141848    40Ap     1.163038    28App    1.163226
      41Ap     1.222902    42Ap     1.274058    29App    1.274350
      43Ap     1.279206    44Ap     1.324217    30App    1.324719
      45Ap     1.354958    31App    1.366095    46Ap     1.366709
      32App    1.392528    47Ap     1.403299    33App    1.403556
      48Ap     1.416226    34App    1.416793    35App    1.427731
      36App    1.491959    49Ap     1.498578    50Ap     1.543155
      37App    1.543261    38App    1.574380    51Ap     1.574712
      52Ap     1.670361    53Ap     1.738792    39App    1.739619
      54Ap     1.768113    40App    1.831522    55Ap     1.831920
      41App    1.972287    56Ap     2.017824    57Ap     2.018326
      42App    2.019360    58Ap     2.051901    43App    2.052631
      59Ap     2.738115    44App    2.738192    60Ap     2.790707
      45App    2.811701    46App    2.889509    61Ap     2.890044
      62Ap     2.894979    47App    2.929626    63Ap     2.929672
      48App    2.959162    64Ap     2.964229    49App    2.964454
      65Ap     3.033969    50App    3.070533    66Ap     3.070791
      51App    3.084420    67Ap     3.168640    52App    3.168890
      68Ap     3.180778    69Ap     3.285634    53App    3.285697
      70Ap     3.327932    54App    3.328258    71Ap     3.375320
      55App    3.489661    72Ap     3.490302    56App    3.513558
      73Ap     3.525487    74Ap     3.567866    57App    3.568063
      58App    3.574693    75Ap     3.666092    59App    3.666678
      76Ap     3.680680    60App    3.693816    77Ap     3.693853
      78Ap     3.775872    61App    3.775983    79Ap     3.787798
      62App    3.912247    80Ap     3.912404    81Ap     4.033284
      63App    4.111662    82Ap     4.111842    64App    4.148296
      83Ap     4.148409    84Ap     4.173101    85Ap     4.202064
      86Ap     4.202778    65App    4.202921    66App    4.210743
      67App    4.315326    87Ap     4.316171    68App    4.359081
      69App    4.423698    88Ap     4.423940    70App    4.444310
      89Ap     4.515927    71App    4.518041    72App    4.578158
      90Ap     4.578593    91Ap     4.616658    92Ap     4.709033
      93Ap     4.773835    73App    4.774857    74App    4.836676
      94Ap     4.962924    95Ap     5.001782    75App    5.002689
      96Ap     5.227984    97Ap     5.246803    76App    5.246839
      77App    5.355688    98Ap     5.356229    78App    5.478833

    Beta Occupied:

       1Ap   -10.167834     1App  -10.167789     2Ap   -10.167771
       3Ap   -10.166634     4Ap    -0.781053     5Ap    -0.684014
       2App   -0.683947     6Ap    -0.511773     3App   -0.431305
       7Ap    -0.431093     8Ap    -0.421579     4App   -0.376584
       9Ap    -0.376265     5App   -0.362879    10Ap    -0.333255
       6App   -0.333080

    Beta Virtual:

      11Ap    -0.025891    12Ap     0.077100    13Ap     0.135059
       7App    0.135108    14Ap     0.144513     8App    0.144631
      15Ap     0.163304    16Ap     0.182220     9App    0.182451
      10App    0.215160    17Ap     0.218862    11App    0.282153
      18Ap     0.282259    12App    0.400228    19Ap     0.400541
      20Ap     0.419809    13App    0.426848    21Ap     0.426949
      22Ap     0.468433    14App    0.497677    23Ap     0.497726
      15App    0.513796    24Ap     0.556281    25Ap     0.584363
      16App    0.584534    26Ap     0.597400    17App    0.597649
      27Ap     0.609711    28Ap     0.628246    18App    0.632072
      29Ap     0.639541    19App    0.639754    30Ap     0.666679
      20App    0.666985    21App    0.686358    31Ap     0.686659
      32Ap     0.757395    22App    0.830409    33Ap     0.830434
      23App    0.855319    34Ap     0.922821    24App    0.922852
      25App    0.945859    35Ap     0.953489    36Ap     0.966593
      26App    0.966748    37Ap     1.009621    38Ap     1.132098
      27App    1.132410    39Ap     1.155239    40Ap     1.168220
      28App    1.168311    41Ap     1.231867    42Ap     1.279668
      29App    1.279969    43Ap     1.284951    44Ap     1.329255
      30App    1.329777    45Ap     1.364356    31App    1.371341
      46Ap     1.371956    32App    1.393596    47Ap     1.406734
      33App    1.407016    48Ap     1.421277    34App    1.421812
      35App    1.427981    36App    1.493011    49Ap     1.509001
      37App    1.547706    50Ap     1.547743    38App    1.582202
      51Ap     1.582425    52Ap     1.675193    53Ap     1.744571
      39App    1.745382    54Ap     1.778899    40App    1.835370
      55Ap     1.835769    41App    1.973144    56Ap     2.024461
      42App    2.025746    57Ap     2.039434    58Ap     2.058663
      43App    2.059342    59Ap     2.746459    44App    2.746525
      45App    2.812112    60Ap     2.815791    46App    2.902220
      61Ap     2.902740    62Ap     2.924604    47App    2.932083
      63Ap     2.932122    48App    2.960225    64Ap     2.968793
      49App    2.969009    65Ap     3.041944    50App    3.080467
      66Ap     3.080718    51App    3.086250    67Ap     3.184331
      52App    3.184546    68Ap     3.188524    69Ap     3.290398
      53App    3.290444    70Ap     3.331739    54App    3.332090
      71Ap     3.383099    55App    3.492400    72Ap     3.493039
      56App    3.511924    73Ap     3.528496    57App    3.574543
      74Ap     3.581339    58App    3.581410    75Ap     3.670824
      59App    3.671300    76Ap     3.693956    77Ap     3.725354
      60App    3.725636    78Ap     3.780451    61App    3.780534
      79Ap     3.816371    62App    3.922051    80Ap     3.922238
      81Ap     4.044183    63App    4.118507    82Ap     4.118582
      64App    4.155475    83Ap     4.155678    84Ap     4.187193
      85Ap     4.208459    65App    4.208858    86Ap     4.210271
      66App    4.215250    67App    4.322728    87Ap     4.323624
      68App    4.362458    69App    4.431980    88Ap     4.432205
      70App    4.447163    89Ap     4.523724    71App    4.525832
      72App    4.588750    90Ap     4.589157    91Ap     4.623778
      92Ap     4.719467    93Ap     4.780784    73App    4.781767
      74App    4.839591    94Ap     4.967735    95Ap     5.005851
      75App    5.006723    96Ap     5.233669    97Ap     5.248577
      76App    5.248614    77App    5.362153    98Ap     5.362690
      78App    5.481153

    Final Occupation by Irrep:
             Ap   App
    DOCC [    10,    6 ]
    SOCC [     1,    0 ]

  @DF-UKS Final Energy:  -157.81306472165892

   => Energetics <=

    Nuclear Repulsion Energy =            125.3858678109467633
    One-Electron Energy =                -458.7312997012904248
    Two-Electron Energy =                 195.8392543756315263
    DFT Exchange-Correlation Energy =     -20.3068872069467794
    Empirical Dispersion Energy =           0.0000000000000000
    VV10 Nonlocal Energy =                  0.0000000000000000
    Total Energy =                       -157.8130647216589182

  UHF NO Occupations:
  HONO-2 :    9 Ap 1.9995999
  HONO-1 :   10 Ap 1.9989813
  HONO-0 :   11 Ap 1.0000000
  LUNO+0 :   12 Ap 0.0010187
  LUNO+1 :   13 Ap 0.0004001
  LUNO+2 :    7App 0.0001977
  LUNO+3 :   14 Ap 0.0001975

Computation Completed

Properties will be evaluated at   0.000000,   0.000000,   0.000000 [a0]

Properties computed using the SCF density matrix

  Nuclear Dipole Moment: [e a0]
     X:     0.8369      Y:     0.0012      Z:    -0.0000

  Electronic Dipole Moment: [e a0]
     X:    -0.7591      Y:    -0.0011      Z:     0.0000

  Dipole Moment: [e a0]
     X:     0.0778      Y:     0.0001      Z:    -0.0000     Total:     0.0778

  Dipole Moment: [D]
     X:     0.1977      Y:     0.0003      Z:    -0.0000     Total:     0.1977

*** tstop() called on n041 at Fri Nov  5 12:30:45 2021
Module time:
	user time   =     632.13 seconds =      10.54 minutes
	system time =      11.95 seconds =       0.20 minutes
	total time  =        162 seconds =       2.70 minutes
Total time:
	user time   =     632.13 seconds =      10.54 minutes
	system time =      11.95 seconds =       0.20 minutes
	total time  =        162 seconds =       2.70 minutes
Grab this energy -157.81306472165892
    Psi4 stopped on: Friday, 05 November 2021 12:30PM
    Psi4 wall time for execution: 0:02:41.94

*** Psi4 exiting successfully. Buy a developer a beer!
