                               Psi4 1.4a2.dev629

  ==> Input File <==

--------------------------------------------------------------------------
import os
memory 14 GB

molecule {
 C   -0.3233308882   -0.0050081605   -0.0010219215
 C    0.0614889519   -1.3987961108   -2.4317494059
 C    0.0616258295    2.7938382695    0.0018035694
 C    0.0601883945   -1.3975677260    2.4332341957
 H    2.0864756950   -1.6377607599   -2.8564624568
 H   -0.7684394200   -0.3797216387   -4.0273815231
 H   -0.7639635298   -3.2901195755   -2.3623439608
 H    2.0875769449    3.2789391682   -0.0007001282
 H   -0.7647321781    3.6724062087    1.6760282999
 H   -0.7644425639    3.6722328442   -1.6765830117
 H    2.0866156603   -1.6382863982    2.8559663989
 H   -0.7634563108   -3.2903859945    2.3619271672
 H   -0.7682144620   -0.3797944402    4.0272827768
units bohr
0 2
}

basis {

assign 6-31g_2dfp_

[ 6-31g_2dfp_ ]

spherical

!----------------------------------------------------------------------
! Basis Set Exchange
! Version v0.8.13
! https://www.basissetexchange.org
!----------------------------------------------------------------------
!   Basis set: 6-31G(2df,p)
! Description: 6-31G(2df,p)
!        Role: orbital
!     Version: 0  (Data from the original Basis Set Exchange)
!----------------------------------------------------------------------

****
H     0
S    3   1.00
     18.7311370              0.03349460
      2.8253937              0.23472695
      0.6401217              0.81375733
S    1   1.00
      0.1612778              1.00000000
P    1   1.00
      1.5000000              1.0000000
P    1   1.00
      0.3750000              1.0000000
****
B     0
S    6   1.00
   2068.8823000              0.0018663
    310.6495700              0.0142515
     70.6830330              0.0695516
     19.8610800              0.2325729
      6.2993048              0.4670787
      2.1270270              0.3634314
SP   3   1.00
      4.7279710             -0.1303938              0.0745976
      1.1903377             -0.1307889              0.3078467
      0.3594117              1.1309444              0.7434568
SP   1   1.00
      0.1267512              1.0000000              1.0000000
D    1   1.00
      0.8020000              1.0000000
D    1   1.00
      0.2005000              1.0000000
F    1   1.00
      0.5000000              1.0000000
****
C     0
S    6   1.00
   3047.5249000              0.0018347
    457.3695100              0.0140373
    103.9486900              0.0688426
     29.2101550              0.2321844
      9.2866630              0.4679413
      3.1639270              0.3623120
SP   3   1.00
      7.8682724             -0.1193324              0.0689991
      1.8812885             -0.1608542              0.3164240
      0.5442493              1.1434564              0.7443083
SP   1   1.00
      0.1687144              1.0000000              1.0000000
D    1   1.00
      1.2520000              1.0000000
D    1   1.00
      0.3130000              1.0000000
F    1   1.00
      0.8000000              1.0000000
****
N     0
S    6   1.00
   4173.5110000              0.0018348
    627.4579000              0.0139950
    142.9021000              0.0685870
     40.2343300              0.2322410
     12.8202100              0.4690700
      4.3904370              0.3604550
SP   3   1.00
     11.6263580             -0.1149610              0.0675800
      2.7162800             -0.1691180              0.3239070
      0.7722180              1.1458520              0.7408950
SP   1   1.00
      0.2120313              1.0000000              1.0000000
D    1   1.00
      1.8260000              1.0000000
D    1   1.00
      0.4565000              1.0000000
F    1   1.00
      1.0000000              1.0000000
****
O     0
S    6   1.00
   5484.6717000              0.0018311
    825.2349500              0.0139501
    188.0469600              0.0684451
     52.9645000              0.2327143
     16.8975700              0.4701930
      5.7996353              0.3585209
SP   3   1.00
     15.5396160             -0.1107775              0.0708743
      3.5999336             -0.1480263              0.3397528
      1.0137618              1.1307670              0.7271586
SP   1   1.00
      0.2700058              1.0000000              1.0000000
D    1   1.00
      2.5840000              1.0000000
D    1   1.00
      0.6460000              1.0000000
F    1   1.00
      1.4000000              1.0000000
****
F     0
S    6   1.00
   7001.7130900              0.0018196169
   1051.3660900              0.0139160796
    239.2856900              0.0684053245
     67.3974453              0.233185760
     21.5199573              0.471267439
      7.40310130             0.356618546
SP   3   1.00
     20.8479528             -0.108506975            0.0716287243
      4.80830834            -0.146451658            0.3459121030
      1.34406986             1.128688580            0.7224699570
SP   1   1.00
      0.358151393            1.0000000              1.0000000
D    1   1.00
      3.5000000              1.0000000
D    1   1.00
      0.8750000              1.0000000
F    1   1.00
      1.8500000              1.0000000
****
Al     0
S    6   1.00
  13983.1000000              0.00194267
   2098.7500000              0.0148599
    477.7050000              0.0728494
    134.3600000              0.2468300
     42.8709000              0.4872580
     14.5189000              0.3234960
SP   6   1.00
    239.6680000             -0.00292619             0.00460285
     57.4419000             -0.0374080              0.0331990
     18.2859000             -0.1144870              0.1362820
      6.5991400              0.1156350              0.3304760
      2.4904900              0.6125950              0.4491460
      0.9445400              0.3937990              0.2657040
SP   3   1.00
      1.2779000             -0.2276060             -0.0175130
      0.3975900              0.00144583             0.2445330
      0.1600950              1.0927900              0.8049340
SP   1   1.00
      0.0556577              1.0000000              1.0000000
D    1   1.00
      0.6500000              1.0000000
D    1   1.00
      0.1625000              1.0000000
F    1   1.00
      0.2500000              1.0000000
****
Si     0
S    6   1.00
  16115.9000000              0.00195948
   2425.5800000              0.01492880
    553.8670000              0.07284780
    156.3400000              0.24613000
     50.0683000              0.48591400
     17.0178000              0.32500200
SP   6   1.00
    292.7180000             -0.00278094             0.00443826
     69.8731000             -0.03571460             0.03266790
     22.3363000             -0.11498500             0.13472100
      8.1503900              0.09356340             0.32867800
      3.1345800              0.60301700             0.44964000
      1.2254300              0.41895900             0.26137200
SP   3   1.00
      1.7273800             -0.24463000            -0.01779510
      0.5729220              0.00431572             0.25353900
      0.2221920              1.09818000             0.80066900
SP   1   1.00
      0.0778369              1.00000000             1.00000000
D    1   1.00
      0.9000000              1.0000000
D    1   1.00
      0.2250000              1.0000000
F    1   1.00
      0.3200000              1.0000000
****
P     0
S    6   1.00
  19413.3000000              0.0018516
   2909.4200000              0.0142062
    661.3640000              0.0699995
    185.7590000              0.2400790
     59.1943000              0.4847620
     20.0310000              0.3352000
SP   6   1.00
    339.4780000             -0.00278217             0.00456462
     81.0101000             -0.0360499              0.03369360
     25.8780000             -0.1166310              0.13975500
      9.4522100              0.0968328              0.33936200
      3.6656600              0.6144180              0.45092100
      1.4674600              0.4037980              0.23858600
SP   3   1.00
      2.1562300             -0.2529230             -0.01776530
      0.7489970              0.0328517              0.27405800
      0.2831450              1.0812500              0.78542100
SP   1   1.00
      0.0998317              1.0000000              1.00000000
D    1   1.00
      1.1000000              1.0000000
D    1   1.00
      0.2750000              1.0000000
F    1   1.00
      0.4500000              1.0000000
****
S     0
S    6   1.00
  21917.1000000              0.0018690
   3301.4900000              0.0142300
    754.1460000              0.0696960
    212.7110000              0.2384870
     67.9896000              0.4833070
     23.0515000              0.3380740
SP   6   1.00
    423.7350000             -0.0023767              0.0040610
    100.7100000             -0.0316930              0.0306810
     32.1599000             -0.1133170              0.1304520
     11.8079000              0.0560900              0.3272050
      4.6311000              0.5922550              0.4528510
      1.8702500              0.4550060              0.2560420
SP   3   1.00
      2.6158400             -0.2503740             -0.0145110
      0.9221670              0.0669570              0.3102630
      0.3412870              1.0545100              0.7544830
SP   1   1.00
      0.1171670              1.0000000              1.0000000
D    1   1.00
      1.3000000              1.0000000
D    1   1.00
      0.3250000              1.0000000
F    1   1.00
      0.5500000              1.0000000
****
Cl     0
S    6   1.00
  25180.1000000              0.0018330
   3780.3500000              0.0140340
    860.4740000              0.0690970
    242.1450000              0.2374520
     77.3349000              0.4830340
     26.2470000              0.3398560
SP   6   1.00
    491.7650000             -0.0022974              0.0039894
    116.9840000             -0.0307140              0.0303180
     37.4153000             -0.1125280              0.1298800
     13.7834000              0.0450160              0.3279510
      5.4521500              0.5893530              0.4535270
      2.2258800              0.4652060              0.2521540
SP   3   1.00
      3.1864900             -0.2518300             -0.0142990
      1.1442700              0.0615890              0.3235720
      0.4203770              1.0601800              0.7435070
SP   1   1.00
      0.1426570              1.0000000              1.0000000
D    1   1.00
      1.5000000              1.0000000
D    1   1.00
      0.3750000              1.0000000
F    1   1.00
      0.7000000              1.0000000
****
}

set {
reference uhf
freeze_core true
e_convergence 10
d_convergence 10
dft_spherical_points 1202
dft_radial_points 99
}

e = energy('b3lyp')

print_out('Grab this energy {0}'.format(e))
--------------------------------------------------------------------------

    Molecular point group: c1

    Geometry (in Bohr), charge = 0, multiplicity = 2:

       Center              X                  Y                   Z               Mass
    ------------   -----------------  -----------------  -----------------  -----------------
         C           -0.323333251980    -0.003556680900    -0.001458453724    12.000000000000
         C            0.061486588120    -1.397344631200    -2.432185938124    12.000000000000
         C            0.061623465720     2.795289749100     0.001367037176    12.000000000000
         C            0.060186030720    -1.396116246400     2.432797663476    12.000000000000
         H            2.086473331220    -1.636309280300    -2.856898989024     1.007825032230
         H           -0.768441783780    -0.378270159100    -4.027818055324     1.007825032230
         H           -0.763965893580    -3.288668095900    -2.362780493024     1.007825032230
         H            2.087574581120     3.280390647800    -0.001136660424     1.007825032230
         H           -0.764734541880     3.673857688300     1.675591767676     1.007825032230
         H           -0.764444927680     3.673684323800    -1.677019543924     1.007825032230
         H            2.086613296520    -1.636834918600     2.855529866676     1.007825032230
         H           -0.763458674580    -3.288934514900     2.361490634976     1.007825032230
         H           -0.768216825780    -0.378342960600     4.026846244576     1.007825032230

  Charge       = 0
  Multiplicity = 2
  Basis Set: ANONYMOUS0BAFDFAA
    Blend: 6-31G_2DFP_
  Basis Set: (ANONYMOUS0BAFDFAA AUX)
    Blend: DEF2-UNIVERSAL-JKFIT

    Orbital Energies [Eh]
    ---------------------

    Alpha Occupied:

       1A    -10.180341     2A    -10.167202     3A    -10.167141
       4A    -10.166703     5A     -0.797769     6A     -0.686419
       7A     -0.685952     8A     -0.530777     9A     -0.441128
      10A     -0.434935    11A     -0.434406    12A     -0.382747
      13A     -0.382451    14A     -0.363609    15A     -0.338398
      16A     -0.337598    17A     -0.168961

    Alpha Virtual:

      18A      0.076072    19A      0.133913    20A      0.134397
      21A      0.142477    22A      0.142779    23A      0.154880
      24A      0.178550    25A      0.179007    26A      0.203544
      27A      0.214807    28A      0.275775    29A      0.276197
      30A      0.399045    31A      0.399345    32A      0.403415
      33A      0.423968    34A      0.424237    35A      0.456595
      36A      0.494984    37A      0.495786    38A      0.512171
      39A      0.513987    40A      0.578560    41A      0.579049
      42A      0.591609    43A      0.591666    44A      0.602574
      45A      0.624765    46A      0.631762    47A      0.636037
      48A      0.636472    49A      0.663179    50A      0.663647
      51A      0.683616    52A      0.684095    53A      0.734993
      54A      0.824578    55A      0.826224    56A      0.853915
      57A      0.914768    58A      0.915286    59A      0.944055
      60A      0.944514    61A      0.961134    62A      0.961654
      63A      1.003469    64A      1.126972    65A      1.129269
      66A      1.142205    67A      1.162792    68A      1.163745
      69A      1.223332    70A      1.273940    71A      1.275049
      72A      1.279356    73A      1.324256    74A      1.324454
      75A      1.355992    76A      1.365229    77A      1.366825
      78A      1.392411    79A      1.403260    80A      1.404928
      81A      1.416550    82A      1.417694    83A      1.427935
      84A      1.491434    85A      1.499066    86A      1.542455
      87A      1.543217    88A      1.572641    89A      1.576363
      90A      1.669811    91A      1.738347    92A      1.740441
      93A      1.768369    94A      1.830891    95A      1.831917
      96A      1.971720    97A      2.017438    98A      2.018401
      99A      2.020522   100A      2.050078   101A      2.055300
     102A      2.738216   103A      2.738754   104A      2.790921
     105A      2.811440   106A      2.889271   107A      2.890626
     108A      2.894942   109A      2.929255   110A      2.929733
     111A      2.958985   112A      2.963464   113A      2.965326
     114A      3.034012   115A      3.070248   116A      3.072298
     117A      3.084379   118A      3.168026   119A      3.169558
     120A      3.180578   121A      3.284565   122A      3.286048
     123A      3.326218   124A      3.328112   125A      3.375667
     126A      3.489612   127A      3.490628   128A      3.514036
     129A      3.525307   130A      3.567090   131A      3.569581
     132A      3.575341   133A      3.666151   134A      3.666597
     135A      3.679691   136A      3.693652   137A      3.694564
     138A      3.775874   139A      3.777651   140A      3.789281
     141A      3.910761   142A      3.913690   143A      4.034479
     144A      4.110000   145A      4.112768   146A      4.146447
     147A      4.149763   148A      4.173236   149A      4.201315
     150A      4.202674   151A      4.204785   152A      4.210937
     153A      4.315161   154A      4.316734   155A      4.358993
     156A      4.423855   157A      4.424895   158A      4.443577
     159A      4.516036   160A      4.517670   161A      4.577156
     162A      4.579381   163A      4.617531   164A      4.709450
     165A      4.773259   166A      4.775940   167A      4.836949
     168A      4.962859   169A      5.001920   170A      5.003995
     171A      5.228018   172A      5.246534   173A      5.247125
     174A      5.354799   175A      5.356205   176A      5.479333

    Beta Occupied:

       1A    -10.167958     2A    -10.167901     3A    -10.167467
       4A    -10.166518     5A     -0.781095     6A     -0.684225
       7A     -0.683752     8A     -0.511748     9A     -0.431316
      10A     -0.430770    11A     -0.421822    12A     -0.376843
      13A     -0.376525    14A     -0.362592    15A     -0.333523
      16A     -0.332718

    Beta Virtual:

      17A     -0.025743    18A      0.077081    19A      0.134791
      20A      0.135300    21A      0.144359    22A      0.144637
      23A      0.163339    24A      0.182215    25A      0.182685
      26A      0.215037    27A      0.218926    28A      0.282121
      29A      0.282547    30A      0.400239    31A      0.400549
      32A      0.419797    33A      0.426765    34A      0.427064
      35A      0.468506    36A      0.497241    37A      0.498054
      38A      0.513907    39A      0.556329    40A      0.584139
      41A      0.584572    42A      0.597772    43A      0.597859
      44A      0.609993    45A      0.628147    46A      0.631923
      47A      0.639304    48A      0.639772    49A      0.666717
      50A      0.667235    51A      0.686200    52A      0.686783
      53A      0.757516    54A      0.829735    55A      0.831402
      56A      0.855268    57A      0.922728    58A      0.923267
      59A      0.945914    60A      0.953427    61A      0.966414
      62A      0.966986    63A      1.008707    64A      1.131008
      65A      1.133293    66A      1.155569    67A      1.167839
      68A      1.168857    69A      1.232302    70A      1.279521
      71A      1.280661    72A      1.285111    73A      1.329226
      74A      1.329463    75A      1.365409    76A      1.370361
      77A      1.372172    78A      1.393474    79A      1.406757
      80A      1.408367    81A      1.421601    82A      1.422730
      83A      1.428212    84A      1.492486    85A      1.509509
      86A      1.546768    87A      1.547716    88A      1.580652
      89A      1.584097    90A      1.674658    91A      1.744114
      92A      1.746201    93A      1.779144    94A      1.834729
      95A      1.835790    96A      1.972583    97A      2.023906
      98A      2.026979    99A      2.039644   100A      2.056873
     101A      2.061940   102A      2.746508   103A      2.747134
     104A      2.811852   105A      2.816056   106A      2.901977
     107A      2.903295   108A      2.924644   109A      2.931760
     110A      2.932200   111A      2.960055   112A      2.968036
     113A      2.969834   114A      3.041947   115A      3.079956
     116A      3.082316   117A      3.086300   118A      3.183854
     119A      3.185185   120A      3.188290   121A      3.289441
     122A      3.290774   123A      3.330015   124A      3.331927
     125A      3.383483   126A      3.492339   127A      3.493353
     128A      3.512412   129A      3.528360   130A      3.574717
     131A      3.580900   132A      3.582930   133A      3.670809
     134A      3.671444   135A      3.692979   136A      3.725285
     137A      3.726183   138A      3.780452   139A      3.782198
     140A      3.817754   141A      3.920574   142A      3.923511
     143A      4.045366   144A      4.116820   145A      4.119576
     146A      4.153715   147A      4.156915   148A      4.187297
     149A      4.207227   150A      4.210471   151A      4.210904
     152A      4.215426   153A      4.322569   154A      4.324207
     155A      4.362355   156A      4.432071   157A      4.433050
     158A      4.446524   159A      4.523920   160A      4.525359
     161A      4.587685   162A      4.590054   163A      4.624724
     164A      4.719796   165A      4.780176   166A      4.782928
     167A      4.839868   168A      4.967652   169A      5.005959
     170A      5.008035   171A      5.233729   172A      5.248323
     173A      5.248909   174A      5.361261   175A      5.362704
     176A      5.481654

    Final Occupation by Irrep:
              A
    DOCC [    16 ]
    SOCC [     1 ]

  @DF-UKS Final Energy:  -157.81306260108190

   => Energetics <=

    Nuclear Repulsion Energy =            125.3948572346273096
    One-Electron Energy =                -458.7493625238823824
    Two-Electron Energy =                 195.8485883480127541
    DFT Exchange-Correlation Energy =     -20.3071456598395592
    Empirical Dispersion Energy =           0.0000000000000000
    VV10 Nonlocal Energy =                  0.0000000000000000
    Total Energy =                       -157.8130626010818958

  UHF NO Occupations:
  HONO-2 :   15  A 1.9996009
  HONO-1 :   16  A 1.9989804
  HONO-0 :   17  A 1.0000000
  LUNO+0 :   18  A 0.0010196
  LUNO+1 :   19  A 0.0003991
  LUNO+2 :   20  A 0.0001981
  LUNO+3 :   21  A 0.0001970

Computation Completed

Properties will be evaluated at   0.000000,   0.000000,   0.000000 [a0]

Properties computed using the SCF density matrix

  Nuclear Dipole Moment: [e a0]
     X:     0.8272      Y:     0.0102      Z:    -0.0031

  Electronic Dipole Moment: [e a0]
     X:    -0.7493      Y:    -0.0109      Z:     0.0030

  Dipole Moment: [e a0]
     X:     0.0779      Y:    -0.0007      Z:    -0.0001     Total:     0.0779

  Dipole Moment: [D]
     X:     0.1980      Y:    -0.0019      Z:    -0.0001     Total:     0.1981

*** tstop() called on n061 at Fri Nov  5 12:13:22 2021
Module time:
	user time   =     541.36 seconds =       9.02 minutes
	system time =      11.86 seconds =       0.20 minutes
	total time  =        139 seconds =       2.32 minutes
Total time:
	user time   =     541.36 seconds =       9.02 minutes
	system time =      11.86 seconds =       0.20 minutes
	total time  =        139 seconds =       2.32 minutes
Grab this energy -157.8130626010819
    Psi4 stopped on: Friday, 05 November 2021 12:13PM
    Psi4 wall time for execution: 0:02:19.12

*** Psi4 exiting successfully. Buy a developer a beer!
