                               Psi4 1.4a2.dev629

  ==> Input File <==

--------------------------------------------------------------------------
import os
memory 14 GB

molecule {
 C   -0.3233396326    0.0002222573   -0.0000004542
 C    0.0612245748   -1.4019198364   -2.4270889846
 C    0.0608533479    2.7994893894   -0.0009658486
 C    0.0612244216   -1.4002454661    2.4280546547
 H    2.0869772973   -1.6463202661   -2.8457647749
 H   -0.7678861734   -0.3867927013   -4.0265220521
 H   -0.7632182868   -3.2901861423   -2.3490552961
 H    2.0867147100    3.2887889834   -0.0026006056
 H   -0.7678786444    3.6814274058    1.6781056065
 H   -0.7631535358    3.6804038303   -1.6745811299
 H    2.0869786130   -1.6418128545    2.8483666292
 H   -0.7679434405   -3.2937430618    2.3481706397
 H   -0.7631611278   -0.3893358514    4.0238816159
units bohr
0 2
}

basis {

assign 6-31g_2dfp_

[ 6-31g_2dfp_ ]

spherical

!----------------------------------------------------------------------
! Basis Set Exchange
! Version v0.8.13
! https://www.basissetexchange.org
!----------------------------------------------------------------------
!   Basis set: 6-31G(2df,p)
! Description: 6-31G(2df,p)
!        Role: orbital
!     Version: 0  (Data from the original Basis Set Exchange)
!----------------------------------------------------------------------

****
H     0
S    3   1.00
     18.7311370              0.03349460
      2.8253937              0.23472695
      0.6401217              0.81375733
S    1   1.00
      0.1612778              1.00000000
P    1   1.00
      1.5000000              1.0000000
P    1   1.00
      0.3750000              1.0000000
****
B     0
S    6   1.00
   2068.8823000              0.0018663
    310.6495700              0.0142515
     70.6830330              0.0695516
     19.8610800              0.2325729
      6.2993048              0.4670787
      2.1270270              0.3634314
SP   3   1.00
      4.7279710             -0.1303938              0.0745976
      1.1903377             -0.1307889              0.3078467
      0.3594117              1.1309444              0.7434568
SP   1   1.00
      0.1267512              1.0000000              1.0000000
D    1   1.00
      0.8020000              1.0000000
D    1   1.00
      0.2005000              1.0000000
F    1   1.00
      0.5000000              1.0000000
****
C     0
S    6   1.00
   3047.5249000              0.0018347
    457.3695100              0.0140373
    103.9486900              0.0688426
     29.2101550              0.2321844
      9.2866630              0.4679413
      3.1639270              0.3623120
SP   3   1.00
      7.8682724             -0.1193324              0.0689991
      1.8812885             -0.1608542              0.3164240
      0.5442493              1.1434564              0.7443083
SP   1   1.00
      0.1687144              1.0000000              1.0000000
D    1   1.00
      1.2520000              1.0000000
D    1   1.00
      0.3130000              1.0000000
F    1   1.00
      0.8000000              1.0000000
****
N     0
S    6   1.00
   4173.5110000              0.0018348
    627.4579000              0.0139950
    142.9021000              0.0685870
     40.2343300              0.2322410
     12.8202100              0.4690700
      4.3904370              0.3604550
SP   3   1.00
     11.6263580             -0.1149610              0.0675800
      2.7162800             -0.1691180              0.3239070
      0.7722180              1.1458520              0.7408950
SP   1   1.00
      0.2120313              1.0000000              1.0000000
D    1   1.00
      1.8260000              1.0000000
D    1   1.00
      0.4565000              1.0000000
F    1   1.00
      1.0000000              1.0000000
****
O     0
S    6   1.00
   5484.6717000              0.0018311
    825.2349500              0.0139501
    188.0469600              0.0684451
     52.9645000              0.2327143
     16.8975700              0.4701930
      5.7996353              0.3585209
SP   3   1.00
     15.5396160             -0.1107775              0.0708743
      3.5999336             -0.1480263              0.3397528
      1.0137618              1.1307670              0.7271586
SP   1   1.00
      0.2700058              1.0000000              1.0000000
D    1   1.00
      2.5840000              1.0000000
D    1   1.00
      0.6460000              1.0000000
F    1   1.00
      1.4000000              1.0000000
****
F     0
S    6   1.00
   7001.7130900              0.0018196169
   1051.3660900              0.0139160796
    239.2856900              0.0684053245
     67.3974453              0.233185760
     21.5199573              0.471267439
      7.40310130             0.356618546
SP   3   1.00
     20.8479528             -0.108506975            0.0716287243
      4.80830834            -0.146451658            0.3459121030
      1.34406986             1.128688580            0.7224699570
SP   1   1.00
      0.358151393            1.0000000              1.0000000
D    1   1.00
      3.5000000              1.0000000
D    1   1.00
      0.8750000              1.0000000
F    1   1.00
      1.8500000              1.0000000
****
Al     0
S    6   1.00
  13983.1000000              0.00194267
   2098.7500000              0.0148599
    477.7050000              0.0728494
    134.3600000              0.2468300
     42.8709000              0.4872580
     14.5189000              0.3234960
SP   6   1.00
    239.6680000             -0.00292619             0.00460285
     57.4419000             -0.0374080              0.0331990
     18.2859000             -0.1144870              0.1362820
      6.5991400              0.1156350              0.3304760
      2.4904900              0.6125950              0.4491460
      0.9445400              0.3937990              0.2657040
SP   3   1.00
      1.2779000             -0.2276060             -0.0175130
      0.3975900              0.00144583             0.2445330
      0.1600950              1.0927900              0.8049340
SP   1   1.00
      0.0556577              1.0000000              1.0000000
D    1   1.00
      0.6500000              1.0000000
D    1   1.00
      0.1625000              1.0000000
F    1   1.00
      0.2500000              1.0000000
****
Si     0
S    6   1.00
  16115.9000000              0.00195948
   2425.5800000              0.01492880
    553.8670000              0.07284780
    156.3400000              0.24613000
     50.0683000              0.48591400
     17.0178000              0.32500200
SP   6   1.00
    292.7180000             -0.00278094             0.00443826
     69.8731000             -0.03571460             0.03266790
     22.3363000             -0.11498500             0.13472100
      8.1503900              0.09356340             0.32867800
      3.1345800              0.60301700             0.44964000
      1.2254300              0.41895900             0.26137200
SP   3   1.00
      1.7273800             -0.24463000            -0.01779510
      0.5729220              0.00431572             0.25353900
      0.2221920              1.09818000             0.80066900
SP   1   1.00
      0.0778369              1.00000000             1.00000000
D    1   1.00
      0.9000000              1.0000000
D    1   1.00
      0.2250000              1.0000000
F    1   1.00
      0.3200000              1.0000000
****
P     0
S    6   1.00
  19413.3000000              0.0018516
   2909.4200000              0.0142062
    661.3640000              0.0699995
    185.7590000              0.2400790
     59.1943000              0.4847620
     20.0310000              0.3352000
SP   6   1.00
    339.4780000             -0.00278217             0.00456462
     81.0101000             -0.0360499              0.03369360
     25.8780000             -0.1166310              0.13975500
      9.4522100              0.0968328              0.33936200
      3.6656600              0.6144180              0.45092100
      1.4674600              0.4037980              0.23858600
SP   3   1.00
      2.1562300             -0.2529230             -0.01776530
      0.7489970              0.0328517              0.27405800
      0.2831450              1.0812500              0.78542100
SP   1   1.00
      0.0998317              1.0000000              1.00000000
D    1   1.00
      1.1000000              1.0000000
D    1   1.00
      0.2750000              1.0000000
F    1   1.00
      0.4500000              1.0000000
****
S     0
S    6   1.00
  21917.1000000              0.0018690
   3301.4900000              0.0142300
    754.1460000              0.0696960
    212.7110000              0.2384870
     67.9896000              0.4833070
     23.0515000              0.3380740
SP   6   1.00
    423.7350000             -0.0023767              0.0040610
    100.7100000             -0.0316930              0.0306810
     32.1599000             -0.1133170              0.1304520
     11.8079000              0.0560900              0.3272050
      4.6311000              0.5922550              0.4528510
      1.8702500              0.4550060              0.2560420
SP   3   1.00
      2.6158400             -0.2503740             -0.0145110
      0.9221670              0.0669570              0.3102630
      0.3412870              1.0545100              0.7544830
SP   1   1.00
      0.1171670              1.0000000              1.0000000
D    1   1.00
      1.3000000              1.0000000
D    1   1.00
      0.3250000              1.0000000
F    1   1.00
      0.5500000              1.0000000
****
Cl     0
S    6   1.00
  25180.1000000              0.0018330
   3780.3500000              0.0140340
    860.4740000              0.0690970
    242.1450000              0.2374520
     77.3349000              0.4830340
     26.2470000              0.3398560
SP   6   1.00
    491.7650000             -0.0022974              0.0039894
    116.9840000             -0.0307140              0.0303180
     37.4153000             -0.1125280              0.1298800
     13.7834000              0.0450160              0.3279510
      5.4521500              0.5893530              0.4535270
      2.2258800              0.4652060              0.2521540
SP   3   1.00
      3.1864900             -0.2518300             -0.0142990
      1.1442700              0.0615890              0.3235720
      0.4203770              1.0601800              0.7435070
SP   1   1.00
      0.1426570              1.0000000              1.0000000
D    1   1.00
      1.5000000              1.0000000
D    1   1.00
      0.3750000              1.0000000
F    1   1.00
      0.7000000              1.0000000
****
}

set {
reference uhf
freeze_core true
e_convergence 10
d_convergence 10
dft_spherical_points 1202
dft_radial_points 99
}

e = energy('b3lyp')

print_out('Grab this energy {0}'.format(e))
--------------------------------------------------------------------------

    Molecular point group: c1

    Geometry (in Bohr), charge = 0, multiplicity = 2:

       Center              X                  Y                   Z               Mass
    ------------   -----------------  -----------------  -----------------  -----------------
         C           -0.323340151974     0.000695278443    -0.000000332337    12.000000000000
         C            0.061224055426    -1.401446815257    -2.427088862737    12.000000000000
         C            0.060852828526     2.799962410543    -0.000965726737    12.000000000000
         C            0.061223902226    -1.399772444957     2.428054776563    12.000000000000
         H            2.086976777926    -1.645847244957    -2.845764653037     1.007825032230
         H           -0.767886692774    -0.386319680157    -4.026521930237     1.007825032230
         H           -0.763218806174    -3.289713121157    -2.349055174237     1.007825032230
         H            2.086714190626     3.289262004543    -0.002600483737     1.007825032230
         H           -0.767879163774     3.681900426943     1.678105728363     1.007825032230
         H           -0.763154055174     3.680876851443    -1.674581008037     1.007825032230
         H            2.086978093626    -1.641339833357     2.848366751063     1.007825032230
         H           -0.767943959874    -3.293270040657     2.348170761563     1.007825032230
         H           -0.763161647174    -0.388862830257     4.023881737763     1.007825032230

  Charge       = 0
  Multiplicity = 2
  Basis Set: ANONYMOUS93FA7D26
    Blend: 6-31G_2DFP_
  Basis Set: (ANONYMOUS93FA7D26 AUX)
    Blend: DEF2-UNIVERSAL-JKFIT

    Orbital Energies [Eh]
    ---------------------

    Alpha Occupied:

       1A    -10.180342     2A    -10.167063     3A    -10.167009
       4A    -10.166973     5A     -0.797766     6A     -0.686211
       7A     -0.686165     8A     -0.530778     9A     -0.441124
      10A     -0.434753    11A     -0.434590    12A     -0.382688
      13A     -0.382509    14A     -0.363611    15A     -0.338207
      16A     -0.337790    17A     -0.168961

    Alpha Virtual:

      18A      0.076072    19A      0.134125    20A      0.134164
      21A      0.142572    22A      0.142700    23A      0.154878
      24A      0.178698    25A      0.178863    26A      0.203544
      27A      0.214804    28A      0.275760    29A      0.276213
      30A      0.399221    31A      0.399235    32A      0.403346
      33A      0.424053    34A      0.424141    35A      0.456591
      36A      0.495369    37A      0.495411    38A      0.512159
      39A      0.513981    40A      0.578783    41A      0.578846
      42A      0.591575    43A      0.591694    44A      0.602571
      45A      0.624718    46A      0.631825    47A      0.636077
      48A      0.636408    49A      0.663351    50A      0.663473
      51A      0.683841    52A      0.683884    53A      0.734994
      54A      0.825354    55A      0.825460    56A      0.853915
      57A      0.915009    58A      0.915045    59A      0.944100
      60A      0.944639    61A      0.961265    62A      0.961314
      63A      1.003455    64A      1.128045    65A      1.128174
      66A      1.142223    67A      1.162985    68A      1.163552
      69A      1.223322    70A      1.274191    71A      1.274776
      72A      1.279370    73A      1.324277    74A      1.324411
      75A      1.355984    76A      1.365900    77A      1.366212
      78A      1.392462    79A      1.403868    80A      1.404226
      81A      1.416955    82A      1.417278    83A      1.427922
      84A      1.491454    85A      1.499102    86A      1.542752
      87A      1.542894    88A      1.574259    89A      1.574642
      90A      1.669831    91A      1.739271    92A      1.739552
      93A      1.768311    94A      1.830903    95A      1.831908
      96A      1.971700    97A      2.018299    98A      2.018519
      99A      2.019616   100A      2.051965   101A      2.053337
     102A      2.738363   103A      2.738604   104A      2.790922
     105A      2.811429   106A      2.889881   107A      2.890021
     108A      2.894946   109A      2.929437   110A      2.929551
     111A      2.958992   112A      2.964312   113A      2.964455
     114A      3.033995   115A      3.071161   116A      3.071418
     117A      3.084371   118A      3.168597   119A      3.168945
     120A      3.180612   121A      3.285294   122A      3.285317
     123A      3.326987   124A      3.327354   125A      3.375612
     126A      3.489821   127A      3.490502   128A      3.514004
     129A      3.525340   130A      3.568300   131A      3.568488
     132A      3.575135   133A      3.665667   134A      3.667072
     135A      3.679684   136A      3.694018   137A      3.694234
     138A      3.776632   139A      3.776973   140A      3.789119
     141A      3.911485   142A      3.912976   143A      4.034445
     144A      4.111147   145A      4.111464   146A      4.147880
     147A      4.148461   148A      4.173121   149A      4.202454
     150A      4.202685   151A      4.203669   152A      4.211020
     153A      4.315225   154A      4.316667   155A      4.358972
     156A      4.423443   157A      4.425396   158A      4.443533
     159A      4.516194   160A      4.517495   161A      4.578249
     162A      4.578293   163A      4.617538   164A      4.709455
     165A      4.774278   166A      4.774892   167A      4.836919
     168A      4.962842   169A      5.002290   170A      5.003665
     171A      5.228025   172A      5.246538   173A      5.246936
     174A      5.355531   175A      5.355648   176A      5.479380

    Beta Occupied:

       1A    -10.167822     2A    -10.167760     3A    -10.167742
       4A    -10.166519     5A     -0.781092     6A     -0.684019
       7A     -0.683962     8A     -0.511750     9A     -0.431126
      10A     -0.430959    11A     -0.421821    12A     -0.376793
      13A     -0.376574    14A     -0.362595    15A     -0.333330
      16A     -0.332912

    Beta Virtual:

      17A     -0.025743    18A      0.077081    19A      0.135028
      20A      0.135040    21A      0.144459    22A      0.144554
      23A      0.163338    24A      0.182382    25A      0.182522
      26A      0.215027    27A      0.218933    28A      0.282116
      29A      0.282552    30A      0.400393    31A      0.400402
      32A      0.419791    33A      0.426863    34A      0.426953
      35A      0.468499    36A      0.497622    37A      0.497678
      38A      0.513896    39A      0.556324    40A      0.584327
      41A      0.584402    42A      0.597754    43A      0.597874
      44A      0.609994    45A      0.628063    46A      0.632014
      47A      0.639365    48A      0.639690    49A      0.666910
      50A      0.667043    51A      0.686488    52A      0.686507
      53A      0.757517    54A      0.830517    55A      0.830634
      56A      0.855268    57A      0.922977    58A      0.923019
      59A      0.945959    60A      0.953545    61A      0.966575
      62A      0.966617    63A      1.008695    64A      1.132077
      65A      1.132203    66A      1.155595    67A      1.168040
      68A      1.168646    69A      1.232295    70A      1.279785
      71A      1.280376    72A      1.285123    73A      1.329280
      74A      1.329385    75A      1.365399    76A      1.371171
      77A      1.371428    78A      1.393522    79A      1.407386
      80A      1.407640    81A      1.422018    82A      1.422310
      83A      1.428197    84A      1.492516    85A      1.509533
      86A      1.547154    87A      1.547310    88A      1.582122
      89A      1.582520    90A      1.674677    91A      1.745028
      92A      1.745316    93A      1.779092    94A      1.834769
      95A      1.835754    96A      1.972574    97A      2.024913
      98A      2.025992    99A      2.039690   100A      2.058678
     101A      2.060058   102A      2.746721   103A      2.746917
     104A      2.811836   105A      2.816062   106A      2.902591
     107A      2.902693   108A      2.924645   109A      2.931932
     110A      2.932020   111A      2.960056   112A      2.968842
     113A      2.969014   114A      3.041927   115A      3.081077
     116A      3.081320   117A      3.086196   118A      3.184336
     119A      3.184657   120A      3.188341   121A      3.290088
     122A      3.290121   123A      3.330800   124A      3.331151
     125A      3.383431   126A      3.492529   127A      3.493255
     128A      3.512373   129A      3.528380   130A      3.574994
     131A      3.581625   132A      3.581844   133A      3.670391
     134A      3.671849   135A      3.692974   136A      3.725634
     137A      3.725879   138A      3.781114   139A      3.781540
     140A      3.817666   141A      3.921352   142A      3.922742
     143A      4.045332   144A      4.117855   145A      4.118374
     146A      4.155192   147A      4.155585   148A      4.187133
     149A      4.208609   150A      4.209297   151A      4.210715
     152A      4.215566   153A      4.322637   154A      4.324138
     155A      4.362336   156A      4.431664   157A      4.433580
     158A      4.446441   159A      4.523989   160A      4.525280
     161A      4.588835   162A      4.588911   163A      4.624731
     164A      4.719799   165A      4.781251   166A      4.781825
     167A      4.839836   168A      4.967638   169A      5.006344
     170A      5.007689   171A      5.233740   172A      5.248334
     173A      5.248718   174A      5.361986   175A      5.362144
     176A      5.481701

    Final Occupation by Irrep:
              A
    DOCC [    16 ]
    SOCC [     1 ]

  @DF-UKS Final Energy:  -157.81305926599961

   => Energetics <=

    Nuclear Repulsion Energy =            125.3946463784026264
    One-Electron Energy =                -458.7489254936510861
    Two-Electron Energy =                 195.8483659008867335
    DFT Exchange-Correlation Energy =     -20.3071460516378863
    Empirical Dispersion Energy =           0.0000000000000000
    VV10 Nonlocal Energy =                  0.0000000000000000
    Total Energy =                       -157.8130592659996125

  UHF NO Occupations:
  HONO-2 :   15  A 1.9996009
  HONO-1 :   16  A 1.9989805
  HONO-0 :   17  A 1.0000000
  LUNO+0 :   18  A 0.0010195
  LUNO+1 :   19  A 0.0003991
  LUNO+2 :   20  A 0.0001979
  LUNO+3 :   21  A 0.0001972

Computation Completed

Properties will be evaluated at   0.000000,   0.000000,   0.000000 [a0]

Properties computed using the SCF density matrix

  Nuclear Dipole Moment: [e a0]
     X:     0.8272      Y:     0.0033      Z:     0.0000

  Electronic Dipole Moment: [e a0]
     X:    -0.7493      Y:    -0.0034      Z:    -0.0000

  Dipole Moment: [e a0]
     X:     0.0779      Y:    -0.0001      Z:    -0.0000     Total:     0.0779

  Dipole Moment: [D]
     X:     0.1980      Y:    -0.0002      Z:    -0.0000     Total:     0.1980

*** tstop() called on n083 at Fri Nov  5 12:58:30 2021
Module time:
	user time   =     464.37 seconds =       7.74 minutes
	system time =       4.30 seconds =       0.07 minutes
	total time  =        118 seconds =       1.97 minutes
Total time:
	user time   =     464.37 seconds =       7.74 minutes
	system time =       4.30 seconds =       0.07 minutes
	total time  =        118 seconds =       1.97 minutes
Grab this energy -157.8130592659996
    Psi4 stopped on: Friday, 05 November 2021 12:58PM
    Psi4 wall time for execution: 0:01:57.89

*** Psi4 exiting successfully. Buy a developer a beer!
