                               Psi4 1.4a2.dev629

  ==> Input File <==

--------------------------------------------------------------------------
import os
memory 14 GB

molecule {
 C   -0.3233407255   -0.0024293493    0.0004935156
 C    0.0606594695   -1.4011493204   -2.4246421878
 C    0.0618161723    2.8030139340    0.0000393394
 C    0.0608237729   -1.4018559167    2.4259490341
 H    2.0892719602   -1.6415586421   -2.8488821477
 H   -0.7717276656   -0.3858277398   -4.0231040718
 H   -0.7644224069   -3.2981329013   -2.3469137414
 H    2.0893682452    3.2872821439   -0.0000274497
 H   -0.7643223102    3.6826428410    1.6759302108
 H   -0.7641374086    3.6836320084   -1.6765893302
 H    2.0820250981   -1.6420222318    2.8496073973
 H   -0.7605830957   -3.2921413431    2.3498972012
 H   -0.7680389822   -0.3914777963    4.0182422302
units bohr
0 2
}

basis {

assign 6-31g_2dfp_

[ 6-31g_2dfp_ ]

spherical

!----------------------------------------------------------------------
! Basis Set Exchange
! Version v0.8.13
! https://www.basissetexchange.org
!----------------------------------------------------------------------
!   Basis set: 6-31G(2df,p)
! Description: 6-31G(2df,p)
!        Role: orbital
!     Version: 0  (Data from the original Basis Set Exchange)
!----------------------------------------------------------------------

****
H     0
S    3   1.00
     18.7311370              0.03349460
      2.8253937              0.23472695
      0.6401217              0.81375733
S    1   1.00
      0.1612778              1.00000000
P    1   1.00
      1.5000000              1.0000000
P    1   1.00
      0.3750000              1.0000000
****
B     0
S    6   1.00
   2068.8823000              0.0018663
    310.6495700              0.0142515
     70.6830330              0.0695516
     19.8610800              0.2325729
      6.2993048              0.4670787
      2.1270270              0.3634314
SP   3   1.00
      4.7279710             -0.1303938              0.0745976
      1.1903377             -0.1307889              0.3078467
      0.3594117              1.1309444              0.7434568
SP   1   1.00
      0.1267512              1.0000000              1.0000000
D    1   1.00
      0.8020000              1.0000000
D    1   1.00
      0.2005000              1.0000000
F    1   1.00
      0.5000000              1.0000000
****
C     0
S    6   1.00
   3047.5249000              0.0018347
    457.3695100              0.0140373
    103.9486900              0.0688426
     29.2101550              0.2321844
      9.2866630              0.4679413
      3.1639270              0.3623120
SP   3   1.00
      7.8682724             -0.1193324              0.0689991
      1.8812885             -0.1608542              0.3164240
      0.5442493              1.1434564              0.7443083
SP   1   1.00
      0.1687144              1.0000000              1.0000000
D    1   1.00
      1.2520000              1.0000000
D    1   1.00
      0.3130000              1.0000000
F    1   1.00
      0.8000000              1.0000000
****
N     0
S    6   1.00
   4173.5110000              0.0018348
    627.4579000              0.0139950
    142.9021000              0.0685870
     40.2343300              0.2322410
     12.8202100              0.4690700
      4.3904370              0.3604550
SP   3   1.00
     11.6263580             -0.1149610              0.0675800
      2.7162800             -0.1691180              0.3239070
      0.7722180              1.1458520              0.7408950
SP   1   1.00
      0.2120313              1.0000000              1.0000000
D    1   1.00
      1.8260000              1.0000000
D    1   1.00
      0.4565000              1.0000000
F    1   1.00
      1.0000000              1.0000000
****
O     0
S    6   1.00
   5484.6717000              0.0018311
    825.2349500              0.0139501
    188.0469600              0.0684451
     52.9645000              0.2327143
     16.8975700              0.4701930
      5.7996353              0.3585209
SP   3   1.00
     15.5396160             -0.1107775              0.0708743
      3.5999336             -0.1480263              0.3397528
      1.0137618              1.1307670              0.7271586
SP   1   1.00
      0.2700058              1.0000000              1.0000000
D    1   1.00
      2.5840000              1.0000000
D    1   1.00
      0.6460000              1.0000000
F    1   1.00
      1.4000000              1.0000000
****
F     0
S    6   1.00
   7001.7130900              0.0018196169
   1051.3660900              0.0139160796
    239.2856900              0.0684053245
     67.3974453              0.233185760
     21.5199573              0.471267439
      7.40310130             0.356618546
SP   3   1.00
     20.8479528             -0.108506975            0.0716287243
      4.80830834            -0.146451658            0.3459121030
      1.34406986             1.128688580            0.7224699570
SP   1   1.00
      0.358151393            1.0000000              1.0000000
D    1   1.00
      3.5000000              1.0000000
D    1   1.00
      0.8750000              1.0000000
F    1   1.00
      1.8500000              1.0000000
****
Al     0
S    6   1.00
  13983.1000000              0.00194267
   2098.7500000              0.0148599
    477.7050000              0.0728494
    134.3600000              0.2468300
     42.8709000              0.4872580
     14.5189000              0.3234960
SP   6   1.00
    239.6680000             -0.00292619             0.00460285
     57.4419000             -0.0374080              0.0331990
     18.2859000             -0.1144870              0.1362820
      6.5991400              0.1156350              0.3304760
      2.4904900              0.6125950              0.4491460
      0.9445400              0.3937990              0.2657040
SP   3   1.00
      1.2779000             -0.2276060             -0.0175130
      0.3975900              0.00144583             0.2445330
      0.1600950              1.0927900              0.8049340
SP   1   1.00
      0.0556577              1.0000000              1.0000000
D    1   1.00
      0.6500000              1.0000000
D    1   1.00
      0.1625000              1.0000000
F    1   1.00
      0.2500000              1.0000000
****
Si     0
S    6   1.00
  16115.9000000              0.00195948
   2425.5800000              0.01492880
    553.8670000              0.07284780
    156.3400000              0.24613000
     50.0683000              0.48591400
     17.0178000              0.32500200
SP   6   1.00
    292.7180000             -0.00278094             0.00443826
     69.8731000             -0.03571460             0.03266790
     22.3363000             -0.11498500             0.13472100
      8.1503900              0.09356340             0.32867800
      3.1345800              0.60301700             0.44964000
      1.2254300              0.41895900             0.26137200
SP   3   1.00
      1.7273800             -0.24463000            -0.01779510
      0.5729220              0.00431572             0.25353900
      0.2221920              1.09818000             0.80066900
SP   1   1.00
      0.0778369              1.00000000             1.00000000
D    1   1.00
      0.9000000              1.0000000
D    1   1.00
      0.2250000              1.0000000
F    1   1.00
      0.3200000              1.0000000
****
P     0
S    6   1.00
  19413.3000000              0.0018516
   2909.4200000              0.0142062
    661.3640000              0.0699995
    185.7590000              0.2400790
     59.1943000              0.4847620
     20.0310000              0.3352000
SP   6   1.00
    339.4780000             -0.00278217             0.00456462
     81.0101000             -0.0360499              0.03369360
     25.8780000             -0.1166310              0.13975500
      9.4522100              0.0968328              0.33936200
      3.6656600              0.6144180              0.45092100
      1.4674600              0.4037980              0.23858600
SP   3   1.00
      2.1562300             -0.2529230             -0.01776530
      0.7489970              0.0328517              0.27405800
      0.2831450              1.0812500              0.78542100
SP   1   1.00
      0.0998317              1.0000000              1.00000000
D    1   1.00
      1.1000000              1.0000000
D    1   1.00
      0.2750000              1.0000000
F    1   1.00
      0.4500000              1.0000000
****
S     0
S    6   1.00
  21917.1000000              0.0018690
   3301.4900000              0.0142300
    754.1460000              0.0696960
    212.7110000              0.2384870
     67.9896000              0.4833070
     23.0515000              0.3380740
SP   6   1.00
    423.7350000             -0.0023767              0.0040610
    100.7100000             -0.0316930              0.0306810
     32.1599000             -0.1133170              0.1304520
     11.8079000              0.0560900              0.3272050
      4.6311000              0.5922550              0.4528510
      1.8702500              0.4550060              0.2560420
SP   3   1.00
      2.6158400             -0.2503740             -0.0145110
      0.9221670              0.0669570              0.3102630
      0.3412870              1.0545100              0.7544830
SP   1   1.00
      0.1171670              1.0000000              1.0000000
D    1   1.00
      1.3000000              1.0000000
D    1   1.00
      0.3250000              1.0000000
F    1   1.00
      0.5500000              1.0000000
****
Cl     0
S    6   1.00
  25180.1000000              0.0018330
   3780.3500000              0.0140340
    860.4740000              0.0690970
    242.1450000              0.2374520
     77.3349000              0.4830340
     26.2470000              0.3398560
SP   6   1.00
    491.7650000             -0.0022974              0.0039894
    116.9840000             -0.0307140              0.0303180
     37.4153000             -0.1125280              0.1298800
     13.7834000              0.0450160              0.3279510
      5.4521500              0.5893530              0.4535270
      2.2258800              0.4652060              0.2521540
SP   3   1.00
      3.1864900             -0.2518300             -0.0142990
      1.1442700              0.0615890              0.3235720
      0.4203770              1.0601800              0.7435070
SP   1   1.00
      0.1426570              1.0000000              1.0000000
D    1   1.00
      1.5000000              1.0000000
D    1   1.00
      0.3750000              1.0000000
F    1   1.00
      0.7000000              1.0000000
****
}

set {
reference uhf
freeze_core true
e_convergence 10
d_convergence 10
dft_spherical_points 1202
dft_radial_points 99
}

e = energy('b3lyp')

print_out('Grab this energy {0}'.format(e))
--------------------------------------------------------------------------

    Molecular point group: c1

    Geometry (in Bohr), charge = 0, multiplicity = 2:

       Center              X                  Y                   Z               Mass
    ------------   -----------------  -----------------  -----------------  -----------------
         C           -0.323340470115    -0.001962684853     0.000139175879    12.000000000000
         C            0.060659724885    -1.400682655953    -2.424996527521    12.000000000000
         C            0.061816427685     2.803480598447    -0.000315000321    12.000000000000
         C            0.060824028285    -1.401389252253     2.425594694379    12.000000000000
         H            2.089272215585    -1.641091977653    -2.849236487421     1.007825032230
         H           -0.771727410215    -0.385361075353    -4.023458411521     1.007825032230
         H           -0.764422151515    -3.297666236853    -2.347268081121     1.007825032230
         H            2.089368500585     3.287748808347    -0.000381789421     1.007825032230
         H           -0.764322054815     3.683109505447     1.675575871079     1.007825032230
         H           -0.764137153215     3.684098672847    -1.676943669921     1.007825032230
         H            2.082025353485    -1.641555567353     2.849253057579     1.007825032230
         H           -0.760582840315    -3.291674678653     2.349542861479     1.007825032230
         H           -0.768038726815    -0.391011131853     4.017887890479     1.007825032230

  Charge       = 0
  Multiplicity = 2
  Basis Set: ANONYMOUS0EC1EBC3
    Blend: 6-31G_2DFP_
  Basis Set: (ANONYMOUS0EC1EBC3 AUX)
    Blend: DEF2-UNIVERSAL-JKFIT

    Orbital Energies [Eh]
    ---------------------

    Alpha Occupied:

       1A    -10.180342     2A    -10.167488     3A    -10.167231
       4A    -10.166325     5A     -0.797768     6A     -0.686539
       7A     -0.685836     8A     -0.530775     9A     -0.441126
      10A     -0.434785    11A     -0.434559    12A     -0.382826
      13A     -0.382372    14A     -0.363611    15A     -0.338151
      16A     -0.337844    17A     -0.168961

    Alpha Virtual:

      18A      0.076071    19A      0.134084    20A      0.134212
      21A      0.142531    22A      0.142736    23A      0.154875
      24A      0.178455    25A      0.179103    26A      0.203547
      27A      0.214805    28A      0.275647    29A      0.276324
      30A      0.399138    31A      0.399306    32A      0.403356
      33A      0.423996    34A      0.424199    35A      0.456593
      36A      0.495305    37A      0.495474    38A      0.512162
      39A      0.513978    40A      0.578587    41A      0.579036
      42A      0.591262    43A      0.591989    44A      0.602594
      45A      0.624766    46A      0.631691    47A      0.635889
      48A      0.636695    49A      0.663138    50A      0.663691
      51A      0.683547    52A      0.684174    53A      0.734995
      54A      0.825001    55A      0.825804    56A      0.853917
      57A      0.914896    58A      0.915159    59A      0.944127
      60A      0.944612    61A      0.961046    62A      0.961549
      63A      1.003456    64A      1.127765    65A      1.128432
      66A      1.142209    67A      1.163142    68A      1.163422
      69A      1.223326    70A      1.274232    71A      1.274742
      72A      1.279359    73A      1.323978    74A      1.324728
      75A      1.355984    76A      1.365658    77A      1.366441
      78A      1.392446    79A      1.403554    80A      1.404540
      81A      1.416697    82A      1.417518    83A      1.427922
      84A      1.491491    85A      1.499088    86A      1.542684
      87A      1.542981    88A      1.574091    89A      1.574808
      90A      1.669804    91A      1.739127    92A      1.739681
      93A      1.768324    94A      1.829769    95A      1.833088
      96A      1.971702    97A      2.017985    98A      2.019100
      99A      2.019277   100A      2.051702   101A      2.053650
     102A      2.738030   103A      2.738936   104A      2.790929
     105A      2.811424   106A      2.889369   107A      2.890443
     108A      2.895029   109A      2.929299   110A      2.929694
     111A      2.959005   112A      2.963797   113A      2.964971
     114A      3.034020   115A      3.070911   116A      3.071651
     117A      3.084378   118A      3.168611   119A      3.168927
     120A      3.180621   121A      3.285239   122A      3.285397
     123A      3.326704   124A      3.327618   125A      3.375611
     126A      3.489298   127A      3.491023   128A      3.514005
     129A      3.525329   130A      3.567532   131A      3.569220
     132A      3.575192   133A      3.665615   134A      3.667036
     135A      3.679669   136A      3.693575   137A      3.694719
     138A      3.775356   139A      3.778230   140A      3.789173
     141A      3.911557   142A      3.912884   143A      4.034435
     144A      4.110061   145A      4.112549   146A      4.146002
     147A      4.150143   148A      4.173321   149A      4.200753
     150A      4.202742   151A      4.205216   152A      4.211191
     153A      4.315077   154A      4.316836   155A      4.358950
     156A      4.423928   157A      4.424878   158A      4.443563
     159A      4.516039   160A      4.517602   161A      4.577467
     162A      4.579093   163A      4.617529   164A      4.709484
     165A      4.773968   166A      4.775265   167A      4.836885
     168A      4.962852   169A      5.002125   170A      5.003835
     171A      5.227830   172A      5.243129   173A      5.250470
     174A      5.352371   175A      5.358837   176A      5.479437

    Beta Occupied:

       1A    -10.168250     2A    -10.167988     3A    -10.167089
       4A    -10.166514     5A     -0.781093     6A     -0.684336
       7A     -0.683644     8A     -0.511746     9A     -0.431169
      10A     -0.430917    11A     -0.421824    12A     -0.376918
      13A     -0.376450    14A     -0.362595    15A     -0.333273
      16A     -0.332968

    Beta Virtual:

      17A     -0.025743    18A      0.077080    19A      0.134949
      20A      0.135128    21A      0.144445    22A      0.144562
      23A      0.163333    24A      0.182135    25A      0.182766
      26A      0.215034    27A      0.218929    28A      0.282006
      29A      0.282661    30A      0.400312    31A      0.400480
      32A      0.419792    33A      0.426800    34A      0.427018
      35A      0.468501    36A      0.497569    37A      0.497731
      38A      0.513897    39A      0.556322    40A      0.584125
      41A      0.584599    42A      0.597471    43A      0.598142
      44A      0.610012    45A      0.628142    46A      0.631886
      47A      0.639178    48A      0.639941    49A      0.666700
      50A      0.667257    51A      0.686218    52A      0.686774
      53A      0.757517    54A      0.830144    55A      0.830997
      56A      0.855271    57A      0.922863    58A      0.923133
      59A      0.945964    60A      0.953539    61A      0.966374
      62A      0.966834    63A      1.008695    64A      1.131772
      65A      1.132485    66A      1.155579    67A      1.168254
      68A      1.168460    69A      1.232299    70A      1.279822
      71A      1.280344    72A      1.285116    73A      1.328927
      74A      1.329758    75A      1.365392    76A      1.370938
      77A      1.371654    78A      1.393505    79A      1.406987
      80A      1.408035    81A      1.421715    82A      1.422600
      83A      1.428194    84A      1.492540    85A      1.509531
      86A      1.547092    87A      1.547387    88A      1.581994
      89A      1.582649    90A      1.674650    91A      1.744880
      92A      1.745456    93A      1.779101    94A      1.833650
      95A      1.836918    96A      1.972565    97A      2.025341
      98A      2.025512    99A      2.039671   100A      2.058447
     101A      2.060347   102A      2.746349   103A      2.747289
     104A      2.811836   105A      2.816063   106A      2.902208
     107A      2.903048   108A      2.924647   109A      2.931805
     110A      2.932171   111A      2.960068   112A      2.968312
     113A      2.969545   114A      3.041954   115A      3.080790
     116A      3.081558   117A      3.086231   118A      3.184217
     119A      3.184749   120A      3.188374   121A      3.290013
     122A      3.290220   123A      3.330517   124A      3.331413
     125A      3.383430   126A      3.492053   127A      3.493729
     128A      3.512374   129A      3.528376   130A      3.574935
     131A      3.581004   132A      3.582534   133A      3.670337
     134A      3.671843   135A      3.692974   136A      3.725267
     137A      3.726246   138A      3.779936   139A      3.782731
     140A      3.817691   141A      3.921417   142A      3.922661
     143A      4.045317   144A      4.116972   145A      4.119248
     146A      4.153449   147A      4.157148   148A      4.187370
     149A      4.207369   150A      4.209024   151A      4.212156
     152A      4.215678   153A      4.322587   154A      4.324202
     155A      4.362316   156A      4.432182   157A      4.432998
     158A      4.446505   159A      4.523855   160A      4.525367
     161A      4.588087   162A      4.589671   163A      4.624725
     164A      4.719828   165A      4.780954   166A      4.782187
     167A      4.839802   168A      4.967647   169A      5.006163
     170A      5.007875   171A      5.233539   172A      5.244920
     173A      5.252259   174A      5.358856   175A      5.365309
     176A      5.481758

    Final Occupation by Irrep:
              A
    DOCC [    16 ]
    SOCC [     1 ]

  @DF-UKS Final Energy:  -157.81305324895354

   => Energetics <=

    Nuclear Repulsion Energy =            125.3946871717246836
    One-Electron Energy =                -458.7489952067300010
    Two-Electron Energy =                 195.8484039067824369
    DFT Exchange-Correlation Energy =     -20.3071491207306494
    Empirical Dispersion Energy =           0.0000000000000000
    VV10 Nonlocal Energy =                  0.0000000000000000
    Total Energy =                       -157.8130532489535369

  UHF NO Occupations:
  HONO-2 :   15  A 1.9996009
  HONO-1 :   16  A 1.9989804
  HONO-0 :   17  A 1.0000000
  LUNO+0 :   18  A 0.0010196
  LUNO+1 :   19  A 0.0003991
  LUNO+2 :   20  A 0.0001981
  LUNO+3 :   21  A 0.0001970

Computation Completed

Properties will be evaluated at   0.000000,   0.000000,   0.000000 [a0]

Properties computed using the SCF density matrix

  Nuclear Dipole Moment: [e a0]
     X:     0.8272      Y:     0.0033      Z:    -0.0025

  Electronic Dipole Moment: [e a0]
     X:    -0.7493      Y:    -0.0032      Z:     0.0049

  Dipole Moment: [e a0]
     X:     0.0779      Y:     0.0000      Z:     0.0024     Total:     0.0780

  Dipole Moment: [D]
     X:     0.1980      Y:     0.0001      Z:     0.0062     Total:     0.1981

*** tstop() called on n079 at Fri Nov  5 15:06:41 2021
Module time:
	user time   =     627.98 seconds =      10.47 minutes
	system time =       5.71 seconds =       0.10 minutes
	total time  =        159 seconds =       2.65 minutes
Total time:
	user time   =     627.98 seconds =      10.47 minutes
	system time =       5.71 seconds =       0.10 minutes
	total time  =        159 seconds =       2.65 minutes
Grab this energy -157.81305324895354
    Psi4 stopped on: Friday, 05 November 2021 03:06PM
    Psi4 wall time for execution: 0:02:39.21

*** Psi4 exiting successfully. Buy a developer a beer!
