                               Psi4 1.4a2.dev629

  ==> Input File <==

--------------------------------------------------------------------------
import os
memory 14 GB

molecule {
 C   -0.3233397568   -0.0024342781    0.0000000000
 C    0.0612182410   -1.4025487739   -2.4248668659
 C    0.0608646234    2.8027108813    0.0000000000
 C    0.0612182410   -1.4025487739    2.4248668659
 H    2.0865877944   -1.6486508088   -2.8421777675
 H   -0.7665613753   -0.3837399448   -4.0233819182
 H   -0.7635488401   -3.2917303166   -2.3538916888
 H    2.0874810271    3.2926820336    0.0000000000
 H   -0.7665027052    3.6801783689    1.6763501506
 H   -0.7665027052    3.6801783689   -1.6763501506
 H    2.0865877944   -1.6486508088    2.8421777675
 H   -0.7635488401   -3.2917303166    2.3538916888
 H   -0.7665613753   -0.3837399448    4.0233819182
units bohr
0 2
}

basis {

assign 6-31g_2dfp_

[ 6-31g_2dfp_ ]

spherical

!----------------------------------------------------------------------
! Basis Set Exchange
! Version v0.8.13
! https://www.basissetexchange.org
!----------------------------------------------------------------------
!   Basis set: 6-31G(2df,p)
! Description: 6-31G(2df,p)
!        Role: orbital
!     Version: 0  (Data from the original Basis Set Exchange)
!----------------------------------------------------------------------

****
H     0
S    3   1.00
     18.7311370              0.03349460
      2.8253937              0.23472695
      0.6401217              0.81375733
S    1   1.00
      0.1612778              1.00000000
P    1   1.00
      1.5000000              1.0000000
P    1   1.00
      0.3750000              1.0000000
****
B     0
S    6   1.00
   2068.8823000              0.0018663
    310.6495700              0.0142515
     70.6830330              0.0695516
     19.8610800              0.2325729
      6.2993048              0.4670787
      2.1270270              0.3634314
SP   3   1.00
      4.7279710             -0.1303938              0.0745976
      1.1903377             -0.1307889              0.3078467
      0.3594117              1.1309444              0.7434568
SP   1   1.00
      0.1267512              1.0000000              1.0000000
D    1   1.00
      0.8020000              1.0000000
D    1   1.00
      0.2005000              1.0000000
F    1   1.00
      0.5000000              1.0000000
****
C     0
S    6   1.00
   3047.5249000              0.0018347
    457.3695100              0.0140373
    103.9486900              0.0688426
     29.2101550              0.2321844
      9.2866630              0.4679413
      3.1639270              0.3623120
SP   3   1.00
      7.8682724             -0.1193324              0.0689991
      1.8812885             -0.1608542              0.3164240
      0.5442493              1.1434564              0.7443083
SP   1   1.00
      0.1687144              1.0000000              1.0000000
D    1   1.00
      1.2520000              1.0000000
D    1   1.00
      0.3130000              1.0000000
F    1   1.00
      0.8000000              1.0000000
****
N     0
S    6   1.00
   4173.5110000              0.0018348
    627.4579000              0.0139950
    142.9021000              0.0685870
     40.2343300              0.2322410
     12.8202100              0.4690700
      4.3904370              0.3604550
SP   3   1.00
     11.6263580             -0.1149610              0.0675800
      2.7162800             -0.1691180              0.3239070
      0.7722180              1.1458520              0.7408950
SP   1   1.00
      0.2120313              1.0000000              1.0000000
D    1   1.00
      1.8260000              1.0000000
D    1   1.00
      0.4565000              1.0000000
F    1   1.00
      1.0000000              1.0000000
****
O     0
S    6   1.00
   5484.6717000              0.0018311
    825.2349500              0.0139501
    188.0469600              0.0684451
     52.9645000              0.2327143
     16.8975700              0.4701930
      5.7996353              0.3585209
SP   3   1.00
     15.5396160             -0.1107775              0.0708743
      3.5999336             -0.1480263              0.3397528
      1.0137618              1.1307670              0.7271586
SP   1   1.00
      0.2700058              1.0000000              1.0000000
D    1   1.00
      2.5840000              1.0000000
D    1   1.00
      0.6460000              1.0000000
F    1   1.00
      1.4000000              1.0000000
****
F     0
S    6   1.00
   7001.7130900              0.0018196169
   1051.3660900              0.0139160796
    239.2856900              0.0684053245
     67.3974453              0.233185760
     21.5199573              0.471267439
      7.40310130             0.356618546
SP   3   1.00
     20.8479528             -0.108506975            0.0716287243
      4.80830834            -0.146451658            0.3459121030
      1.34406986             1.128688580            0.7224699570
SP   1   1.00
      0.358151393            1.0000000              1.0000000
D    1   1.00
      3.5000000              1.0000000
D    1   1.00
      0.8750000              1.0000000
F    1   1.00
      1.8500000              1.0000000
****
Al     0
S    6   1.00
  13983.1000000              0.00194267
   2098.7500000              0.0148599
    477.7050000              0.0728494
    134.3600000              0.2468300
     42.8709000              0.4872580
     14.5189000              0.3234960
SP   6   1.00
    239.6680000             -0.00292619             0.00460285
     57.4419000             -0.0374080              0.0331990
     18.2859000             -0.1144870              0.1362820
      6.5991400              0.1156350              0.3304760
      2.4904900              0.6125950              0.4491460
      0.9445400              0.3937990              0.2657040
SP   3   1.00
      1.2779000             -0.2276060             -0.0175130
      0.3975900              0.00144583             0.2445330
      0.1600950              1.0927900              0.8049340
SP   1   1.00
      0.0556577              1.0000000              1.0000000
D    1   1.00
      0.6500000              1.0000000
D    1   1.00
      0.1625000              1.0000000
F    1   1.00
      0.2500000              1.0000000
****
Si     0
S    6   1.00
  16115.9000000              0.00195948
   2425.5800000              0.01492880
    553.8670000              0.07284780
    156.3400000              0.24613000
     50.0683000              0.48591400
     17.0178000              0.32500200
SP   6   1.00
    292.7180000             -0.00278094             0.00443826
     69.8731000             -0.03571460             0.03266790
     22.3363000             -0.11498500             0.13472100
      8.1503900              0.09356340             0.32867800
      3.1345800              0.60301700             0.44964000
      1.2254300              0.41895900             0.26137200
SP   3   1.00
      1.7273800             -0.24463000            -0.01779510
      0.5729220              0.00431572             0.25353900
      0.2221920              1.09818000             0.80066900
SP   1   1.00
      0.0778369              1.00000000             1.00000000
D    1   1.00
      0.9000000              1.0000000
D    1   1.00
      0.2250000              1.0000000
F    1   1.00
      0.3200000              1.0000000
****
P     0
S    6   1.00
  19413.3000000              0.0018516
   2909.4200000              0.0142062
    661.3640000              0.0699995
    185.7590000              0.2400790
     59.1943000              0.4847620
     20.0310000              0.3352000
SP   6   1.00
    339.4780000             -0.00278217             0.00456462
     81.0101000             -0.0360499              0.03369360
     25.8780000             -0.1166310              0.13975500
      9.4522100              0.0968328              0.33936200
      3.6656600              0.6144180              0.45092100
      1.4674600              0.4037980              0.23858600
SP   3   1.00
      2.1562300             -0.2529230             -0.01776530
      0.7489970              0.0328517              0.27405800
      0.2831450              1.0812500              0.78542100
SP   1   1.00
      0.0998317              1.0000000              1.00000000
D    1   1.00
      1.1000000              1.0000000
D    1   1.00
      0.2750000              1.0000000
F    1   1.00
      0.4500000              1.0000000
****
S     0
S    6   1.00
  21917.1000000              0.0018690
   3301.4900000              0.0142300
    754.1460000              0.0696960
    212.7110000              0.2384870
     67.9896000              0.4833070
     23.0515000              0.3380740
SP   6   1.00
    423.7350000             -0.0023767              0.0040610
    100.7100000             -0.0316930              0.0306810
     32.1599000             -0.1133170              0.1304520
     11.8079000              0.0560900              0.3272050
      4.6311000              0.5922550              0.4528510
      1.8702500              0.4550060              0.2560420
SP   3   1.00
      2.6158400             -0.2503740             -0.0145110
      0.9221670              0.0669570              0.3102630
      0.3412870              1.0545100              0.7544830
SP   1   1.00
      0.1171670              1.0000000              1.0000000
D    1   1.00
      1.3000000              1.0000000
D    1   1.00
      0.3250000              1.0000000
F    1   1.00
      0.5500000              1.0000000
****
Cl     0
S    6   1.00
  25180.1000000              0.0018330
   3780.3500000              0.0140340
    860.4740000              0.0690970
    242.1450000              0.2374520
     77.3349000              0.4830340
     26.2470000              0.3398560
SP   6   1.00
    491.7650000             -0.0022974              0.0039894
    116.9840000             -0.0307140              0.0303180
     37.4153000             -0.1125280              0.1298800
     13.7834000              0.0450160              0.3279510
      5.4521500              0.5893530              0.4535270
      2.2258800              0.4652060              0.2521540
SP   3   1.00
      3.1864900             -0.2518300             -0.0142990
      1.1442700              0.0615890              0.3235720
      0.4203770              1.0601800              0.7435070
SP   1   1.00
      0.1426570              1.0000000              1.0000000
D    1   1.00
      1.5000000              1.0000000
D    1   1.00
      0.3750000              1.0000000
F    1   1.00
      0.7000000              1.0000000
****
}

set {
reference uhf
freeze_core true
e_convergence 10
d_convergence 10
dft_spherical_points 1202
dft_radial_points 99
}

e = energy('b3lyp')

print_out('Grab this energy {0}'.format(e))
--------------------------------------------------------------------------

    Molecular point group: cs

    Geometry (in Bohr), charge = 0, multiplicity = 2:

       Center              X                  Y                   Z               Mass
    ------------   -----------------  -----------------  -----------------  -----------------
         C           -0.323340013631    -0.001505300085     0.000000000000    12.000000000000
         C            0.061217984169    -1.401619795885    -2.424866865900    12.000000000000
         C            0.060864366569     2.803639859315     0.000000000000    12.000000000000
         C            0.061217984169    -1.401619795885     2.424866865900    12.000000000000
         H            2.086587537569    -1.647721830785    -2.842177767500     1.007825032230
         H           -0.766561632131    -0.382810966785    -4.023381918200     1.007825032230
         H           -0.763549096931    -3.290801338585    -2.353891688800     1.007825032230
         H            2.087480770269     3.293611011615     0.000000000000     1.007825032230
         H           -0.766502962031     3.681107346915     1.676350150600     1.007825032230
         H           -0.766502962031     3.681107346915    -1.676350150600     1.007825032230
         H            2.086587537569    -1.647721830785     2.842177767500     1.007825032230
         H           -0.763549096931    -3.290801338585     2.353891688800     1.007825032230
         H           -0.766561632131    -0.382810966785     4.023381918200     1.007825032230

  Charge       = 0
  Multiplicity = 2
  Basis Set: ANONYMOUSD51EBDFD
    Blend: 6-31G_2DFP_
  Basis Set: (ANONYMOUSD51EBDFD AUX)
    Blend: DEF2-UNIVERSAL-JKFIT

    Orbital Energies [Eh]
    ---------------------

    Alpha Occupied:

       1Ap   -10.180342     2Ap   -10.167192     1App  -10.166943
       3Ap   -10.166910     4Ap    -0.797767     2App   -0.686249
       5Ap    -0.686125     6Ap    -0.530779     7Ap    -0.441125
       3App   -0.434931     8Ap    -0.434412     4App   -0.382655
       9Ap    -0.382541     5App   -0.363616    10Ap    -0.338095
       6App   -0.337895    11Ap    -0.168961

    Alpha Virtual:

      12Ap     0.076071     7App    0.134071    13Ap     0.134233
      14Ap     0.142480     8App    0.142774    15Ap     0.154885
      16Ap     0.178724     9App    0.178833    17Ap     0.203549
      10App    0.214800    18Ap     0.275607    11App    0.276365
      12App    0.399020    19Ap     0.399417    20Ap     0.403363
      13App    0.423880    21Ap     0.424317    22Ap     0.456593
      14App    0.495281    23Ap     0.495501    15App    0.512159
      24Ap     0.513980    25Ap     0.578467    16App    0.579169
      26Ap     0.591187    17App    0.592070    27Ap     0.602581
      28Ap     0.624742    18App    0.631767    29Ap     0.635950
      19App    0.636575    30Ap     0.663233    20App    0.663589
      21App    0.683690    31Ap     0.684026    32Ap     0.734994
      33Ap     0.825371    22App    0.825440    23App    0.853915
      24App    0.914949    34Ap     0.915084    25App    0.944122
      35Ap     0.944596    26App    0.960520    36Ap     0.962094
      37Ap     1.003460    27App    1.127614    38Ap     1.128589
      39Ap     1.142226    28App    1.163123    40Ap     1.163438
      41Ap     1.223324    42Ap     1.274095    29App    1.274884
      43Ap     1.279350    44Ap     1.324156    30App    1.324557
      45Ap     1.355989    46Ap     1.365594    31App    1.366508
      32App    1.392462    47Ap     1.403692    33App    1.404408
      34App    1.416805    48Ap     1.417417    35App    1.427891
      36App    1.491500    49Ap     1.499071    37App    1.542555
      50Ap     1.543136    51Ap     1.574241    38App    1.574653
      52Ap     1.669829    53Ap     1.738324    39App    1.740507
      54Ap     1.768320    40App    1.831095    55Ap     1.831696
      41App    1.971740    56Ap     2.018040    57Ap     2.018754
      42App    2.019595    58Ap     2.051313    43App    2.053979
      44App    2.738390    59Ap     2.738570    60Ap     2.790934
      45App    2.811424    61Ap     2.889499    46App    2.890367
      62Ap     2.894979    63Ap     2.929443    47App    2.929545
      48App    2.958953    49App    2.964334    64Ap     2.964465
      65Ap     3.034010    50App    3.070511    66Ap     3.071977
      51App    3.084455    67Ap     3.168156    52App    3.169412
      68Ap     3.180598    53App    3.285195    69Ap     3.285425
      70Ap     3.326429    54App    3.327879    71Ap     3.375636
      55App    3.490009    72Ap     3.490288    56App    3.514010
      73Ap     3.525298    57App    3.568155    74Ap     3.568552
      58App    3.575229    75Ap     3.666045    59App    3.666758
      76Ap     3.679671    77Ap     3.693901    60App    3.694315
      61App    3.775672    78Ap     3.777896    79Ap     3.789176
      62App    3.911930    80Ap     3.912543    81Ap     4.034445
      82Ap     4.109592    63App    4.113123    83Ap     4.147226
      64App    4.148711    84Ap     4.173495    65App    4.202280
      85Ap     4.202670    86Ap     4.203895    66App    4.210934
      87Ap     4.315828    67App    4.316068    68App    4.359005
      88Ap     4.424165    69App    4.424720    70App    4.443466
      89Ap     4.515370    71App    4.518307    90Ap     4.577889
      72App    4.578574    91Ap     4.617588    92Ap     4.709428
      73App    4.774480    93Ap     4.774715    74App    4.836961
      94Ap     4.962859    95Ap     5.002247    75App    5.003680
      96Ap     5.227660    76App    5.246222    97Ap     5.247723
      98Ap     5.353541    77App    5.357473    78App    5.479389

    Beta Occupied:

       1Ap   -10.167950     1App  -10.167695     2Ap   -10.167679
       3Ap   -10.166519     4Ap    -0.781092     2App   -0.684043
       5Ap    -0.683937     6Ap    -0.511750     3App   -0.431292
       7Ap    -0.430793     8Ap    -0.421821     4App   -0.376731
       9Ap    -0.376635     5App   -0.362600    10Ap    -0.333217
       6App   -0.333019

    Beta Virtual:

      11Ap    -0.025742    12Ap     0.077079     7App    0.134929
      13Ap     0.135157    14Ap     0.144326     8App    0.144670
      15Ap     0.163342    16Ap     0.182378     9App    0.182522
      10App    0.215030    17Ap     0.218931    18Ap     0.281966
      11App    0.282701    12App    0.400184    19Ap     0.400608
      20Ap     0.419791    13App    0.426689    21Ap     0.427131
      22Ap     0.468501    14App    0.497539    23Ap     0.497765
      15App    0.513894    24Ap     0.556325    25Ap     0.584018
      16App    0.584718    26Ap     0.597356    17App    0.598259
      27Ap     0.610008    28Ap     0.628113    18App    0.631925
      29Ap     0.639241    19App    0.639857    30Ap     0.666813
      20App    0.667137    21App    0.686370    31Ap     0.686617
      32Ap     0.757517    33Ap     0.830573    22App    0.830575
      23App    0.855268    24App    0.922904    34Ap     0.923071
      25App    0.945959    35Ap     0.953511    26App    0.965863
      36Ap     0.967375    37Ap     1.008700    27App    1.131574
      38Ap     1.132691    39Ap     1.155604    28App    1.168280
      40Ap     1.168424    41Ap     1.232296    42Ap     1.279675
      29App    1.280497    43Ap     1.285103    44Ap     1.329129
      30App    1.329562    45Ap     1.365405    46Ap     1.370930
      31App    1.371658    32App    1.393521    47Ap     1.407114
      33App    1.407917    34App    1.421899    48Ap     1.422424
      35App    1.428160    36App    1.492550    49Ap     1.509514
      37App    1.546937    50Ap     1.547571    51Ap     1.582112
      38App    1.582522    52Ap     1.674675    53Ap     1.744070
      39App    1.746291    54Ap     1.779093    40App    1.834943
      55Ap     1.835560    41App    1.972600    56Ap     2.024940
      42App    2.025960    57Ap     2.039664    58Ap     2.057993
      43App    2.060732    44App    2.746753    59Ap     2.746883
      45App    2.811836    60Ap     2.816066    61Ap     2.902230
      46App    2.903037    62Ap     2.924662    47App    2.931965
      63Ap     2.931982    48App    2.960032    49App    2.968886
      64Ap     2.968986    65Ap     3.041944    50App    3.080313
      66Ap     3.081876    51App    3.086390    67Ap     3.183893
      52App    3.185166    68Ap     3.188291    53App    3.290008
      69Ap     3.290210    70Ap     3.330217    54App    3.331700
      71Ap     3.383454    55App    3.492733    72Ap     3.493024
      56App    3.512377    73Ap     3.528352    57App    3.574894
      58App    3.581649    74Ap     3.581920    75Ap     3.670703
      59App    3.671606    76Ap     3.692952    77Ap     3.725664
      60App    3.725819    61App    3.780273    78Ap     3.782352
      79Ap     3.817717    62App    3.921663    80Ap     3.922441
      81Ap     4.045332    82Ap     4.116311    63App    4.120037
      83Ap     4.154692    64App    4.155711    84Ap     4.187496
      65App    4.208260    85Ap     4.209793    86Ap     4.210643
      66App    4.215410    87Ap     4.323204    67App    4.323567
      68App    4.362374    88Ap     4.432356    69App    4.432940
      70App    4.446368    89Ap     4.523163    71App    4.526092
      90Ap     4.588455    72App    4.589205    91Ap     4.624785
      92Ap     4.719773    73App    4.781450    93Ap     4.781654
      74App    4.839878    94Ap     4.967653    95Ap     5.006279
      75App    5.007726    96Ap     5.233287    76App    5.248013
      97Ap     5.249593    98Ap     5.360010    77App    5.363962
      78App    5.481712

    Final Occupation by Irrep:
             Ap   App
    DOCC [    10,    6 ]
    SOCC [     1,    0 ]

  @DF-UKS Final Energy:  -157.81306053576657

   => Energetics <=

    Nuclear Repulsion Energy =            125.3946559025711451
    One-Electron Energy =                -458.7489524379702743
    Two-Electron Energy =                 195.8483806874081381
    DFT Exchange-Correlation Energy =     -20.3071446877755371
    Empirical Dispersion Energy =           0.0000000000000000
    VV10 Nonlocal Energy =                  0.0000000000000000
    Total Energy =                       -157.8130605357665672

  UHF NO Occupations:
  HONO-2 :    9 Ap 1.9996009
  HONO-1 :   10 Ap 1.9989804
  HONO-0 :   11 Ap 1.0000000
  LUNO+0 :   12 Ap 0.0010196
  LUNO+1 :   13 Ap 0.0003991
  LUNO+2 :   14 Ap 0.0001979
  LUNO+3 :    7App 0.0001972

Computation Completed

Properties will be evaluated at   0.000000,   0.000000,   0.000000 [a0]

Properties computed using the SCF density matrix

  Nuclear Dipole Moment: [e a0]
     X:     0.8272      Y:     0.0065      Z:     0.0000

  Electronic Dipole Moment: [e a0]
     X:    -0.7493      Y:    -0.0083      Z:     0.0000

  Dipole Moment: [e a0]
     X:     0.0779      Y:    -0.0018      Z:     0.0000     Total:     0.0779

  Dipole Moment: [D]
     X:     0.1980      Y:    -0.0045      Z:     0.0000     Total:     0.1981

*** tstop() called on n091 at Fri Nov  5 14:27:07 2021
Module time:
	user time   =     492.20 seconds =       8.20 minutes
	system time =       4.54 seconds =       0.08 minutes
	total time  =        125 seconds =       2.08 minutes
Total time:
	user time   =     492.20 seconds =       8.20 minutes
	system time =       4.54 seconds =       0.08 minutes
	total time  =        125 seconds =       2.08 minutes
Grab this energy -157.81306053576657
    Psi4 stopped on: Friday, 05 November 2021 02:27PM
    Psi4 wall time for execution: 0:02:04.94

*** Psi4 exiting successfully. Buy a developer a beer!
