                               Psi4 1.4a2.dev629

  ==> Input File <==

--------------------------------------------------------------------------
import os
memory 14 GB

molecule {
 C   -0.3218891483    0.0010180513    0.0000000000
 C    0.0599092917   -1.4023761648   -2.4258509580
 C    0.0609136569    2.8014590962   -0.0000000000
 C    0.0599092917   -1.4023761648    2.4258509580
 H    2.0870270449   -1.6435226829   -2.8476641441
 H   -0.7650114301   -0.3878631131   -4.0255511980
 H   -0.7654283258   -3.2918996254   -2.3490898723
 H    2.0867683376    3.2881548655    0.0000000000
 H   -0.7656969422    3.6803334229    1.6764622295
 H   -0.7656969422    3.6803334229   -1.6764622295
 H    2.0870270449   -1.6435226829    2.8476641441
 H   -0.7654283258   -3.2918996254    2.3490898723
 H   -0.7650114301   -0.3878631131    4.0255511980
units bohr
0 2
}

basis {

assign 6-31g_2dfp_

[ 6-31g_2dfp_ ]

spherical

!----------------------------------------------------------------------
! Basis Set Exchange
! Version v0.8.13
! https://www.basissetexchange.org
!----------------------------------------------------------------------
!   Basis set: 6-31G(2df,p)
! Description: 6-31G(2df,p)
!        Role: orbital
!     Version: 0  (Data from the original Basis Set Exchange)
!----------------------------------------------------------------------

****
H     0
S    3   1.00
     18.7311370              0.03349460
      2.8253937              0.23472695
      0.6401217              0.81375733
S    1   1.00
      0.1612778              1.00000000
P    1   1.00
      1.5000000              1.0000000
P    1   1.00
      0.3750000              1.0000000
****
B     0
S    6   1.00
   2068.8823000              0.0018663
    310.6495700              0.0142515
     70.6830330              0.0695516
     19.8610800              0.2325729
      6.2993048              0.4670787
      2.1270270              0.3634314
SP   3   1.00
      4.7279710             -0.1303938              0.0745976
      1.1903377             -0.1307889              0.3078467
      0.3594117              1.1309444              0.7434568
SP   1   1.00
      0.1267512              1.0000000              1.0000000
D    1   1.00
      0.8020000              1.0000000
D    1   1.00
      0.2005000              1.0000000
F    1   1.00
      0.5000000              1.0000000
****
C     0
S    6   1.00
   3047.5249000              0.0018347
    457.3695100              0.0140373
    103.9486900              0.0688426
     29.2101550              0.2321844
      9.2866630              0.4679413
      3.1639270              0.3623120
SP   3   1.00
      7.8682724             -0.1193324              0.0689991
      1.8812885             -0.1608542              0.3164240
      0.5442493              1.1434564              0.7443083
SP   1   1.00
      0.1687144              1.0000000              1.0000000
D    1   1.00
      1.2520000              1.0000000
D    1   1.00
      0.3130000              1.0000000
F    1   1.00
      0.8000000              1.0000000
****
N     0
S    6   1.00
   4173.5110000              0.0018348
    627.4579000              0.0139950
    142.9021000              0.0685870
     40.2343300              0.2322410
     12.8202100              0.4690700
      4.3904370              0.3604550
SP   3   1.00
     11.6263580             -0.1149610              0.0675800
      2.7162800             -0.1691180              0.3239070
      0.7722180              1.1458520              0.7408950
SP   1   1.00
      0.2120313              1.0000000              1.0000000
D    1   1.00
      1.8260000              1.0000000
D    1   1.00
      0.4565000              1.0000000
F    1   1.00
      1.0000000              1.0000000
****
O     0
S    6   1.00
   5484.6717000              0.0018311
    825.2349500              0.0139501
    188.0469600              0.0684451
     52.9645000              0.2327143
     16.8975700              0.4701930
      5.7996353              0.3585209
SP   3   1.00
     15.5396160             -0.1107775              0.0708743
      3.5999336             -0.1480263              0.3397528
      1.0137618              1.1307670              0.7271586
SP   1   1.00
      0.2700058              1.0000000              1.0000000
D    1   1.00
      2.5840000              1.0000000
D    1   1.00
      0.6460000              1.0000000
F    1   1.00
      1.4000000              1.0000000
****
F     0
S    6   1.00
   7001.7130900              0.0018196169
   1051.3660900              0.0139160796
    239.2856900              0.0684053245
     67.3974453              0.233185760
     21.5199573              0.471267439
      7.40310130             0.356618546
SP   3   1.00
     20.8479528             -0.108506975            0.0716287243
      4.80830834            -0.146451658            0.3459121030
      1.34406986             1.128688580            0.7224699570
SP   1   1.00
      0.358151393            1.0000000              1.0000000
D    1   1.00
      3.5000000              1.0000000
D    1   1.00
      0.8750000              1.0000000
F    1   1.00
      1.8500000              1.0000000
****
Al     0
S    6   1.00
  13983.1000000              0.00194267
   2098.7500000              0.0148599
    477.7050000              0.0728494
    134.3600000              0.2468300
     42.8709000              0.4872580
     14.5189000              0.3234960
SP   6   1.00
    239.6680000             -0.00292619             0.00460285
     57.4419000             -0.0374080              0.0331990
     18.2859000             -0.1144870              0.1362820
      6.5991400              0.1156350              0.3304760
      2.4904900              0.6125950              0.4491460
      0.9445400              0.3937990              0.2657040
SP   3   1.00
      1.2779000             -0.2276060             -0.0175130
      0.3975900              0.00144583             0.2445330
      0.1600950              1.0927900              0.8049340
SP   1   1.00
      0.0556577              1.0000000              1.0000000
D    1   1.00
      0.6500000              1.0000000
D    1   1.00
      0.1625000              1.0000000
F    1   1.00
      0.2500000              1.0000000
****
Si     0
S    6   1.00
  16115.9000000              0.00195948
   2425.5800000              0.01492880
    553.8670000              0.07284780
    156.3400000              0.24613000
     50.0683000              0.48591400
     17.0178000              0.32500200
SP   6   1.00
    292.7180000             -0.00278094             0.00443826
     69.8731000             -0.03571460             0.03266790
     22.3363000             -0.11498500             0.13472100
      8.1503900              0.09356340             0.32867800
      3.1345800              0.60301700             0.44964000
      1.2254300              0.41895900             0.26137200
SP   3   1.00
      1.7273800             -0.24463000            -0.01779510
      0.5729220              0.00431572             0.25353900
      0.2221920              1.09818000             0.80066900
SP   1   1.00
      0.0778369              1.00000000             1.00000000
D    1   1.00
      0.9000000              1.0000000
D    1   1.00
      0.2250000              1.0000000
F    1   1.00
      0.3200000              1.0000000
****
P     0
S    6   1.00
  19413.3000000              0.0018516
   2909.4200000              0.0142062
    661.3640000              0.0699995
    185.7590000              0.2400790
     59.1943000              0.4847620
     20.0310000              0.3352000
SP   6   1.00
    339.4780000             -0.00278217             0.00456462
     81.0101000             -0.0360499              0.03369360
     25.8780000             -0.1166310              0.13975500
      9.4522100              0.0968328              0.33936200
      3.6656600              0.6144180              0.45092100
      1.4674600              0.4037980              0.23858600
SP   3   1.00
      2.1562300             -0.2529230             -0.01776530
      0.7489970              0.0328517              0.27405800
      0.2831450              1.0812500              0.78542100
SP   1   1.00
      0.0998317              1.0000000              1.00000000
D    1   1.00
      1.1000000              1.0000000
D    1   1.00
      0.2750000              1.0000000
F    1   1.00
      0.4500000              1.0000000
****
S     0
S    6   1.00
  21917.1000000              0.0018690
   3301.4900000              0.0142300
    754.1460000              0.0696960
    212.7110000              0.2384870
     67.9896000              0.4833070
     23.0515000              0.3380740
SP   6   1.00
    423.7350000             -0.0023767              0.0040610
    100.7100000             -0.0316930              0.0306810
     32.1599000             -0.1133170              0.1304520
     11.8079000              0.0560900              0.3272050
      4.6311000              0.5922550              0.4528510
      1.8702500              0.4550060              0.2560420
SP   3   1.00
      2.6158400             -0.2503740             -0.0145110
      0.9221670              0.0669570              0.3102630
      0.3412870              1.0545100              0.7544830
SP   1   1.00
      0.1171670              1.0000000              1.0000000
D    1   1.00
      1.3000000              1.0000000
D    1   1.00
      0.3250000              1.0000000
F    1   1.00
      0.5500000              1.0000000
****
Cl     0
S    6   1.00
  25180.1000000              0.0018330
   3780.3500000              0.0140340
    860.4740000              0.0690970
    242.1450000              0.2374520
     77.3349000              0.4830340
     26.2470000              0.3398560
SP   6   1.00
    491.7650000             -0.0022974              0.0039894
    116.9840000             -0.0307140              0.0303180
     37.4153000             -0.1125280              0.1298800
     13.7834000              0.0450160              0.3279510
      5.4521500              0.5893530              0.4535270
      2.2258800              0.4652060              0.2521540
SP   3   1.00
      3.1864900             -0.2518300             -0.0142990
      1.1442700              0.0615890              0.3235720
      0.4203770              1.0601800              0.7435070
SP   1   1.00
      0.1426570              1.0000000              1.0000000
D    1   1.00
      1.5000000              1.0000000
D    1   1.00
      0.3750000              1.0000000
F    1   1.00
      0.7000000              1.0000000
****
}

set {
reference uhf
freeze_core true
e_convergence 10
d_convergence 10
dft_spherical_points 1202
dft_radial_points 99
}

e = energy('b3lyp')

print_out('Grab this energy {0}'.format(e))
--------------------------------------------------------------------------

    Molecular point group: cs

    Geometry (in Bohr), charge = 0, multiplicity = 2:

       Center              X                  Y                   Z               Mass
    ------------   -----------------  -----------------  -----------------  -----------------
         C           -0.321674020854     0.001456697121     0.000000000000    12.000000000000
         C            0.060124419146    -1.401937518979    -2.425850958000    12.000000000000
         C            0.061128784346     2.801897742021     0.000000000000    12.000000000000
         C            0.060124419146    -1.401937518979     2.425850958000    12.000000000000
         H            2.087242172346    -1.643084037079    -2.847664144100     1.007825032230
         H           -0.764796302654    -0.387424467279    -4.025551198000     1.007825032230
         H           -0.765213198354    -3.291460979579    -2.349089872300     1.007825032230
         H            2.086983465046     3.288593511321     0.000000000000     1.007825032230
         H           -0.765481814754     3.680772068721     1.676462229500     1.007825032230
         H           -0.765481814754     3.680772068721    -1.676462229500     1.007825032230
         H            2.087242172346    -1.643084037079     2.847664144100     1.007825032230
         H           -0.765213198354    -3.291460979579     2.349089872300     1.007825032230
         H           -0.764796302654    -0.387424467279     4.025551198000     1.007825032230

  Charge       = 0
  Multiplicity = 2
  Basis Set: ANONYMOUS6F1BFBDF
    Blend: 6-31G_2DFP_
  Basis Set: (ANONYMOUS6F1BFBDF AUX)
    Blend: DEF2-UNIVERSAL-JKFIT

    Orbital Energies [Eh]
    ---------------------

    Alpha Occupied:

       1Ap   -10.180276     2Ap   -10.167061     1App  -10.167023
       3Ap   -10.166986     4Ap    -0.797781     5Ap    -0.686284
       2App   -0.686124     6Ap    -0.530770     7Ap    -0.441068
       3App   -0.434744     8Ap    -0.434724     9Ap    -0.382531
       4App   -0.382454     5App   -0.363735    10Ap    -0.338385
       6App   -0.337797    11Ap    -0.168778

    Alpha Virtual:

      12Ap     0.076069     7App    0.134122    13Ap     0.134196
       8App    0.142588    14Ap     0.142716    15Ap     0.154799
      16Ap     0.178660     9App    0.178759    17Ap     0.203521
      10App    0.214851    11App    0.276032    18Ap     0.276284
      12App    0.399143    19Ap     0.399356    20Ap     0.403423
      21Ap     0.424122    13App    0.424130    22Ap     0.456499
      23Ap     0.495379    14App    0.495451    15App    0.512115
      24Ap     0.514078    16App    0.578651    25Ap     0.578727
      17App    0.591587    26Ap     0.591626    27Ap     0.602352
      28Ap     0.624841    18App    0.631830    19App    0.636408
      29Ap     0.636409    20App    0.663163    30Ap     0.663342
      31Ap     0.683951    21App    0.683974    32Ap     0.735190
      33Ap     0.825461    22App    0.825464    23App    0.853914
      34Ap     0.914988    24App    0.915193    25App    0.944079
      35Ap     0.944564    26App    0.961204    36Ap     0.961346
      37Ap     1.003453    38Ap     1.127993    27App    1.128040
      39Ap     1.142196    40Ap     1.162817    28App    1.162863
      41Ap     1.223487    29App    1.274374    42Ap     1.274733
      43Ap     1.279115    30App    1.324551    44Ap     1.324667
      45Ap     1.355755    46Ap     1.366199    31App    1.366662
      32App    1.392430    33App    1.403772    47Ap     1.404251
      34App    1.416617    48Ap     1.417131    35App    1.427866
      36App    1.491677    49Ap     1.498687    37App    1.542609
      50Ap     1.542953    51Ap     1.574412    38App    1.575051
      52Ap     1.670084    39App    1.739555    53Ap     1.739752
      54Ap     1.768279    55Ap     1.831716    40App    1.831855
      41App    1.971985    56Ap     2.018221    42App    2.019183
      57Ap     2.019400    58Ap     2.051649    43App    2.052847
      44App    2.738631    59Ap     2.738728    60Ap     2.790724
      45App    2.811459    46App    2.889536    61Ap     2.890871
      62Ap     2.894626    47App    2.929311    63Ap     2.929642
      48App    2.959061    64Ap     2.964186    49App    2.964790
      65Ap     3.033655    50App    3.071987    66Ap     3.072268
      51App    3.084423    67Ap     3.168518    52App    3.168786
      68Ap     3.180639    53App    3.284295    69Ap     3.284735
      70Ap     3.326756    54App    3.326855    71Ap     3.375451
      55App    3.490337    72Ap     3.490440    56App    3.514198
      73Ap     3.524866    74Ap     3.568587    57App    3.568770
      58App    3.574528    59App    3.666766    75Ap     3.667124
      76Ap     3.679908    60App    3.694030    77Ap     3.694083
      78Ap     3.777071    61App    3.777107    79Ap     3.790381
      62App    3.911892    80Ap     3.912596    81Ap     4.034770
      82Ap     4.111390    63App    4.111835    64App    4.147971
      83Ap     4.148339    84Ap     4.173287    85Ap     4.202715
      65App    4.202774    86Ap     4.203122    66App    4.210790
      67App    4.314980    87Ap     4.316541    68App    4.358488
      88Ap     4.424043    69App    4.425142    70App    4.443719
      71App    4.516351    89Ap     4.516731    72App    4.577869
      90Ap     4.578452    91Ap     4.618023    92Ap     4.709132
      93Ap     4.774586    73App    4.774902    74App    4.838103
      94Ap     4.962763    95Ap     5.002528    75App    5.003071
      96Ap     5.228141    76App    5.246676    97Ap     5.247172
      77App    5.355769    98Ap     5.355792    78App    5.479717

    Beta Occupied:

       1Ap   -10.167819     1App  -10.167778     2Ap   -10.167758
       3Ap   -10.166458     4Ap    -0.781102     5Ap    -0.684086
       2App   -0.683932     6Ap    -0.511750     3App   -0.431132
       7Ap    -0.431100     8Ap    -0.421733     9Ap    -0.376613
       4App   -0.376522     5App   -0.362720    10Ap    -0.333503
       6App   -0.332917

    Beta Virtual:

      11Ap    -0.025641    12Ap     0.077082     7App    0.135010
      13Ap     0.135109     8App    0.144473    14Ap     0.144565
      15Ap     0.163269    16Ap     0.182342     9App    0.182417
      10App    0.215080    17Ap     0.218925    11App    0.282382
      18Ap     0.282606    12App    0.400312    19Ap     0.400526
      20Ap     0.419895    21Ap     0.426931    13App    0.426939
      22Ap     0.468394    23Ap     0.497637    14App    0.497704
      15App    0.513854    24Ap     0.556424    16App    0.584215
      25Ap     0.584291    17App    0.597752    26Ap     0.597809
      27Ap     0.609801    28Ap     0.628194    18App    0.631987
      29Ap     0.639686    19App    0.639689    20App    0.666721
      30Ap     0.666907    31Ap     0.686590    21App    0.686617
      32Ap     0.757693    22App    0.830626    33Ap     0.830628
      23App    0.855271    34Ap     0.922949    24App    0.923154
      25App    0.945918    35Ap     0.953499    26App    0.966554
      36Ap     0.966675    37Ap     1.008674    38Ap     1.132026
      27App    1.132049    39Ap     1.155598    40Ap     1.167890
      28App    1.167949    41Ap     1.232463    29App    1.279930
      42Ap     1.280338    43Ap     1.284862    30App    1.329522
      44Ap     1.329658    45Ap     1.365197    46Ap     1.371420
      31App    1.371934    32App    1.393496    33App    1.407228
      47Ap     1.407727    34App    1.421706    48Ap     1.422182
      35App    1.428131    36App    1.492727    49Ap     1.509124
      37App    1.547007    50Ap     1.547373    51Ap     1.582293
      38App    1.582913    52Ap     1.674916    39App    1.745319
      53Ap     1.745515    54Ap     1.779077    55Ap     1.835582
      40App    1.835716    41App    1.972847    56Ap     2.024736
      42App    2.025575    57Ap     2.040675    58Ap     2.058323
      43App    2.059562    44App    2.746973    59Ap     2.747058
      45App    2.811862    60Ap     2.815879    46App    2.902194
      61Ap     2.903499    62Ap     2.924351    47App    2.931769
      63Ap     2.932173    48App    2.960125    64Ap     2.968732
      49App    2.969311    65Ap     3.041631    50App    3.081850
      66Ap     3.082146    51App    3.086243    67Ap     3.184322
      52App    3.184661    68Ap     3.188296    53App    3.289163
      69Ap     3.289541    70Ap     3.330540    54App    3.330663
      71Ap     3.383260    55App    3.493033    72Ap     3.493167
      56App    3.512557    73Ap     3.527903    57App    3.574373
      74Ap     3.581929    58App    3.582034    59App    3.671437
      75Ap     3.671998    76Ap     3.693197    77Ap     3.725518
      60App    3.725840    61App    3.781538    78Ap     3.781614
      79Ap     3.818935    62App    3.921725    80Ap     3.922471
      81Ap     4.045629    82Ap     4.118221    63App    4.118663
      64App    4.155202    83Ap     4.155498    84Ap     4.187387
      65App    4.208701    85Ap     4.208757    86Ap     4.210987
      66App    4.215283    67App    4.322368    87Ap     4.323993
      68App    4.361849    88Ap     4.432305    69App    4.433383
      70App    4.446610    71App    4.524173    89Ap     4.524526
      72App    4.588459    90Ap     4.588997    91Ap     4.625223
      92Ap     4.719452    93Ap     4.781544    73App    4.781821
      74App    4.841009    94Ap     4.967561    95Ap     5.006580
      75App    5.007125    96Ap     5.233854    76App    5.248469
      97Ap     5.248949    77App    5.362222    98Ap     5.362284
      78App    5.482032

    Final Occupation by Irrep:
             Ap   App
    DOCC [    10,    6 ]
    SOCC [     1,    0 ]

  @DF-UKS Final Energy:  -157.81307899915254

   => Energetics <=

    Nuclear Repulsion Energy =            125.3970292319309721
    One-Electron Energy =                -458.7535611122489172
    Two-Electron Energy =                 195.8506636461138442
    DFT Exchange-Correlation Energy =     -20.3072107649484188
    Empirical Dispersion Energy =           0.0000000000000000
    VV10 Nonlocal Energy =                  0.0000000000000000
    Total Energy =                       -157.8130789991525376

  UHF NO Occupations:
  HONO-2 :    9 Ap 1.9995994
  HONO-1 :   10 Ap 1.9989790
  HONO-0 :   11 Ap 1.0000000
  LUNO+0 :   12 Ap 0.0010210
  LUNO+1 :   13 Ap 0.0004006
  LUNO+2 :    7App 0.0001979
  LUNO+3 :   14 Ap 0.0001970

Computation Completed

Properties will be evaluated at   0.000000,   0.000000,   0.000000 [a0]

Properties computed using the SCF density matrix

  Nuclear Dipole Moment: [e a0]
     X:     0.8287      Y:     0.0031      Z:    -0.0000

  Electronic Dipole Moment: [e a0]
     X:    -0.7516      Y:    -0.0030      Z:     0.0000

  Dipole Moment: [e a0]
     X:     0.0771      Y:     0.0001      Z:    -0.0000     Total:     0.0771

  Dipole Moment: [D]
     X:     0.1961      Y:     0.0001      Z:    -0.0000     Total:     0.1961

*** tstop() called on n067 at Fri Nov  5 11:29:07 2021
Module time:
	user time   =     544.93 seconds =       9.08 minutes
	system time =      12.14 seconds =       0.20 minutes
	total time  =        140 seconds =       2.33 minutes
Total time:
	user time   =     544.93 seconds =       9.08 minutes
	system time =      12.14 seconds =       0.20 minutes
	total time  =        140 seconds =       2.33 minutes
Grab this energy -157.81307899915254
    Psi4 stopped on: Friday, 05 November 2021 11:29AM
    Psi4 wall time for execution: 0:02:20.09

*** Psi4 exiting successfully. Buy a developer a beer!
