                               Psi4 1.4a2.dev629

  ==> Input File <==

--------------------------------------------------------------------------
import os
memory 14 GB

molecule {
 C   -0.3275328287   -0.0000021584    0.0000000000
 C    0.0587552074   -1.4010443476   -2.4266693728
 C    0.0586353233    2.8020927258   -0.0000000000
 C    0.0587552074   -1.4010443476    2.4266693728
 H    2.0905828956   -1.6444382121   -2.8480299238
 H   -0.7653373577   -0.3896596907   -4.0240759688
 H   -0.7654999473   -3.2900626371   -2.3495306461
 H    2.0904441545    3.2887834230   -0.0000000000
 H   -0.7655780608    3.6797557355    1.6745512986
 H   -0.7655780608    3.6797557355   -1.6745512986
 H    2.0905828956   -1.6444382121    2.8480299238
 H   -0.7654999473   -3.2900626371    2.3495306461
 H   -0.7653373577   -0.3896596907    4.0240759688
units bohr
0 2
}

basis {

assign 6-31g_2dfp_

[ 6-31g_2dfp_ ]

spherical

!----------------------------------------------------------------------
! Basis Set Exchange
! Version v0.8.13
! https://www.basissetexchange.org
!----------------------------------------------------------------------
!   Basis set: 6-31G(2df,p)
! Description: 6-31G(2df,p)
!        Role: orbital
!     Version: 0  (Data from the original Basis Set Exchange)
!----------------------------------------------------------------------

****
H     0
S    3   1.00
     18.7311370              0.03349460
      2.8253937              0.23472695
      0.6401217              0.81375733
S    1   1.00
      0.1612778              1.00000000
P    1   1.00
      1.5000000              1.0000000
P    1   1.00
      0.3750000              1.0000000
****
B     0
S    6   1.00
   2068.8823000              0.0018663
    310.6495700              0.0142515
     70.6830330              0.0695516
     19.8610800              0.2325729
      6.2993048              0.4670787
      2.1270270              0.3634314
SP   3   1.00
      4.7279710             -0.1303938              0.0745976
      1.1903377             -0.1307889              0.3078467
      0.3594117              1.1309444              0.7434568
SP   1   1.00
      0.1267512              1.0000000              1.0000000
D    1   1.00
      0.8020000              1.0000000
D    1   1.00
      0.2005000              1.0000000
F    1   1.00
      0.5000000              1.0000000
****
C     0
S    6   1.00
   3047.5249000              0.0018347
    457.3695100              0.0140373
    103.9486900              0.0688426
     29.2101550              0.2321844
      9.2866630              0.4679413
      3.1639270              0.3623120
SP   3   1.00
      7.8682724             -0.1193324              0.0689991
      1.8812885             -0.1608542              0.3164240
      0.5442493              1.1434564              0.7443083
SP   1   1.00
      0.1687144              1.0000000              1.0000000
D    1   1.00
      1.2520000              1.0000000
D    1   1.00
      0.3130000              1.0000000
F    1   1.00
      0.8000000              1.0000000
****
N     0
S    6   1.00
   4173.5110000              0.0018348
    627.4579000              0.0139950
    142.9021000              0.0685870
     40.2343300              0.2322410
     12.8202100              0.4690700
      4.3904370              0.3604550
SP   3   1.00
     11.6263580             -0.1149610              0.0675800
      2.7162800             -0.1691180              0.3239070
      0.7722180              1.1458520              0.7408950
SP   1   1.00
      0.2120313              1.0000000              1.0000000
D    1   1.00
      1.8260000              1.0000000
D    1   1.00
      0.4565000              1.0000000
F    1   1.00
      1.0000000              1.0000000
****
O     0
S    6   1.00
   5484.6717000              0.0018311
    825.2349500              0.0139501
    188.0469600              0.0684451
     52.9645000              0.2327143
     16.8975700              0.4701930
      5.7996353              0.3585209
SP   3   1.00
     15.5396160             -0.1107775              0.0708743
      3.5999336             -0.1480263              0.3397528
      1.0137618              1.1307670              0.7271586
SP   1   1.00
      0.2700058              1.0000000              1.0000000
D    1   1.00
      2.5840000              1.0000000
D    1   1.00
      0.6460000              1.0000000
F    1   1.00
      1.4000000              1.0000000
****
F     0
S    6   1.00
   7001.7130900              0.0018196169
   1051.3660900              0.0139160796
    239.2856900              0.0684053245
     67.3974453              0.233185760
     21.5199573              0.471267439
      7.40310130             0.356618546
SP   3   1.00
     20.8479528             -0.108506975            0.0716287243
      4.80830834            -0.146451658            0.3459121030
      1.34406986             1.128688580            0.7224699570
SP   1   1.00
      0.358151393            1.0000000              1.0000000
D    1   1.00
      3.5000000              1.0000000
D    1   1.00
      0.8750000              1.0000000
F    1   1.00
      1.8500000              1.0000000
****
Al     0
S    6   1.00
  13983.1000000              0.00194267
   2098.7500000              0.0148599
    477.7050000              0.0728494
    134.3600000              0.2468300
     42.8709000              0.4872580
     14.5189000              0.3234960
SP   6   1.00
    239.6680000             -0.00292619             0.00460285
     57.4419000             -0.0374080              0.0331990
     18.2859000             -0.1144870              0.1362820
      6.5991400              0.1156350              0.3304760
      2.4904900              0.6125950              0.4491460
      0.9445400              0.3937990              0.2657040
SP   3   1.00
      1.2779000             -0.2276060             -0.0175130
      0.3975900              0.00144583             0.2445330
      0.1600950              1.0927900              0.8049340
SP   1   1.00
      0.0556577              1.0000000              1.0000000
D    1   1.00
      0.6500000              1.0000000
D    1   1.00
      0.1625000              1.0000000
F    1   1.00
      0.2500000              1.0000000
****
Si     0
S    6   1.00
  16115.9000000              0.00195948
   2425.5800000              0.01492880
    553.8670000              0.07284780
    156.3400000              0.24613000
     50.0683000              0.48591400
     17.0178000              0.32500200
SP   6   1.00
    292.7180000             -0.00278094             0.00443826
     69.8731000             -0.03571460             0.03266790
     22.3363000             -0.11498500             0.13472100
      8.1503900              0.09356340             0.32867800
      3.1345800              0.60301700             0.44964000
      1.2254300              0.41895900             0.26137200
SP   3   1.00
      1.7273800             -0.24463000            -0.01779510
      0.5729220              0.00431572             0.25353900
      0.2221920              1.09818000             0.80066900
SP   1   1.00
      0.0778369              1.00000000             1.00000000
D    1   1.00
      0.9000000              1.0000000
D    1   1.00
      0.2250000              1.0000000
F    1   1.00
      0.3200000              1.0000000
****
P     0
S    6   1.00
  19413.3000000              0.0018516
   2909.4200000              0.0142062
    661.3640000              0.0699995
    185.7590000              0.2400790
     59.1943000              0.4847620
     20.0310000              0.3352000
SP   6   1.00
    339.4780000             -0.00278217             0.00456462
     81.0101000             -0.0360499              0.03369360
     25.8780000             -0.1166310              0.13975500
      9.4522100              0.0968328              0.33936200
      3.6656600              0.6144180              0.45092100
      1.4674600              0.4037980              0.23858600
SP   3   1.00
      2.1562300             -0.2529230             -0.01776530
      0.7489970              0.0328517              0.27405800
      0.2831450              1.0812500              0.78542100
SP   1   1.00
      0.0998317              1.0000000              1.00000000
D    1   1.00
      1.1000000              1.0000000
D    1   1.00
      0.2750000              1.0000000
F    1   1.00
      0.4500000              1.0000000
****
S     0
S    6   1.00
  21917.1000000              0.0018690
   3301.4900000              0.0142300
    754.1460000              0.0696960
    212.7110000              0.2384870
     67.9896000              0.4833070
     23.0515000              0.3380740
SP   6   1.00
    423.7350000             -0.0023767              0.0040610
    100.7100000             -0.0316930              0.0306810
     32.1599000             -0.1133170              0.1304520
     11.8079000              0.0560900              0.3272050
      4.6311000              0.5922550              0.4528510
      1.8702500              0.4550060              0.2560420
SP   3   1.00
      2.6158400             -0.2503740             -0.0145110
      0.9221670              0.0669570              0.3102630
      0.3412870              1.0545100              0.7544830
SP   1   1.00
      0.1171670              1.0000000              1.0000000
D    1   1.00
      1.3000000              1.0000000
D    1   1.00
      0.3250000              1.0000000
F    1   1.00
      0.5500000              1.0000000
****
Cl     0
S    6   1.00
  25180.1000000              0.0018330
   3780.3500000              0.0140340
    860.4740000              0.0690970
    242.1450000              0.2374520
     77.3349000              0.4830340
     26.2470000              0.3398560
SP   6   1.00
    491.7650000             -0.0022974              0.0039894
    116.9840000             -0.0307140              0.0303180
     37.4153000             -0.1125280              0.1298800
     13.7834000              0.0450160              0.3279510
      5.4521500              0.5893530              0.4535270
      2.2258800              0.4652060              0.2521540
SP   3   1.00
      3.1864900             -0.2518300             -0.0142990
      1.1442700              0.0615890              0.3235720
      0.4203770              1.0601800              0.7435070
SP   1   1.00
      0.1426570              1.0000000              1.0000000
D    1   1.00
      1.5000000              1.0000000
D    1   1.00
      0.3750000              1.0000000
F    1   1.00
      0.7000000              1.0000000
****
}

set {
reference uhf
freeze_core true
e_convergence 10
d_convergence 10
dft_spherical_points 1202
dft_radial_points 99
}

e = energy('b3lyp')

print_out('Grab this energy {0}'.format(e))
--------------------------------------------------------------------------

    Molecular point group: cs

    Geometry (in Bohr), charge = 0, multiplicity = 2:

       Center              X                  Y                   Z               Mass
    ------------   -----------------  -----------------  -----------------  -----------------
         C           -0.325347294406    -0.000002089638     0.000000000000    12.000000000000
         C            0.060940741694    -1.401044278838    -2.426669372800    12.000000000000
         C            0.060820857594     2.802092794562     0.000000000000    12.000000000000
         C            0.060940741694    -1.401044278838     2.426669372800    12.000000000000
         H            2.092768429894    -1.644438143338    -2.848029923800     1.007825032230
         H           -0.763151823406    -0.389659621938    -4.024075968800     1.007825032230
         H           -0.763314413006    -3.290062568338    -2.349530646100     1.007825032230
         H            2.092629688794     3.288783491762     0.000000000000     1.007825032230
         H           -0.763392526506     3.679755804262     1.674551298600     1.007825032230
         H           -0.763392526506     3.679755804262    -1.674551298600     1.007825032230
         H            2.092768429894    -1.644438143338     2.848029923800     1.007825032230
         H           -0.763314413006    -3.290062568338     2.349530646100     1.007825032230
         H           -0.763151823406    -0.389659621938     4.024075968800     1.007825032230

  Charge       = 0
  Multiplicity = 2
  Basis Set: ANONYMOUS2B51F4F6
    Blend: 6-31G_2DFP_
  Basis Set: (ANONYMOUS2B51F4F6 AUX)
    Blend: DEF2-UNIVERSAL-JKFIT

    Orbital Energies [Eh]
    ---------------------

    Alpha Occupied:

       1Ap   -10.180514     2Ap   -10.167057     1App  -10.167057
       3Ap   -10.167011     4Ap    -0.797676     5Ap    -0.686171
       2App   -0.686170     6Ap    -0.530791     7Ap    -0.440790
       3App   -0.434863     8Ap    -0.434862     9Ap    -0.382213
       4App   -0.382212     5App   -0.364072     6App   -0.338103
      10Ap    -0.338103    11Ap    -0.169115

    Alpha Virtual:

      12Ap     0.076175    13Ap     0.134144     7App    0.134145
      14Ap     0.142789     8App    0.142790    15Ap     0.154646
      16Ap     0.178504     9App    0.178504    17Ap     0.203459
      10App    0.215207    11App    0.275821    18Ap     0.275823
      19Ap     0.399089    12App    0.399093    20Ap     0.403211
      13App    0.424279    21Ap     0.424279    22Ap     0.456515
      23Ap     0.495621    14App    0.495622    15App    0.511939
      24Ap     0.513829    25Ap     0.578726    16App    0.578735
      17App    0.591067    26Ap     0.591069    27Ap     0.601510
      28Ap     0.625418    18App    0.632307    19App    0.636749
      29Ap     0.636752    30Ap     0.662757    20App    0.662758
      31Ap     0.684127    21App    0.684128    32Ap     0.734928
      22App    0.825197    33Ap     0.825200    23App    0.853684
      24App    0.914636    34Ap     0.914642    25App    0.944310
      35Ap     0.944735    26App    0.961280    36Ap     0.961296
      37Ap     1.004147    38Ap     1.128581    27App    1.128593
      39Ap     1.141127    40Ap     1.163387    28App    1.163400
      41Ap     1.223316    42Ap     1.273964    29App    1.273967
      43Ap     1.279039    30App    1.324247    44Ap     1.324250
      45Ap     1.355483    31App    1.366313    46Ap     1.366317
      32App    1.392469    47Ap     1.402407    33App    1.402409
      34App    1.417477    48Ap     1.417483    35App    1.427529
      36App    1.491944    49Ap     1.497651    37App    1.542846
      50Ap     1.542849    51Ap     1.574908    38App    1.574911
      52Ap     1.671624    53Ap     1.738362    39App    1.738374
      54Ap     1.766245    40App    1.833117    55Ap     1.833118
      41App    1.973301    56Ap     2.017949    57Ap     2.018685
      42App    2.018687    58Ap     2.051069    43App    2.051071
      44App    2.738474    59Ap     2.738475    60Ap     2.790318
      45App    2.812158    61Ap     2.889403    46App    2.889409
      62Ap     2.894633    63Ap     2.929853    47App    2.929861
      48App    2.959033    64Ap     2.963918    49App    2.963932
      65Ap     3.033289    50App    3.070630    66Ap     3.070643
      51App    3.085821    67Ap     3.168635    52App    3.168642
      68Ap     3.180728    69Ap     3.285581    53App    3.285581
      70Ap     3.328724    54App    3.328730    71Ap     3.375486
      55App    3.489739    72Ap     3.489759    56App    3.512341
      73Ap     3.526691    57App    3.567548    74Ap     3.567568
      58App    3.573877    75Ap     3.665993    59App    3.666002
      76Ap     3.681293    60App    3.694037    77Ap     3.694054
      78Ap     3.776332    61App    3.776358    79Ap     3.787015
      80Ap     3.912888    62App    3.912894    81Ap     4.033698
      82Ap     4.111694    63App    4.111698    83Ap     4.147719
      64App    4.147727    84Ap     4.171296    85Ap     4.202338
      65App    4.203609    86Ap     4.203612    66App    4.209532
      87Ap     4.315310    67App    4.315329    68App    4.360311
      88Ap     4.423071    69App    4.423073    70App    4.444594
      71App    4.516340    89Ap     4.516341    72App    4.579070
      90Ap     4.579083    91Ap     4.616479    92Ap     4.708559
      93Ap     4.774493    73App    4.774501    74App    4.838032
      94Ap     4.963224    75App    5.000922    95Ap     5.000934
      96Ap     5.225293    76App    5.249835    97Ap     5.249835
      98Ap     5.354021    77App    5.354033    78App    5.480796

    Beta Occupied:

       1Ap   -10.167810     1App  -10.167810     2Ap   -10.167787
       3Ap   -10.166699     4Ap    -0.781024     5Ap    -0.683990
       2App   -0.683990     6Ap    -0.511815     3App   -0.431269
       7Ap    -0.431269     8Ap    -0.421422     9Ap    -0.376261
       4App   -0.376260     5App   -0.363067     6App   -0.333219
      10Ap    -0.333219

    Beta Virtual:

      11Ap    -0.026022    12Ap     0.077203    13Ap     0.135141
       7App    0.135142    14Ap     0.144622     8App    0.144623
      15Ap     0.163157    16Ap     0.182135     9App    0.182136
      10App    0.215426    17Ap     0.218818    11App    0.282185
      18Ap     0.282187    19Ap     0.400264    12App    0.400268
      20Ap     0.419814    13App    0.427086    21Ap     0.427087
      22Ap     0.468261    23Ap     0.497891    14App    0.497892
      15App    0.513686    24Ap     0.556090    25Ap     0.584295
      16App    0.584303    17App    0.597254    26Ap     0.597255
      27Ap     0.609077    28Ap     0.628641    18App    0.632461
      19App    0.639981    29Ap     0.639985    30Ap     0.666378
      20App    0.666379    31Ap     0.686748    21App    0.686749
      32Ap     0.757454    22App    0.830408    33Ap     0.830410
      23App    0.855048    24App    0.922628    34Ap     0.922635
      25App    0.946138    35Ap     0.953679    26App    0.966534
      36Ap     0.966550    37Ap     1.009395    38Ap     1.132540
      27App    1.132552    39Ap     1.154598    40Ap     1.168497
      28App    1.168509    41Ap     1.232265    42Ap     1.279555
      29App    1.279559    43Ap     1.284727    30App    1.329343
      44Ap     1.329344    45Ap     1.364864    31App    1.371635
      46Ap     1.371639    32App    1.393552    47Ap     1.405793
      33App    1.405796    34App    1.422478    48Ap     1.422485
      35App    1.427785    36App    1.492970    49Ap     1.508082
      37App    1.547393    50Ap     1.547393    51Ap     1.582662
      38App    1.582662    52Ap     1.676506    53Ap     1.744126
      39App    1.744138    54Ap     1.777022    40App    1.836967
      55Ap     1.836968    41App    1.974145    56Ap     2.024906
      42App    2.024908    57Ap     2.039340    58Ap     2.057932
      43App    2.057934    44App    2.746821    59Ap     2.746822
      45App    2.812572    60Ap     2.815365    61Ap     2.902079
      46App    2.902085    62Ap     2.924059    63Ap     2.932308
      47App    2.932317    48App    2.960092    64Ap     2.968442
      49App    2.968456    65Ap     3.041480    50App    3.080553
      66Ap     3.080565    51App    3.087641    67Ap     3.184329
      52App    3.184333    68Ap     3.188451    69Ap     3.290368
      53App    3.290369    70Ap     3.332508    54App    3.332514
      71Ap     3.383240    55App    3.492438    72Ap     3.492458
      56App    3.510705    73Ap     3.529685    57App    3.573724
      58App    3.581126    74Ap     3.581147    75Ap     3.670586
      59App    3.670598    76Ap     3.694543    60App    3.725688
      77Ap     3.725704    78Ap     3.780830    61App    3.780856
      79Ap     3.815613    80Ap     3.922763    62App    3.922770
      81Ap     4.044659    82Ap     4.118491    63App    4.118493
      83Ap     4.154934    64App    4.154943    84Ap     4.185412
      65App    4.209664    85Ap     4.209667    86Ap     4.210234
      66App    4.214161    87Ap     4.322675    67App    4.322695
      68App    4.363639    88Ap     4.431342    69App    4.431344
      70App    4.447395    71App    4.524169    89Ap     4.524170
      72App    4.589605    90Ap     4.589618    91Ap     4.623509
      92Ap     4.719107    93Ap     4.781374    73App    4.781382
      74App    4.840934    94Ap     4.968048    75App    5.005001
      95Ap     5.005013    96Ap     5.230941    76App    5.251596
      97Ap     5.251596    98Ap     5.360456    77App    5.360469
      78App    5.483104

    Final Occupation by Irrep:
             Ap   App
    DOCC [    10,    6 ]
    SOCC [     1,    0 ]

  @DF-UKS Final Energy:  -157.81304531152182

   => Energetics <=

    Nuclear Repulsion Energy =            125.3805853313692609
    One-Electron Energy =                -458.7206430185900672
    Two-Electron Energy =                 195.8337978579815228
    DFT Exchange-Correlation Energy =     -20.3067854822825566
    Empirical Dispersion Energy =           0.0000000000000000
    VV10 Nonlocal Energy =                  0.0000000000000000
    Total Energy =                       -157.8130453115218188

  UHF NO Occupations:
  HONO-2 :    9 Ap 1.9995975
  HONO-1 :   10 Ap 1.9989804
  HONO-0 :   11 Ap 1.0000000
  LUNO+0 :   12 Ap 0.0010196
  LUNO+1 :   13 Ap 0.0004025
  LUNO+2 :    7App 0.0001976
  LUNO+3 :   14 Ap 0.0001976

Computation Completed

Properties will be evaluated at   0.000000,   0.000000,   0.000000 [a0]

Properties computed using the SCF density matrix

  Nuclear Dipole Moment: [e a0]
     X:     0.8426      Y:    -0.0000      Z:     0.0000

  Electronic Dipole Moment: [e a0]
     X:    -0.7680      Y:     0.0000      Z:     0.0000

  Dipole Moment: [e a0]
     X:     0.0746      Y:    -0.0000      Z:     0.0000     Total:     0.0746

  Dipole Moment: [D]
     X:     0.1896      Y:    -0.0000      Z:     0.0000     Total:     0.1896

*** tstop() called on n089 at Fri Nov  5 13:34:08 2021
Module time:
	user time   =     557.04 seconds =       9.28 minutes
	system time =       5.24 seconds =       0.09 minutes
	total time  =        141 seconds =       2.35 minutes
Total time:
	user time   =     557.04 seconds =       9.28 minutes
	system time =       5.24 seconds =       0.09 minutes
	total time  =        141 seconds =       2.35 minutes
Grab this energy -157.81304531152182
    Psi4 stopped on: Friday, 05 November 2021 01:34PM
    Psi4 wall time for execution: 0:02:21.37

*** Psi4 exiting successfully. Buy a developer a beer!
