                               Psi4 1.4a2.dev629

  ==> Input File <==

--------------------------------------------------------------------------
import os
memory 14 GB

molecule {
 C   -0.3215609960    0.0019955664   -0.0000000000
 C    0.0617754475   -1.4000946081   -2.4270239263
 C    0.0614242177    2.8006551993   -0.0000000000
 C    0.0617754475   -1.4000946081    2.4270239263
 H    2.0864811055   -1.6451968420   -2.8564223456
 H   -0.7672604504   -0.3887706658   -4.0269359662
 H   -0.7650296705   -3.2892969200   -2.3410667372
 H    2.0866969231    3.2895476901   -0.0000000000
 H   -0.7655504429    3.6772476511    1.6762947289
 H   -0.7655504429    3.6772476511   -1.6762947289
 H    2.0864811055   -1.6451968420    2.8564223456
 H   -0.7650296705   -3.2892969200    2.3410667372
 H   -0.7672604504   -0.3887706658    4.0269359662
units bohr
0 2
}

basis {

assign 6-31g_2dfp_

[ 6-31g_2dfp_ ]

spherical

!----------------------------------------------------------------------
! Basis Set Exchange
! Version v0.8.13
! https://www.basissetexchange.org
!----------------------------------------------------------------------
!   Basis set: 6-31G(2df,p)
! Description: 6-31G(2df,p)
!        Role: orbital
!     Version: 0  (Data from the original Basis Set Exchange)
!----------------------------------------------------------------------

****
H     0
S    3   1.00
     18.7311370              0.03349460
      2.8253937              0.23472695
      0.6401217              0.81375733
S    1   1.00
      0.1612778              1.00000000
P    1   1.00
      1.5000000              1.0000000
P    1   1.00
      0.3750000              1.0000000
****
B     0
S    6   1.00
   2068.8823000              0.0018663
    310.6495700              0.0142515
     70.6830330              0.0695516
     19.8610800              0.2325729
      6.2993048              0.4670787
      2.1270270              0.3634314
SP   3   1.00
      4.7279710             -0.1303938              0.0745976
      1.1903377             -0.1307889              0.3078467
      0.3594117              1.1309444              0.7434568
SP   1   1.00
      0.1267512              1.0000000              1.0000000
D    1   1.00
      0.8020000              1.0000000
D    1   1.00
      0.2005000              1.0000000
F    1   1.00
      0.5000000              1.0000000
****
C     0
S    6   1.00
   3047.5249000              0.0018347
    457.3695100              0.0140373
    103.9486900              0.0688426
     29.2101550              0.2321844
      9.2866630              0.4679413
      3.1639270              0.3623120
SP   3   1.00
      7.8682724             -0.1193324              0.0689991
      1.8812885             -0.1608542              0.3164240
      0.5442493              1.1434564              0.7443083
SP   1   1.00
      0.1687144              1.0000000              1.0000000
D    1   1.00
      1.2520000              1.0000000
D    1   1.00
      0.3130000              1.0000000
F    1   1.00
      0.8000000              1.0000000
****
N     0
S    6   1.00
   4173.5110000              0.0018348
    627.4579000              0.0139950
    142.9021000              0.0685870
     40.2343300              0.2322410
     12.8202100              0.4690700
      4.3904370              0.3604550
SP   3   1.00
     11.6263580             -0.1149610              0.0675800
      2.7162800             -0.1691180              0.3239070
      0.7722180              1.1458520              0.7408950
SP   1   1.00
      0.2120313              1.0000000              1.0000000
D    1   1.00
      1.8260000              1.0000000
D    1   1.00
      0.4565000              1.0000000
F    1   1.00
      1.0000000              1.0000000
****
O     0
S    6   1.00
   5484.6717000              0.0018311
    825.2349500              0.0139501
    188.0469600              0.0684451
     52.9645000              0.2327143
     16.8975700              0.4701930
      5.7996353              0.3585209
SP   3   1.00
     15.5396160             -0.1107775              0.0708743
      3.5999336             -0.1480263              0.3397528
      1.0137618              1.1307670              0.7271586
SP   1   1.00
      0.2700058              1.0000000              1.0000000
D    1   1.00
      2.5840000              1.0000000
D    1   1.00
      0.6460000              1.0000000
F    1   1.00
      1.4000000              1.0000000
****
F     0
S    6   1.00
   7001.7130900              0.0018196169
   1051.3660900              0.0139160796
    239.2856900              0.0684053245
     67.3974453              0.233185760
     21.5199573              0.471267439
      7.40310130             0.356618546
SP   3   1.00
     20.8479528             -0.108506975            0.0716287243
      4.80830834            -0.146451658            0.3459121030
      1.34406986             1.128688580            0.7224699570
SP   1   1.00
      0.358151393            1.0000000              1.0000000
D    1   1.00
      3.5000000              1.0000000
D    1   1.00
      0.8750000              1.0000000
F    1   1.00
      1.8500000              1.0000000
****
Al     0
S    6   1.00
  13983.1000000              0.00194267
   2098.7500000              0.0148599
    477.7050000              0.0728494
    134.3600000              0.2468300
     42.8709000              0.4872580
     14.5189000              0.3234960
SP   6   1.00
    239.6680000             -0.00292619             0.00460285
     57.4419000             -0.0374080              0.0331990
     18.2859000             -0.1144870              0.1362820
      6.5991400              0.1156350              0.3304760
      2.4904900              0.6125950              0.4491460
      0.9445400              0.3937990              0.2657040
SP   3   1.00
      1.2779000             -0.2276060             -0.0175130
      0.3975900              0.00144583             0.2445330
      0.1600950              1.0927900              0.8049340
SP   1   1.00
      0.0556577              1.0000000              1.0000000
D    1   1.00
      0.6500000              1.0000000
D    1   1.00
      0.1625000              1.0000000
F    1   1.00
      0.2500000              1.0000000
****
Si     0
S    6   1.00
  16115.9000000              0.00195948
   2425.5800000              0.01492880
    553.8670000              0.07284780
    156.3400000              0.24613000
     50.0683000              0.48591400
     17.0178000              0.32500200
SP   6   1.00
    292.7180000             -0.00278094             0.00443826
     69.8731000             -0.03571460             0.03266790
     22.3363000             -0.11498500             0.13472100
      8.1503900              0.09356340             0.32867800
      3.1345800              0.60301700             0.44964000
      1.2254300              0.41895900             0.26137200
SP   3   1.00
      1.7273800             -0.24463000            -0.01779510
      0.5729220              0.00431572             0.25353900
      0.2221920              1.09818000             0.80066900
SP   1   1.00
      0.0778369              1.00000000             1.00000000
D    1   1.00
      0.9000000              1.0000000
D    1   1.00
      0.2250000              1.0000000
F    1   1.00
      0.3200000              1.0000000
****
P     0
S    6   1.00
  19413.3000000              0.0018516
   2909.4200000              0.0142062
    661.3640000              0.0699995
    185.7590000              0.2400790
     59.1943000              0.4847620
     20.0310000              0.3352000
SP   6   1.00
    339.4780000             -0.00278217             0.00456462
     81.0101000             -0.0360499              0.03369360
     25.8780000             -0.1166310              0.13975500
      9.4522100              0.0968328              0.33936200
      3.6656600              0.6144180              0.45092100
      1.4674600              0.4037980              0.23858600
SP   3   1.00
      2.1562300             -0.2529230             -0.01776530
      0.7489970              0.0328517              0.27405800
      0.2831450              1.0812500              0.78542100
SP   1   1.00
      0.0998317              1.0000000              1.00000000
D    1   1.00
      1.1000000              1.0000000
D    1   1.00
      0.2750000              1.0000000
F    1   1.00
      0.4500000              1.0000000
****
S     0
S    6   1.00
  21917.1000000              0.0018690
   3301.4900000              0.0142300
    754.1460000              0.0696960
    212.7110000              0.2384870
     67.9896000              0.4833070
     23.0515000              0.3380740
SP   6   1.00
    423.7350000             -0.0023767              0.0040610
    100.7100000             -0.0316930              0.0306810
     32.1599000             -0.1133170              0.1304520
     11.8079000              0.0560900              0.3272050
      4.6311000              0.5922550              0.4528510
      1.8702500              0.4550060              0.2560420
SP   3   1.00
      2.6158400             -0.2503740             -0.0145110
      0.9221670              0.0669570              0.3102630
      0.3412870              1.0545100              0.7544830
SP   1   1.00
      0.1171670              1.0000000              1.0000000
D    1   1.00
      1.3000000              1.0000000
D    1   1.00
      0.3250000              1.0000000
F    1   1.00
      0.5500000              1.0000000
****
Cl     0
S    6   1.00
  25180.1000000              0.0018330
   3780.3500000              0.0140340
    860.4740000              0.0690970
    242.1450000              0.2374520
     77.3349000              0.4830340
     26.2470000              0.3398560
SP   6   1.00
    491.7650000             -0.0022974              0.0039894
    116.9840000             -0.0307140              0.0303180
     37.4153000             -0.1125280              0.1298800
     13.7834000              0.0450160              0.3279510
      5.4521500              0.5893530              0.4535270
      2.2258800              0.4652060              0.2521540
SP   3   1.00
      3.1864900             -0.2518300             -0.0142990
      1.1442700              0.0615890              0.3235720
      0.4203770              1.0601800              0.7435070
SP   1   1.00
      0.1426570              1.0000000              1.0000000
D    1   1.00
      1.5000000              1.0000000
D    1   1.00
      0.3750000              1.0000000
F    1   1.00
      0.7000000              1.0000000
****
}

set {
reference uhf
freeze_core true
e_convergence 10
d_convergence 10
dft_spherical_points 1202
dft_radial_points 99
}

e = energy('b3lyp')

print_out('Grab this energy {0}'.format(e))
--------------------------------------------------------------------------

    Molecular point group: cs

    Geometry (in Bohr), charge = 0, multiplicity = 2:

       Center              X                  Y                   Z               Mass
    ------------   -----------------  -----------------  -----------------  -----------------
         C           -0.322226280834     0.001521883602     0.000000000000    12.000000000000
         C            0.061110162666    -1.400568290898    -2.427023926300    12.000000000000
         C            0.060758932866     2.800181516502     0.000000000000    12.000000000000
         C            0.061110162666    -1.400568290898     2.427023926300    12.000000000000
         H            2.085815820666    -1.645670524798    -2.856422345600     1.007825032230
         H           -0.767925735234    -0.389244348598    -4.026935966200     1.007825032230
         H           -0.765694955334    -3.289770602798    -2.341066737200     1.007825032230
         H            2.086031638266     3.289074007302     0.000000000000     1.007825032230
         H           -0.766215727734     3.676773968302     1.676294728900     1.007825032230
         H           -0.766215727734     3.676773968302    -1.676294728900     1.007825032230
         H            2.085815820666    -1.645670524798     2.856422345600     1.007825032230
         H           -0.765694955334    -3.289770602798     2.341066737200     1.007825032230
         H           -0.767925735234    -0.389244348598     4.026935966200     1.007825032230

  Charge       = 0
  Multiplicity = 2
  Basis Set: ANONYMOUS4C72C958
    Blend: 6-31G_2DFP_
  Basis Set: (ANONYMOUS4C72C958 AUX)
    Blend: DEF2-UNIVERSAL-JKFIT

    Orbital Energies [Eh]
    ---------------------

    Alpha Occupied:

       1Ap   -10.180329     1App  -10.167075     2Ap   -10.167046
       3Ap   -10.166785     4Ap    -0.797832     5Ap    -0.686346
       2App   -0.686102     6Ap    -0.530788     7Ap    -0.440959
       8Ap    -0.434949     3App   -0.434813     9Ap    -0.382481
       4App   -0.382413     5App   -0.363750    10Ap    -0.338087
       6App   -0.337953    11Ap    -0.169050

    Alpha Virtual:

      12Ap     0.076109     7App    0.134075    13Ap     0.134138
      14Ap     0.142632     8App    0.142755    15Ap     0.155085
      16Ap     0.178701     9App    0.178784    17Ap     0.203680
      10App    0.215026    11App    0.275755    18Ap     0.276294
      12App    0.399422    19Ap     0.399481    20Ap     0.403278
      21Ap     0.423891    13App    0.424001    22Ap     0.456829
      23Ap     0.495306    14App    0.495425    15App    0.511971
      24Ap     0.514037    16App    0.578683    25Ap     0.579243
      17App    0.591155    26Ap     0.591744    27Ap     0.602344
      28Ap     0.624822    18App    0.632028    19App    0.636299
      29Ap     0.636387    30Ap     0.663656    20App    0.663721
      21App    0.683741    31Ap     0.683795    32Ap     0.735076
      33Ap     0.825089    22App    0.825521    23App    0.854261
      24App    0.915035    34Ap     0.915301    35Ap     0.943814
      25App    0.944347    36Ap     0.960331    26App    0.961696
      37Ap     1.004187    38Ap     1.128336    27App    1.128783
      39Ap     1.141616    40Ap     1.163716    28App    1.163934
      41Ap     1.223257    29App    1.274313    42Ap     1.274614
      43Ap     1.279578    44Ap     1.324625    30App    1.324629
      45Ap     1.355580    31App    1.366221    46Ap     1.366542
      32App    1.392260    33App    1.403454    47Ap     1.404080
      34App    1.416571    48Ap     1.417374    35App    1.428525
      36App    1.492093    49Ap     1.498761    50Ap     1.542617
      37App    1.543168    51Ap     1.573820    38App    1.573843
      52Ap     1.669900    39App    1.738920    53Ap     1.739652
      54Ap     1.768168    40App    1.831184    55Ap     1.832170
      41App    1.971833    56Ap     2.017948    42App    2.019951
      57Ap     2.019985    43App    2.052305    58Ap     2.053918
      59Ap     2.737786    44App    2.738354    60Ap     2.791157
      45App    2.811932    46App    2.889862    61Ap     2.890328
      62Ap     2.895242    47App    2.929936    63Ap     2.929969
      48App    2.959056    64Ap     2.964271    49App    2.964590
      65Ap     3.034477    66Ap     3.070678    50App    3.070928
      51App    3.084001    52App    3.168520    67Ap     3.168916
      68Ap     3.180747    53App    3.284865    69Ap     3.284963
      54App    3.327934    70Ap     3.328588    71Ap     3.375327
      55App    3.489495    72Ap     3.489826    56App    3.514238
      73Ap     3.525472    57App    3.568519    74Ap     3.569271
      58App    3.576099    75Ap     3.666149    59App    3.666486
      76Ap     3.680711    60App    3.693207    77Ap     3.694045
      78Ap     3.776709    61App    3.779216    79Ap     3.787841
      62App    3.912083    80Ap     3.912605    81Ap     4.033344
      63App    4.110197    82Ap     4.112748    64App    4.147035
      83Ap     4.148729    84Ap     4.173216    85Ap     4.202277
      65App    4.203792    86Ap     4.203915    66App    4.211356
      67App    4.315473    87Ap     4.317065    68App    4.360168
      88Ap     4.423691    69App    4.424211    70App    4.444461
      71App    4.517230    89Ap     4.518068    72App    4.578920
      90Ap     4.579568    91Ap     4.618001    92Ap     4.709774
      93Ap     4.773918    73App    4.775981    74App    4.835947
      94Ap     4.963378    75App    5.002478    95Ap     5.003206
      96Ap     5.228402    97Ap     5.246284    76App    5.247214
      77App    5.355359    98Ap     5.356795    78App    5.479614

    Beta Occupied:

       1App  -10.167829     1Ap   -10.167812     2Ap   -10.167548
       3Ap   -10.166512     4Ap    -0.781160     5Ap    -0.684140
       2App   -0.683911     6Ap    -0.511756     7Ap    -0.431310
       3App   -0.431184     8Ap    -0.421654     9Ap    -0.376551
       4App   -0.376493     5App   -0.362727    10Ap    -0.333209
       6App   -0.333084

    Beta Virtual:

      11Ap    -0.025908    12Ap     0.077114     7App    0.134988
      13Ap     0.135035    14Ap     0.144512     8App    0.144638
      15Ap     0.163594    16Ap     0.182383     9App    0.182430
      10App    0.215257    17Ap     0.219023    11App    0.282102
      18Ap     0.282621    12App    0.400596    19Ap     0.400663
      20Ap     0.419736    21Ap     0.426698    13App    0.426807
      22Ap     0.468815    23Ap     0.497585    14App    0.497697
      15App    0.513711    24Ap     0.556296    16App    0.584252
      25Ap     0.584819    17App    0.597322    26Ap     0.597880
      27Ap     0.609786    28Ap     0.628203    18App    0.632189
      19App    0.639559    29Ap     0.639686    30Ap     0.667241
      20App    0.667310    21App    0.686336    31Ap     0.686433
      32Ap     0.757563    33Ap     0.830251    22App    0.830727
      23App    0.855617    24App    0.923085    34Ap     0.923284
      25App    0.946184    35Ap     0.952819    36Ap     0.965670
      26App    0.966921    37Ap     1.009457    38Ap     1.132293
      27App    1.132888    39Ap     1.154780    40Ap     1.168862
      28App    1.168916    41Ap     1.232327    29App    1.279930
      42Ap     1.280228    43Ap     1.285401    30App    1.329642
      44Ap     1.329670    45Ap     1.364937    31App    1.371486
      46Ap     1.371748    32App    1.393334    33App    1.406908
      47Ap     1.407584    34App    1.421570    48Ap     1.422370
      35App    1.428796    36App    1.493131    49Ap     1.509182
      50Ap     1.547016    37App    1.547573    51Ap     1.581706
      38App    1.581721    52Ap     1.674749    39App    1.744675
      53Ap     1.745425    54Ap     1.778963    40App    1.835039
      55Ap     1.836021    41App    1.972699    56Ap     2.026251
      42App    2.026398    57Ap     2.039494    43App    2.058976
      58Ap     2.060645    59Ap     2.746150    44App    2.746684
      45App    2.812350    60Ap     2.816295    46App    2.902540
      61Ap     2.902926    62Ap     2.924902    47App    2.932445
      63Ap     2.932451    48App    2.960121    64Ap     2.968871
      49App    2.969154    65Ap     3.042403    66Ap     3.080583
      50App    3.080817    51App    3.085818    52App    3.184231
      67Ap     3.184696    68Ap     3.188440    53App    3.289616
      69Ap     3.289763    54App    3.331730    70Ap     3.332353
      71Ap     3.383119    55App    3.492307    72Ap     3.492606
      56App    3.512614    73Ap     3.528487    57App    3.575758
      58App    3.581935    74Ap     3.582588    59App    3.670948
      75Ap     3.671042    76Ap     3.693951    60App    3.725290
      77Ap     3.725508    78Ap     3.781346    61App    3.783761
      79Ap     3.816412    62App    3.921870    80Ap     3.922356
      81Ap     4.044284    63App    4.117218    82Ap     4.119544
      64App    4.154135    83Ap     4.155891    84Ap     4.187235
      65App    4.209675    85Ap     4.209810    86Ap     4.210313
      66App    4.215863    67App    4.322900    87Ap     4.324545
      68App    4.363557    88Ap     4.431959    69App    4.432383
      70App    4.447323    71App    4.525018    89Ap     4.525834
      72App    4.589545    90Ap     4.590187    91Ap     4.625121
      92Ap     4.720224    93Ap     4.780901    73App    4.782877
      74App    4.838869    94Ap     4.968169    75App    5.006524
      95Ap     5.007271    96Ap     5.234103    97Ap     5.248065
      76App    5.249010    77App    5.361820    98Ap     5.363298
      78App    5.481941

    Final Occupation by Irrep:
             Ap   App
    DOCC [    10,    6 ]
    SOCC [     1,    0 ]

  @DF-UKS Final Energy:  -157.81307411326068

   => Energetics <=

    Nuclear Repulsion Energy =            125.4062406041798710
    One-Electron Energy =                -458.7715908053179419
    Two-Electron Energy =                 195.8597628966815023
    DFT Exchange-Correlation Energy =     -20.3074868088040930
    Empirical Dispersion Energy =           0.0000000000000000
    VV10 Nonlocal Energy =                  0.0000000000000000
    Total Energy =                       -157.8130741132606829

  UHF NO Occupations:
  HONO-2 :    9 Ap 1.9995995
  HONO-1 :   10 Ap 1.9989824
  HONO-0 :   11 Ap 1.0000000
  LUNO+0 :   12 Ap 0.0010176
  LUNO+1 :   13 Ap 0.0004005
  LUNO+2 :    7App 0.0001976
  LUNO+3 :   14 Ap 0.0001969

Computation Completed

Properties will be evaluated at   0.000000,   0.000000,   0.000000 [a0]

Properties computed using the SCF density matrix

  Nuclear Dipole Moment: [e a0]
     X:     0.8225      Y:    -0.0033      Z:     0.0000

  Electronic Dipole Moment: [e a0]
     X:    -0.7450      Y:     0.0034      Z:     0.0000

  Dipole Moment: [e a0]
     X:     0.0775      Y:     0.0000      Z:     0.0000     Total:     0.0775

  Dipole Moment: [D]
     X:     0.1970      Y:     0.0001      Z:     0.0000     Total:     0.1970

*** tstop() called on n033 at Fri Nov  5 15:32:00 2021
Module time:
	user time   =     632.74 seconds =      10.55 minutes
	system time =      11.96 seconds =       0.20 minutes
	total time  =        162 seconds =       2.70 minutes
Total time:
	user time   =     632.74 seconds =      10.55 minutes
	system time =      11.96 seconds =       0.20 minutes
	total time  =        162 seconds =       2.70 minutes
Grab this energy -157.81307411326068
    Psi4 stopped on: Friday, 05 November 2021 03:32PM
    Psi4 wall time for execution: 0:02:42.11

*** Psi4 exiting successfully. Buy a developer a beer!
