                               Psi4 1.4a2.dev629

  ==> Input File <==

--------------------------------------------------------------------------
import os
memory 14 GB

molecule {
 C   -0.3233409777   -0.0002488249   -0.0000008620
 C    0.0605832149   -1.4001067191   -2.4268983344
 C    0.0621317202    2.8016350629    0.0007971346
 C    0.0605840053   -1.4014889518    2.4260987081
 H    2.0853104922   -1.6398155300   -2.8463994738
 H   -0.7663816530   -0.3914041692   -4.0321106124
 H   -0.7662261956   -3.2896045172   -2.3457603157
 H    2.0900332700    3.2942056561    0.0015804090
 H   -0.7633325883    3.6813605024    1.6773938128
 H   -0.7646711292    3.6724939218   -1.6753660641
 H    2.0853129158   -1.6425568796    2.8448144396
 H   -0.7648793859   -3.2957856741    2.3524290329
 H   -0.7677315655   -0.3887081908    4.0234221252
units bohr
0 2
}

basis {

assign 6-31g_2dfp_

[ 6-31g_2dfp_ ]

spherical

!----------------------------------------------------------------------
! Basis Set Exchange
! Version v0.8.13
! https://www.basissetexchange.org
!----------------------------------------------------------------------
!   Basis set: 6-31G(2df,p)
! Description: 6-31G(2df,p)
!        Role: orbital
!     Version: 0  (Data from the original Basis Set Exchange)
!----------------------------------------------------------------------

****
H     0
S    3   1.00
     18.7311370              0.03349460
      2.8253937              0.23472695
      0.6401217              0.81375733
S    1   1.00
      0.1612778              1.00000000
P    1   1.00
      1.5000000              1.0000000
P    1   1.00
      0.3750000              1.0000000
****
B     0
S    6   1.00
   2068.8823000              0.0018663
    310.6495700              0.0142515
     70.6830330              0.0695516
     19.8610800              0.2325729
      6.2993048              0.4670787
      2.1270270              0.3634314
SP   3   1.00
      4.7279710             -0.1303938              0.0745976
      1.1903377             -0.1307889              0.3078467
      0.3594117              1.1309444              0.7434568
SP   1   1.00
      0.1267512              1.0000000              1.0000000
D    1   1.00
      0.8020000              1.0000000
D    1   1.00
      0.2005000              1.0000000
F    1   1.00
      0.5000000              1.0000000
****
C     0
S    6   1.00
   3047.5249000              0.0018347
    457.3695100              0.0140373
    103.9486900              0.0688426
     29.2101550              0.2321844
      9.2866630              0.4679413
      3.1639270              0.3623120
SP   3   1.00
      7.8682724             -0.1193324              0.0689991
      1.8812885             -0.1608542              0.3164240
      0.5442493              1.1434564              0.7443083
SP   1   1.00
      0.1687144              1.0000000              1.0000000
D    1   1.00
      1.2520000              1.0000000
D    1   1.00
      0.3130000              1.0000000
F    1   1.00
      0.8000000              1.0000000
****
N     0
S    6   1.00
   4173.5110000              0.0018348
    627.4579000              0.0139950
    142.9021000              0.0685870
     40.2343300              0.2322410
     12.8202100              0.4690700
      4.3904370              0.3604550
SP   3   1.00
     11.6263580             -0.1149610              0.0675800
      2.7162800             -0.1691180              0.3239070
      0.7722180              1.1458520              0.7408950
SP   1   1.00
      0.2120313              1.0000000              1.0000000
D    1   1.00
      1.8260000              1.0000000
D    1   1.00
      0.4565000              1.0000000
F    1   1.00
      1.0000000              1.0000000
****
O     0
S    6   1.00
   5484.6717000              0.0018311
    825.2349500              0.0139501
    188.0469600              0.0684451
     52.9645000              0.2327143
     16.8975700              0.4701930
      5.7996353              0.3585209
SP   3   1.00
     15.5396160             -0.1107775              0.0708743
      3.5999336             -0.1480263              0.3397528
      1.0137618              1.1307670              0.7271586
SP   1   1.00
      0.2700058              1.0000000              1.0000000
D    1   1.00
      2.5840000              1.0000000
D    1   1.00
      0.6460000              1.0000000
F    1   1.00
      1.4000000              1.0000000
****
F     0
S    6   1.00
   7001.7130900              0.0018196169
   1051.3660900              0.0139160796
    239.2856900              0.0684053245
     67.3974453              0.233185760
     21.5199573              0.471267439
      7.40310130             0.356618546
SP   3   1.00
     20.8479528             -0.108506975            0.0716287243
      4.80830834            -0.146451658            0.3459121030
      1.34406986             1.128688580            0.7224699570
SP   1   1.00
      0.358151393            1.0000000              1.0000000
D    1   1.00
      3.5000000              1.0000000
D    1   1.00
      0.8750000              1.0000000
F    1   1.00
      1.8500000              1.0000000
****
Al     0
S    6   1.00
  13983.1000000              0.00194267
   2098.7500000              0.0148599
    477.7050000              0.0728494
    134.3600000              0.2468300
     42.8709000              0.4872580
     14.5189000              0.3234960
SP   6   1.00
    239.6680000             -0.00292619             0.00460285
     57.4419000             -0.0374080              0.0331990
     18.2859000             -0.1144870              0.1362820
      6.5991400              0.1156350              0.3304760
      2.4904900              0.6125950              0.4491460
      0.9445400              0.3937990              0.2657040
SP   3   1.00
      1.2779000             -0.2276060             -0.0175130
      0.3975900              0.00144583             0.2445330
      0.1600950              1.0927900              0.8049340
SP   1   1.00
      0.0556577              1.0000000              1.0000000
D    1   1.00
      0.6500000              1.0000000
D    1   1.00
      0.1625000              1.0000000
F    1   1.00
      0.2500000              1.0000000
****
Si     0
S    6   1.00
  16115.9000000              0.00195948
   2425.5800000              0.01492880
    553.8670000              0.07284780
    156.3400000              0.24613000
     50.0683000              0.48591400
     17.0178000              0.32500200
SP   6   1.00
    292.7180000             -0.00278094             0.00443826
     69.8731000             -0.03571460             0.03266790
     22.3363000             -0.11498500             0.13472100
      8.1503900              0.09356340             0.32867800
      3.1345800              0.60301700             0.44964000
      1.2254300              0.41895900             0.26137200
SP   3   1.00
      1.7273800             -0.24463000            -0.01779510
      0.5729220              0.00431572             0.25353900
      0.2221920              1.09818000             0.80066900
SP   1   1.00
      0.0778369              1.00000000             1.00000000
D    1   1.00
      0.9000000              1.0000000
D    1   1.00
      0.2250000              1.0000000
F    1   1.00
      0.3200000              1.0000000
****
P     0
S    6   1.00
  19413.3000000              0.0018516
   2909.4200000              0.0142062
    661.3640000              0.0699995
    185.7590000              0.2400790
     59.1943000              0.4847620
     20.0310000              0.3352000
SP   6   1.00
    339.4780000             -0.00278217             0.00456462
     81.0101000             -0.0360499              0.03369360
     25.8780000             -0.1166310              0.13975500
      9.4522100              0.0968328              0.33936200
      3.6656600              0.6144180              0.45092100
      1.4674600              0.4037980              0.23858600
SP   3   1.00
      2.1562300             -0.2529230             -0.01776530
      0.7489970              0.0328517              0.27405800
      0.2831450              1.0812500              0.78542100
SP   1   1.00
      0.0998317              1.0000000              1.00000000
D    1   1.00
      1.1000000              1.0000000
D    1   1.00
      0.2750000              1.0000000
F    1   1.00
      0.4500000              1.0000000
****
S     0
S    6   1.00
  21917.1000000              0.0018690
   3301.4900000              0.0142300
    754.1460000              0.0696960
    212.7110000              0.2384870
     67.9896000              0.4833070
     23.0515000              0.3380740
SP   6   1.00
    423.7350000             -0.0023767              0.0040610
    100.7100000             -0.0316930              0.0306810
     32.1599000             -0.1133170              0.1304520
     11.8079000              0.0560900              0.3272050
      4.6311000              0.5922550              0.4528510
      1.8702500              0.4550060              0.2560420
SP   3   1.00
      2.6158400             -0.2503740             -0.0145110
      0.9221670              0.0669570              0.3102630
      0.3412870              1.0545100              0.7544830
SP   1   1.00
      0.1171670              1.0000000              1.0000000
D    1   1.00
      1.3000000              1.0000000
D    1   1.00
      0.3250000              1.0000000
F    1   1.00
      0.5500000              1.0000000
****
Cl     0
S    6   1.00
  25180.1000000              0.0018330
   3780.3500000              0.0140340
    860.4740000              0.0690970
    242.1450000              0.2374520
     77.3349000              0.4830340
     26.2470000              0.3398560
SP   6   1.00
    491.7650000             -0.0022974              0.0039894
    116.9840000             -0.0307140              0.0303180
     37.4153000             -0.1125280              0.1298800
     13.7834000              0.0450160              0.3279510
      5.4521500              0.5893530              0.4535270
      2.2258800              0.4652060              0.2521540
SP   3   1.00
      3.1864900             -0.2518300             -0.0142990
      1.1442700              0.0615890              0.3235720
      0.4203770              1.0601800              0.7435070
SP   1   1.00
      0.1426570              1.0000000              1.0000000
D    1   1.00
      1.5000000              1.0000000
D    1   1.00
      0.3750000              1.0000000
F    1   1.00
      0.7000000              1.0000000
****
}

set {
reference uhf
freeze_core true
e_convergence 10
d_convergence 10
dft_spherical_points 1202
dft_radial_points 99
}

e = energy('b3lyp')

print_out('Grab this energy {0}'.format(e))
--------------------------------------------------------------------------

    Molecular point group: c1

    Geometry (in Bohr), charge = 0, multiplicity = 2:

       Center              X                  Y                   Z               Mass
    ------------   -----------------  -----------------  -----------------  -----------------
         C           -0.323340582380    -0.000208057255    -0.000000216050    12.000000000000
         C            0.060583610220    -1.400065951455    -2.426897688450    12.000000000000
         C            0.062132115520     2.801675830545     0.000797780550    12.000000000000
         C            0.060584400620    -1.401448184155     2.426099354050    12.000000000000
         H            2.085310887520    -1.639774762355    -2.846398827850     1.007825032230
         H           -0.766381257680    -0.391363401555    -4.032109966450     1.007825032230
         H           -0.766225800280    -3.289563749555    -2.345759669750     1.007825032230
         H            2.090033665320     3.294246423745     0.001581054950     1.007825032230
         H           -0.763332192980     3.681401270045     1.677394458750     1.007825032230
         H           -0.764670733880     3.672534689445    -1.675365418150     1.007825032230
         H            2.085313311120    -1.642516111955     2.844815085550     1.007825032230
         H           -0.764878990580    -3.295744906455     2.352429678850     1.007825032230
         H           -0.767731170180    -0.388667423155     4.023422771150     1.007825032230

  Charge       = 0
  Multiplicity = 2
  Basis Set: ANONYMOUS3B3EA68F
    Blend: 6-31G_2DFP_
  Basis Set: (ANONYMOUS3B3EA68F AUX)
    Blend: DEF2-UNIVERSAL-JKFIT

    Orbital Energies [Eh]
    ---------------------

    Alpha Occupied:

       1A    -10.180343     2A    -10.167047     3A    -10.167027
       4A    -10.166971     5A     -0.797767     6A     -0.686217
       7A     -0.686159     8A     -0.530775     9A     -0.441126
      10A     -0.434760    11A     -0.434586    12A     -0.382822
      13A     -0.382372    14A     -0.363610    15A     -0.338152
      16A     -0.337846    17A     -0.168961

    Alpha Virtual:

      18A      0.076073    19A      0.134104    20A      0.134202
      21A      0.142422    22A      0.142834    23A      0.154880
      24A      0.178639    25A      0.178915    26A      0.203533
      27A      0.214819    28A      0.275965    29A      0.276005
      30A      0.399106    31A      0.399351    32A      0.403343
      33A      0.423996    34A      0.424201    35A      0.456594
      36A      0.495379    37A      0.495400    38A      0.512161
      39A      0.513982    40A      0.578691    41A      0.578930
      42A      0.591359    43A      0.591893    44A      0.602600
      45A      0.624688    46A      0.631827    47A      0.636030
      48A      0.636491    49A      0.663372    50A      0.663453
      51A      0.683739    52A      0.683966    53A      0.734992
      54A      0.825348    55A      0.825465    56A      0.853915
      57A      0.914707    58A      0.915341    59A      0.944006
      60A      0.944701    61A      0.961225    62A      0.961382
      63A      1.003466    64A      1.127708    65A      1.128504
      66A      1.142200    67A      1.163116    68A      1.163436
      69A      1.223326    70A      1.274397    71A      1.274583
      72A      1.279365    73A      1.324288    74A      1.324418
      75A      1.355959    76A      1.366041    77A      1.366068
      78A      1.392461    79A      1.403533    80A      1.404512
      81A      1.416796    82A      1.417450    83A      1.427931
      84A      1.491502    85A      1.499066    86A      1.542818
      87A      1.542858    88A      1.573961    89A      1.574945
      90A      1.669837    91A      1.739309    92A      1.739523
      93A      1.768331    94A      1.830968    95A      1.831832
      96A      1.971722    97A      2.018303    98A      2.018969
      99A      2.019136   100A      2.052182   101A      2.053100
     102A      2.738477   103A      2.738497   104A      2.790923
     105A      2.811431   106A      2.889798   107A      2.890082
     108A      2.894974   109A      2.929186   110A      2.929805
     111A      2.958991   112A      2.964212   113A      2.964550
     114A      3.034008   115A      3.070652   116A      3.071920
     117A      3.084347   118A      3.168561   119A      3.169009
     120A      3.180579   121A      3.285187   122A      3.285419
     123A      3.326306   124A      3.328057   125A      3.375614
     126A      3.489094   127A      3.491206   128A      3.513922
     129A      3.525424   130A      3.568152   131A      3.568477
     132A      3.575294   133A      3.665904   134A      3.666845
     135A      3.679660   136A      3.693448   137A      3.694751
     138A      3.776762   139A      3.776867   140A      3.789169
     141A      3.912118   142A      3.912372   143A      4.034454
     144A      4.111235   145A      4.111496   146A      4.148077
     147A      4.148155   148A      4.173232   149A      4.202341
     150A      4.202713   151A      4.203744   152A      4.210849
     153A      4.315757   154A      4.316161   155A      4.358960
     156A      4.424370   157A      4.424566   158A      4.443418
     159A      4.516172   160A      4.517482   161A      4.578254
     162A      4.578298   163A      4.617593   164A      4.709378
     165A      4.774025   166A      4.775176   167A      4.836926
     168A      4.962891   169A      5.002417   170A      5.003496
     171A      5.228065   172A      5.246269   173A      5.247366
     174A      5.355464   175A      5.355556   176A      5.479346

    Beta Occupied:

       1A    -10.167798     2A    -10.167785     3A    -10.167741
       4A    -10.166520     5A     -0.781092     6A     -0.684014
       7A     -0.683966     8A     -0.511747     9A     -0.431142
      10A     -0.430946    11A     -0.421825    12A     -0.376914
      13A     -0.376450    14A     -0.362593    15A     -0.333263
      16A     -0.332980

    Beta Virtual:

      17A     -0.025743    18A      0.077082    19A      0.135001
      20A      0.135085    21A      0.144316    22A      0.144683
      23A      0.163339    24A      0.182307    25A      0.182591
      26A      0.214983    27A      0.218980    28A      0.282308
      29A      0.282357    30A      0.400279    31A      0.400516
      32A      0.419791    33A      0.426805    34A      0.427014
      35A      0.468502    36A      0.497638    37A      0.497663
      38A      0.513897    39A      0.556326    40A      0.584236
      41A      0.584487    42A      0.597537    43A      0.598077
      44A      0.610017    45A      0.628009    46A      0.632049
      47A      0.639319    48A      0.639764    49A      0.666927
      50A      0.667025    51A      0.686391    52A      0.686585
      53A      0.757515    54A      0.830519    55A      0.830631
      56A      0.855269    57A      0.922705    58A      0.923286
      59A      0.945924    60A      0.953549    61A      0.966546
      62A      0.966673    63A      1.008705    64A      1.131779
      65A      1.132485    66A      1.155572    67A      1.168158
      68A      1.168552    69A      1.232297    70A      1.280006
      71A      1.280168    72A      1.285117    73A      1.329271
      74A      1.329412    75A      1.365360    76A      1.371267
      77A      1.371342    78A      1.393522    79A      1.406996
      80A      1.407987    81A      1.421847    82A      1.422477
      83A      1.428214    84A      1.492551    85A      1.509505
      86A      1.547128    87A      1.547371    88A      1.581742
      89A      1.582903    90A      1.674683    91A      1.745075
      92A      1.745281    93A      1.779110    94A      1.834828
      95A      1.835683    96A      1.972584    97A      2.025392
      98A      2.025519    99A      2.039673   100A      2.058887
     101A      2.059826   102A      2.746801   103A      2.746844
     104A      2.811833   105A      2.816068   106A      2.902461
     107A      2.902822   108A      2.924648   109A      2.931682
     110A      2.932273   111A      2.960063   112A      2.968753
     113A      2.969095   114A      3.041942   115A      3.080518
     116A      3.081874   117A      3.086163   118A      3.184313
     119A      3.184766   120A      3.188253   121A      3.289947
     122A      3.290253   123A      3.330122   124A      3.331853
     125A      3.383431   126A      3.491848   127A      3.493914
     128A      3.512310   129A      3.528446   130A      3.574895
     131A      3.581598   132A      3.581961   133A      3.670673
     134A      3.671574   135A      3.692946   136A      3.725336
     137A      3.726146   138A      3.781317   139A      3.781377
     140A      3.817698   141A      3.921929   142A      3.922194
     143A      4.045342   144A      4.118082   145A      4.118284
     146A      4.155202   147A      4.155444   148A      4.187290
     149A      4.208651   150A      4.209142   151A      4.210842
     152A      4.215329   153A      4.323226   154A      4.323575
     155A      4.362322   156A      4.432575   157A      4.432793
     158A      4.446300   159A      4.523971   160A      4.525264
     161A      4.588840   162A      4.588915   163A      4.624784
     164A      4.719719   165A      4.780950   166A      4.782160
     167A      4.839846   168A      4.967684   169A      5.006472
     170A      5.007519   171A      5.233780   172A      5.248055
     173A      5.249149   174A      5.361951   175A      5.362029
     176A      5.481667

    Final Occupation by Irrep:
              A
    DOCC [    16 ]
    SOCC [     1 ]

  @DF-UKS Final Energy:  -157.81306180399474

   => Energetics <=

    Nuclear Repulsion Energy =            125.3946197649512584
    One-Electron Energy =                -458.7488805452927636
    Two-Electron Energy =                 195.8483424991487709
    DFT Exchange-Correlation Energy =     -20.3071435228020079
    Empirical Dispersion Energy =           0.0000000000000000
    VV10 Nonlocal Energy =                  0.0000000000000000
    Total Energy =                       -157.8130618039947421

  UHF NO Occupations:
  HONO-2 :   15  A 1.9996009
  HONO-1 :   16  A 1.9989805
  HONO-0 :   17  A 1.0000000
  LUNO+0 :   18  A 0.0010195
  LUNO+1 :   19  A 0.0003991
  LUNO+2 :   20  A 0.0001977
  LUNO+3 :   21  A 0.0001974

Computation Completed

Properties will be evaluated at   0.000000,   0.000000,   0.000000 [a0]

Properties computed using the SCF density matrix

  Nuclear Dipole Moment: [e a0]
     X:     0.8272      Y:     0.0003      Z:     0.0000

  Electronic Dipole Moment: [e a0]
     X:    -0.7493      Y:    -0.0010      Z:     0.0000

  Dipole Moment: [e a0]
     X:     0.0779      Y:    -0.0008      Z:     0.0000     Total:     0.0779

  Dipole Moment: [D]
     X:     0.1980      Y:    -0.0020      Z:     0.0000     Total:     0.1980

*** tstop() called on n071 at Fri Nov  5 15:21:41 2021
Module time:
	user time   =     540.66 seconds =       9.01 minutes
	system time =      12.74 seconds =       0.21 minutes
	total time  =        139 seconds =       2.32 minutes
Total time:
	user time   =     540.66 seconds =       9.01 minutes
	system time =      12.74 seconds =       0.21 minutes
	total time  =        139 seconds =       2.32 minutes
Grab this energy -157.81306180399474
    Psi4 stopped on: Friday, 05 November 2021 03:21PM
    Psi4 wall time for execution: 0:02:19.38

*** Psi4 exiting successfully. Buy a developer a beer!
