                               Psi4 1.4a2.dev629

  ==> Input File <==

--------------------------------------------------------------------------
import os
memory 14 GB

molecule {
 C   -0.3247924838   -0.0000025276   -0.0004957642
 C    0.0608030454   -1.4007058687   -2.4264658524
 C    0.0618767663    2.8016630588   -0.0003836587
 C    0.0631883222   -1.4009543793    2.4261289573
 H    2.0904588101   -1.6438274502   -2.8471516025
 H   -0.7666204044   -0.3906481625   -4.0238555672
 H   -0.7679823498   -3.2898714737   -2.3505294648
 H    2.0867498213    3.2881433976   -0.0001820193
 H   -0.7670072770    3.6807161693    1.6767446493
 H   -0.7646092104    3.6797850111   -1.6761427798
 H    2.0833173488   -1.6444076939    2.8477939354
 H   -0.7634776334   -3.2940271712    2.3474949294
 H   -0.7645126321   -0.3858872232    4.0270442375
units bohr
0 2
}

basis {

assign 6-31g_2dfp_

[ 6-31g_2dfp_ ]

spherical

!----------------------------------------------------------------------
! Basis Set Exchange
! Version v0.8.13
! https://www.basissetexchange.org
!----------------------------------------------------------------------
!   Basis set: 6-31G(2df,p)
! Description: 6-31G(2df,p)
!        Role: orbital
!     Version: 0  (Data from the original Basis Set Exchange)
!----------------------------------------------------------------------

****
H     0
S    3   1.00
     18.7311370              0.03349460
      2.8253937              0.23472695
      0.6401217              0.81375733
S    1   1.00
      0.1612778              1.00000000
P    1   1.00
      1.5000000              1.0000000
P    1   1.00
      0.3750000              1.0000000
****
B     0
S    6   1.00
   2068.8823000              0.0018663
    310.6495700              0.0142515
     70.6830330              0.0695516
     19.8610800              0.2325729
      6.2993048              0.4670787
      2.1270270              0.3634314
SP   3   1.00
      4.7279710             -0.1303938              0.0745976
      1.1903377             -0.1307889              0.3078467
      0.3594117              1.1309444              0.7434568
SP   1   1.00
      0.1267512              1.0000000              1.0000000
D    1   1.00
      0.8020000              1.0000000
D    1   1.00
      0.2005000              1.0000000
F    1   1.00
      0.5000000              1.0000000
****
C     0
S    6   1.00
   3047.5249000              0.0018347
    457.3695100              0.0140373
    103.9486900              0.0688426
     29.2101550              0.2321844
      9.2866630              0.4679413
      3.1639270              0.3623120
SP   3   1.00
      7.8682724             -0.1193324              0.0689991
      1.8812885             -0.1608542              0.3164240
      0.5442493              1.1434564              0.7443083
SP   1   1.00
      0.1687144              1.0000000              1.0000000
D    1   1.00
      1.2520000              1.0000000
D    1   1.00
      0.3130000              1.0000000
F    1   1.00
      0.8000000              1.0000000
****
N     0
S    6   1.00
   4173.5110000              0.0018348
    627.4579000              0.0139950
    142.9021000              0.0685870
     40.2343300              0.2322410
     12.8202100              0.4690700
      4.3904370              0.3604550
SP   3   1.00
     11.6263580             -0.1149610              0.0675800
      2.7162800             -0.1691180              0.3239070
      0.7722180              1.1458520              0.7408950
SP   1   1.00
      0.2120313              1.0000000              1.0000000
D    1   1.00
      1.8260000              1.0000000
D    1   1.00
      0.4565000              1.0000000
F    1   1.00
      1.0000000              1.0000000
****
O     0
S    6   1.00
   5484.6717000              0.0018311
    825.2349500              0.0139501
    188.0469600              0.0684451
     52.9645000              0.2327143
     16.8975700              0.4701930
      5.7996353              0.3585209
SP   3   1.00
     15.5396160             -0.1107775              0.0708743
      3.5999336             -0.1480263              0.3397528
      1.0137618              1.1307670              0.7271586
SP   1   1.00
      0.2700058              1.0000000              1.0000000
D    1   1.00
      2.5840000              1.0000000
D    1   1.00
      0.6460000              1.0000000
F    1   1.00
      1.4000000              1.0000000
****
F     0
S    6   1.00
   7001.7130900              0.0018196169
   1051.3660900              0.0139160796
    239.2856900              0.0684053245
     67.3974453              0.233185760
     21.5199573              0.471267439
      7.40310130             0.356618546
SP   3   1.00
     20.8479528             -0.108506975            0.0716287243
      4.80830834            -0.146451658            0.3459121030
      1.34406986             1.128688580            0.7224699570
SP   1   1.00
      0.358151393            1.0000000              1.0000000
D    1   1.00
      3.5000000              1.0000000
D    1   1.00
      0.8750000              1.0000000
F    1   1.00
      1.8500000              1.0000000
****
Al     0
S    6   1.00
  13983.1000000              0.00194267
   2098.7500000              0.0148599
    477.7050000              0.0728494
    134.3600000              0.2468300
     42.8709000              0.4872580
     14.5189000              0.3234960
SP   6   1.00
    239.6680000             -0.00292619             0.00460285
     57.4419000             -0.0374080              0.0331990
     18.2859000             -0.1144870              0.1362820
      6.5991400              0.1156350              0.3304760
      2.4904900              0.6125950              0.4491460
      0.9445400              0.3937990              0.2657040
SP   3   1.00
      1.2779000             -0.2276060             -0.0175130
      0.3975900              0.00144583             0.2445330
      0.1600950              1.0927900              0.8049340
SP   1   1.00
      0.0556577              1.0000000              1.0000000
D    1   1.00
      0.6500000              1.0000000
D    1   1.00
      0.1625000              1.0000000
F    1   1.00
      0.2500000              1.0000000
****
Si     0
S    6   1.00
  16115.9000000              0.00195948
   2425.5800000              0.01492880
    553.8670000              0.07284780
    156.3400000              0.24613000
     50.0683000              0.48591400
     17.0178000              0.32500200
SP   6   1.00
    292.7180000             -0.00278094             0.00443826
     69.8731000             -0.03571460             0.03266790
     22.3363000             -0.11498500             0.13472100
      8.1503900              0.09356340             0.32867800
      3.1345800              0.60301700             0.44964000
      1.2254300              0.41895900             0.26137200
SP   3   1.00
      1.7273800             -0.24463000            -0.01779510
      0.5729220              0.00431572             0.25353900
      0.2221920              1.09818000             0.80066900
SP   1   1.00
      0.0778369              1.00000000             1.00000000
D    1   1.00
      0.9000000              1.0000000
D    1   1.00
      0.2250000              1.0000000
F    1   1.00
      0.3200000              1.0000000
****
P     0
S    6   1.00
  19413.3000000              0.0018516
   2909.4200000              0.0142062
    661.3640000              0.0699995
    185.7590000              0.2400790
     59.1943000              0.4847620
     20.0310000              0.3352000
SP   6   1.00
    339.4780000             -0.00278217             0.00456462
     81.0101000             -0.0360499              0.03369360
     25.8780000             -0.1166310              0.13975500
      9.4522100              0.0968328              0.33936200
      3.6656600              0.6144180              0.45092100
      1.4674600              0.4037980              0.23858600
SP   3   1.00
      2.1562300             -0.2529230             -0.01776530
      0.7489970              0.0328517              0.27405800
      0.2831450              1.0812500              0.78542100
SP   1   1.00
      0.0998317              1.0000000              1.00000000
D    1   1.00
      1.1000000              1.0000000
D    1   1.00
      0.2750000              1.0000000
F    1   1.00
      0.4500000              1.0000000
****
S     0
S    6   1.00
  21917.1000000              0.0018690
   3301.4900000              0.0142300
    754.1460000              0.0696960
    212.7110000              0.2384870
     67.9896000              0.4833070
     23.0515000              0.3380740
SP   6   1.00
    423.7350000             -0.0023767              0.0040610
    100.7100000             -0.0316930              0.0306810
     32.1599000             -0.1133170              0.1304520
     11.8079000              0.0560900              0.3272050
      4.6311000              0.5922550              0.4528510
      1.8702500              0.4550060              0.2560420
SP   3   1.00
      2.6158400             -0.2503740             -0.0145110
      0.9221670              0.0669570              0.3102630
      0.3412870              1.0545100              0.7544830
SP   1   1.00
      0.1171670              1.0000000              1.0000000
D    1   1.00
      1.3000000              1.0000000
D    1   1.00
      0.3250000              1.0000000
F    1   1.00
      0.5500000              1.0000000
****
Cl     0
S    6   1.00
  25180.1000000              0.0018330
   3780.3500000              0.0140340
    860.4740000              0.0690970
    242.1450000              0.2374520
     77.3349000              0.4830340
     26.2470000              0.3398560
SP   6   1.00
    491.7650000             -0.0022974              0.0039894
    116.9840000             -0.0307140              0.0303180
     37.4153000             -0.1125280              0.1298800
     13.7834000              0.0450160              0.3279510
      5.4521500              0.5893530              0.4535270
      2.2258800              0.4652060              0.2521540
SP   3   1.00
      3.1864900             -0.2518300             -0.0142990
      1.1442700              0.0615890              0.3235720
      0.4203770              1.0601800              0.7435070
SP   1   1.00
      0.1426570              1.0000000              1.0000000
D    1   1.00
      1.5000000              1.0000000
D    1   1.00
      0.3750000              1.0000000
F    1   1.00
      0.7000000              1.0000000
****
}

set {
reference uhf
freeze_core true
e_convergence 10
d_convergence 10
dft_spherical_points 1202
dft_radial_points 99
}

e = energy('b3lyp')

print_out('Grab this energy {0}'.format(e))
--------------------------------------------------------------------------

    Molecular point group: c1

    Geometry (in Bohr), charge = 0, multiplicity = 2:

       Center              X                  Y                   Z               Mass
    ------------   -----------------  -----------------  -----------------  -----------------
         C           -0.325007363124    -0.000002152786    -0.000261492593    12.000000000000
         C            0.060588166076    -1.400705493886    -2.426231580793    12.000000000000
         C            0.061661886976     2.801663433614    -0.000149387093    12.000000000000
         C            0.062973442876    -1.400954004486     2.426363228907    12.000000000000
         H            2.090243930776    -1.643827075386    -2.846917330893     1.007825032230
         H           -0.766835283724    -0.390647787686    -4.023621295593     1.007825032230
         H           -0.768197229124    -3.289871098886    -2.350295193193     1.007825032230
         H            2.086534941976     3.288143772414     0.000052252307     1.007825032230
         H           -0.767222156324     3.680716544114     1.676978920907     1.007825032230
         H           -0.764824089724     3.679785385914    -1.675908508193     1.007825032230
         H            2.083102469476    -1.644407319086     2.848028207007     1.007825032230
         H           -0.763692512724    -3.294026796386     2.347729201007     1.007825032230
         H           -0.764727511424    -0.385886848386     4.027278509107     1.007825032230

  Charge       = 0
  Multiplicity = 2
  Basis Set: ANONYMOUS17EF4DE3
    Blend: 6-31G_2DFP_
  Basis Set: (ANONYMOUS17EF4DE3 AUX)
    Blend: DEF2-UNIVERSAL-JKFIT

    Orbital Energies [Eh]
    ---------------------

    Alpha Occupied:

       1A    -10.180407     2A    -10.167037     3A    -10.167013
       4A    -10.166969     5A     -0.797751     6A     -0.686171
       7A     -0.686169     8A     -0.530783     9A     -0.441183
      10A     -0.434629    11A     -0.434585    12A     -0.382728
      13A     -0.382682    14A     -0.363485    15A     -0.337940
      16A     -0.337874    17A     -0.169145

    Alpha Virtual:

      18A      0.076074    19A      0.133984    20A      0.134318
      21A      0.142542    22A      0.142664    23A      0.154960
      24A      0.178762    25A      0.178933    26A      0.203574
      27A      0.214755    28A      0.275738    29A      0.275889
      30A      0.399176    31A      0.399242    32A      0.403263
      33A      0.423985    34A      0.424154    35A      0.456686
      36A      0.495218    37A      0.495507    38A      0.512206
      39A      0.513882    40A      0.578771    41A      0.579117
      42A      0.591508    43A      0.591806    44A      0.602799
      45A      0.624681    46A      0.631696    47A      0.635992
      48A      0.636203    49A      0.663203    50A      0.663951
      51A      0.683570    52A      0.683919    53A      0.734798
      54A      0.825329    55A      0.825367    56A      0.853923
      57A      0.914747    58A      0.915175    59A      0.944174
      60A      0.944659    61A      0.961183    62A      0.961441
      63A      1.003454    64A      1.128157    65A      1.128255
      66A      1.142229    67A      1.163578    68A      1.163829
      69A      1.223164    70A      1.274271    71A      1.274566
      72A      1.279611    73A      1.324063    74A      1.324153
      75A      1.356198    76A      1.365649    77A      1.365701
      78A      1.392461    79A      1.403641    80A      1.404567
      81A      1.416819    82A      1.417886    83A      1.427961
      84A      1.491307    85A      1.499470    86A      1.542427
      87A      1.543351    88A      1.574000    89A      1.574320
      90A      1.669550    91A      1.739008    92A      1.739304
      93A      1.768405    94A      1.830212    95A      1.831809
      96A      1.971450    97A      2.017208    98A      2.018955
      99A      2.019826   100A      2.052101   101A      2.053983
     102A      2.737882   103A      2.738697   104A      2.791122
     105A      2.811394   106A      2.889683   107A      2.889707
     108A      2.895282   109A      2.929507   110A      2.929525
     111A      2.958930   112A      2.963936   113A      2.964595
     114A      3.034365   115A      3.070417   116A      3.070454
     117A      3.084292   118A      3.168683   119A      3.169117
     120A      3.180570   121A      3.285783   122A      3.286435
     123A      3.327312   124A      3.327727   125A      3.375792
     126A      3.489769   127A      3.490091   128A      3.513836
     129A      3.525789   130A      3.567990   131A      3.568215
     132A      3.575769   133A      3.665090   134A      3.666533
     135A      3.679425   136A      3.694031   137A      3.694345
     138A      3.776513   139A      3.776545   140A      3.787859
     141A      3.912103   142A      3.912306   143A      4.034127
     144A      4.110679   145A      4.111573   146A      4.147495
     147A      4.148639   148A      4.173177   149A      4.201817
     150A      4.202868   151A      4.204262   152A      4.210973
     153A      4.315335   154A      4.317038   155A      4.359461
     156A      4.423985   157A      4.424631   158A      4.443165
     159A      4.516442   160A      4.517851   161A      4.578262
     162A      4.578514   163A      4.617059   164A      4.709776
     165A      4.773984   166A      4.774896   167A      4.835700
     168A      4.962966   169A      5.002351   170A      5.003829
     171A      5.227902   172A      5.244631   173A      5.248759
     174A      5.354035   175A      5.356486   176A      5.479010

    Beta Occupied:

       1A    -10.167791     2A    -10.167766     3A    -10.167735
       4A    -10.166581     5A     -0.781080     6A     -0.683975
       7A     -0.683966     8A     -0.511746     9A     -0.430986
      10A     -0.430954    11A     -0.421907    12A     -0.376846
      13A     -0.376755    14A     -0.362468    15A     -0.333059
      16A     -0.333008

    Beta Virtual:

      17A     -0.025844    18A      0.077079    19A      0.134875
      20A      0.135188    21A      0.144441    22A      0.144512
      23A      0.163406    24A      0.182416    25A      0.182624
      26A      0.214985    27A      0.218934    28A      0.282095
      29A      0.282252    30A      0.400345    31A      0.400409
      32A      0.419684    33A      0.426799    34A      0.426967
      35A      0.468607    36A      0.497477    37A      0.497781
      38A      0.513937    39A      0.556226    40A      0.584323
      41A      0.584638    42A      0.597672    43A      0.598016
      44A      0.610193    45A      0.628080    46A      0.631861
      47A      0.639278    48A      0.639489    49A      0.666802
      50A      0.667487    51A      0.686217    52A      0.686530
      53A      0.757342    54A      0.830499    55A      0.830541
      56A      0.855273    57A      0.922742    58A      0.923143
      59A      0.946007    60A      0.953582    61A      0.966427
      62A      0.966743    63A      1.008713    64A      1.132230
      65A      1.132253    66A      1.155575    67A      1.168615
      68A      1.168936    69A      1.232133    70A      1.279871
      71A      1.280190    72A      1.285374    73A      1.329063
      74A      1.329148    75A      1.365583    76A      1.370893
      77A      1.370936    78A      1.393513    79A      1.407066
      80A      1.408075    81A      1.421831    82A      1.422933
      83A      1.428234    84A      1.492354    85A      1.509919
      86A      1.546847    87A      1.547741    88A      1.581888
      89A      1.582179    90A      1.674412    91A      1.744772
      92A      1.745066    93A      1.779158    94A      1.834052
      95A      1.835664    96A      1.972310    97A      2.025262
      98A      2.026219    99A      2.038676   100A      2.058882
     101A      2.060677   102A      2.746226   103A      2.747023
     104A      2.811815   105A      2.816239   106A      2.902382
     107A      2.902493   108A      2.924952   109A      2.931943
     110A      2.932023   111A      2.959992   112A      2.968480
     113A      2.969166   114A      3.042257   115A      3.080264
     116A      3.080487   117A      3.086122   118A      3.184223
     119A      3.184871   120A      3.188311   121A      3.290532
     122A      3.291204   123A      3.331102   124A      3.331564
     125A      3.383619   126A      3.492556   127A      3.492802
     128A      3.512206   129A      3.528843   130A      3.575611
     131A      3.581339   132A      3.581652   133A      3.669771
     134A      3.671311   135A      3.692718   136A      3.725652
     137A      3.725990   138A      3.781047   139A      3.781155
     140A      3.816391   141A      3.921860   142A      3.922107
     143A      4.045043   144A      4.117500   145A      4.118351
     146A      4.154774   147A      4.155810   148A      4.187187
     149A      4.208301   150A      4.209702   151A      4.210809
     152A      4.215425   153A      4.322795   154A      4.324498
     155A      4.362823   156A      4.432158   157A      4.432805
     158A      4.446048   159A      4.524213   160A      4.525626
     161A      4.588885   162A      4.589160   163A      4.624245
     164A      4.720147   165A      4.780951   166A      4.781865
     167A      4.838628   168A      4.967758   169A      5.006395
     170A      5.007836   171A      5.233618   172A      5.246427
     173A      5.250533   174A      5.360514   175A      5.362984
     176A      5.481337

    Final Occupation by Irrep:
              A
    DOCC [    16 ]
    SOCC [     1 ]

  @DF-UKS Final Energy:  -157.81305416043432

   => Energetics <=

    Nuclear Repulsion Energy =            125.3922170810261321
    One-Electron Energy =                -458.7442443843332285
    Two-Electron Energy =                 195.8460495931518039
    DFT Exchange-Correlation Energy =     -20.3070764502790446
    Empirical Dispersion Energy =           0.0000000000000000
    VV10 Nonlocal Energy =                  0.0000000000000000
    Total Energy =                       -157.8130541604343193

  UHF NO Occupations:
  HONO-2 :   15  A 1.9996023
  HONO-1 :   16  A 1.9989820
  HONO-0 :   17  A 1.0000000
  LUNO+0 :   18  A 0.0010180
  LUNO+1 :   19  A 0.0003977
  LUNO+2 :   20  A 0.0001977
  LUNO+3 :   21  A 0.0001976

Computation Completed

Properties will be evaluated at   0.000000,   0.000000,   0.000000 [a0]

Properties computed using the SCF density matrix

  Nuclear Dipole Moment: [e a0]
     X:     0.8257      Y:    -0.0000      Z:     0.0016

  Electronic Dipole Moment: [e a0]
     X:    -0.7470      Y:     0.0000      Z:    -0.0023

  Dipole Moment: [e a0]
     X:     0.0787      Y:     0.0000      Z:    -0.0007     Total:     0.0787

  Dipole Moment: [D]
     X:     0.2000      Y:     0.0000      Z:    -0.0017     Total:     0.2000

*** tstop() called on n040 at Fri Nov  5 11:34:36 2021
Module time:
	user time   =     596.64 seconds =       9.94 minutes
	system time =      11.47 seconds =       0.19 minutes
	total time  =        153 seconds =       2.55 minutes
Total time:
	user time   =     596.64 seconds =       9.94 minutes
	system time =      11.47 seconds =       0.19 minutes
	total time  =        153 seconds =       2.55 minutes
Grab this energy -157.81305416043432
    Psi4 stopped on: Friday, 05 November 2021 11:34AM
    Psi4 wall time for execution: 0:02:32.96

*** Psi4 exiting successfully. Buy a developer a beer!
