                               Psi4 1.4a2.dev629

  ==> Input File <==

--------------------------------------------------------------------------
import os
memory 14 GB

molecule {
 C   -0.3233367553    0.0073428131   -0.0000000000
 C    0.0612912963   -1.3993804872   -2.4276960628
 C    0.0607185950    2.8009733143   -0.0000000000
 C    0.0612912963   -1.3993804872    2.4276960628
 H    2.0867043749   -1.6430805155   -2.8510233750
 H   -0.7676007394   -0.3914253756   -4.0287382055
 H   -0.7639338784   -3.2913915103   -2.3449124822
 H    2.0872579343    3.2829165262   -0.0000000000
 H   -0.7650848788    3.6796494050    1.6761245360
 H   -0.7650848788    3.6796494050   -1.6761245360
 H    2.0867043749   -1.6430805155    2.8510233750
 H   -0.7639338784   -3.2913915103    2.3449124822
 H   -0.7676007394   -0.3914253756    4.0287382055
units bohr
0 2
}

basis {

assign 6-31g_2dfp_

[ 6-31g_2dfp_ ]

spherical

!----------------------------------------------------------------------
! Basis Set Exchange
! Version v0.8.13
! https://www.basissetexchange.org
!----------------------------------------------------------------------
!   Basis set: 6-31G(2df,p)
! Description: 6-31G(2df,p)
!        Role: orbital
!     Version: 0  (Data from the original Basis Set Exchange)
!----------------------------------------------------------------------

****
H     0
S    3   1.00
     18.7311370              0.03349460
      2.8253937              0.23472695
      0.6401217              0.81375733
S    1   1.00
      0.1612778              1.00000000
P    1   1.00
      1.5000000              1.0000000
P    1   1.00
      0.3750000              1.0000000
****
B     0
S    6   1.00
   2068.8823000              0.0018663
    310.6495700              0.0142515
     70.6830330              0.0695516
     19.8610800              0.2325729
      6.2993048              0.4670787
      2.1270270              0.3634314
SP   3   1.00
      4.7279710             -0.1303938              0.0745976
      1.1903377             -0.1307889              0.3078467
      0.3594117              1.1309444              0.7434568
SP   1   1.00
      0.1267512              1.0000000              1.0000000
D    1   1.00
      0.8020000              1.0000000
D    1   1.00
      0.2005000              1.0000000
F    1   1.00
      0.5000000              1.0000000
****
C     0
S    6   1.00
   3047.5249000              0.0018347
    457.3695100              0.0140373
    103.9486900              0.0688426
     29.2101550              0.2321844
      9.2866630              0.4679413
      3.1639270              0.3623120
SP   3   1.00
      7.8682724             -0.1193324              0.0689991
      1.8812885             -0.1608542              0.3164240
      0.5442493              1.1434564              0.7443083
SP   1   1.00
      0.1687144              1.0000000              1.0000000
D    1   1.00
      1.2520000              1.0000000
D    1   1.00
      0.3130000              1.0000000
F    1   1.00
      0.8000000              1.0000000
****
N     0
S    6   1.00
   4173.5110000              0.0018348
    627.4579000              0.0139950
    142.9021000              0.0685870
     40.2343300              0.2322410
     12.8202100              0.4690700
      4.3904370              0.3604550
SP   3   1.00
     11.6263580             -0.1149610              0.0675800
      2.7162800             -0.1691180              0.3239070
      0.7722180              1.1458520              0.7408950
SP   1   1.00
      0.2120313              1.0000000              1.0000000
D    1   1.00
      1.8260000              1.0000000
D    1   1.00
      0.4565000              1.0000000
F    1   1.00
      1.0000000              1.0000000
****
O     0
S    6   1.00
   5484.6717000              0.0018311
    825.2349500              0.0139501
    188.0469600              0.0684451
     52.9645000              0.2327143
     16.8975700              0.4701930
      5.7996353              0.3585209
SP   3   1.00
     15.5396160             -0.1107775              0.0708743
      3.5999336             -0.1480263              0.3397528
      1.0137618              1.1307670              0.7271586
SP   1   1.00
      0.2700058              1.0000000              1.0000000
D    1   1.00
      2.5840000              1.0000000
D    1   1.00
      0.6460000              1.0000000
F    1   1.00
      1.4000000              1.0000000
****
F     0
S    6   1.00
   7001.7130900              0.0018196169
   1051.3660900              0.0139160796
    239.2856900              0.0684053245
     67.3974453              0.233185760
     21.5199573              0.471267439
      7.40310130             0.356618546
SP   3   1.00
     20.8479528             -0.108506975            0.0716287243
      4.80830834            -0.146451658            0.3459121030
      1.34406986             1.128688580            0.7224699570
SP   1   1.00
      0.358151393            1.0000000              1.0000000
D    1   1.00
      3.5000000              1.0000000
D    1   1.00
      0.8750000              1.0000000
F    1   1.00
      1.8500000              1.0000000
****
Al     0
S    6   1.00
  13983.1000000              0.00194267
   2098.7500000              0.0148599
    477.7050000              0.0728494
    134.3600000              0.2468300
     42.8709000              0.4872580
     14.5189000              0.3234960
SP   6   1.00
    239.6680000             -0.00292619             0.00460285
     57.4419000             -0.0374080              0.0331990
     18.2859000             -0.1144870              0.1362820
      6.5991400              0.1156350              0.3304760
      2.4904900              0.6125950              0.4491460
      0.9445400              0.3937990              0.2657040
SP   3   1.00
      1.2779000             -0.2276060             -0.0175130
      0.3975900              0.00144583             0.2445330
      0.1600950              1.0927900              0.8049340
SP   1   1.00
      0.0556577              1.0000000              1.0000000
D    1   1.00
      0.6500000              1.0000000
D    1   1.00
      0.1625000              1.0000000
F    1   1.00
      0.2500000              1.0000000
****
Si     0
S    6   1.00
  16115.9000000              0.00195948
   2425.5800000              0.01492880
    553.8670000              0.07284780
    156.3400000              0.24613000
     50.0683000              0.48591400
     17.0178000              0.32500200
SP   6   1.00
    292.7180000             -0.00278094             0.00443826
     69.8731000             -0.03571460             0.03266790
     22.3363000             -0.11498500             0.13472100
      8.1503900              0.09356340             0.32867800
      3.1345800              0.60301700             0.44964000
      1.2254300              0.41895900             0.26137200
SP   3   1.00
      1.7273800             -0.24463000            -0.01779510
      0.5729220              0.00431572             0.25353900
      0.2221920              1.09818000             0.80066900
SP   1   1.00
      0.0778369              1.00000000             1.00000000
D    1   1.00
      0.9000000              1.0000000
D    1   1.00
      0.2250000              1.0000000
F    1   1.00
      0.3200000              1.0000000
****
P     0
S    6   1.00
  19413.3000000              0.0018516
   2909.4200000              0.0142062
    661.3640000              0.0699995
    185.7590000              0.2400790
     59.1943000              0.4847620
     20.0310000              0.3352000
SP   6   1.00
    339.4780000             -0.00278217             0.00456462
     81.0101000             -0.0360499              0.03369360
     25.8780000             -0.1166310              0.13975500
      9.4522100              0.0968328              0.33936200
      3.6656600              0.6144180              0.45092100
      1.4674600              0.4037980              0.23858600
SP   3   1.00
      2.1562300             -0.2529230             -0.01776530
      0.7489970              0.0328517              0.27405800
      0.2831450              1.0812500              0.78542100
SP   1   1.00
      0.0998317              1.0000000              1.00000000
D    1   1.00
      1.1000000              1.0000000
D    1   1.00
      0.2750000              1.0000000
F    1   1.00
      0.4500000              1.0000000
****
S     0
S    6   1.00
  21917.1000000              0.0018690
   3301.4900000              0.0142300
    754.1460000              0.0696960
    212.7110000              0.2384870
     67.9896000              0.4833070
     23.0515000              0.3380740
SP   6   1.00
    423.7350000             -0.0023767              0.0040610
    100.7100000             -0.0316930              0.0306810
     32.1599000             -0.1133170              0.1304520
     11.8079000              0.0560900              0.3272050
      4.6311000              0.5922550              0.4528510
      1.8702500              0.4550060              0.2560420
SP   3   1.00
      2.6158400             -0.2503740             -0.0145110
      0.9221670              0.0669570              0.3102630
      0.3412870              1.0545100              0.7544830
SP   1   1.00
      0.1171670              1.0000000              1.0000000
D    1   1.00
      1.3000000              1.0000000
D    1   1.00
      0.3250000              1.0000000
F    1   1.00
      0.5500000              1.0000000
****
Cl     0
S    6   1.00
  25180.1000000              0.0018330
   3780.3500000              0.0140340
    860.4740000              0.0690970
    242.1450000              0.2374520
     77.3349000              0.4830340
     26.2470000              0.3398560
SP   6   1.00
    491.7650000             -0.0022974              0.0039894
    116.9840000             -0.0307140              0.0303180
     37.4153000             -0.1125280              0.1298800
     13.7834000              0.0450160              0.3279510
      5.4521500              0.5893530              0.4535270
      2.2258800              0.4652060              0.2521540
SP   3   1.00
      3.1864900             -0.2518300             -0.0142990
      1.1442700              0.0615890              0.3235720
      0.4203770              1.0601800              0.7435070
SP   1   1.00
      0.1426570              1.0000000              1.0000000
D    1   1.00
      1.5000000              1.0000000
D    1   1.00
      0.3750000              1.0000000
F    1   1.00
      0.7000000              1.0000000
****
}

set {
reference uhf
freeze_core true
e_convergence 10
d_convergence 10
dft_spherical_points 1202
dft_radial_points 99
}

e = energy('b3lyp')

print_out('Grab this energy {0}'.format(e))
--------------------------------------------------------------------------

    Molecular point group: cs

    Geometry (in Bohr), charge = 0, multiplicity = 2:

       Center              X                  Y                   Z               Mass
    ------------   -----------------  -----------------  -----------------  -----------------
         C           -0.323337606072     0.005502851172     0.000000000000    12.000000000000
         C            0.061290445528    -1.401220449128    -2.427696062800    12.000000000000
         C            0.060717744228     2.799133352372     0.000000000000    12.000000000000
         C            0.061290445528    -1.401220449128     2.427696062800    12.000000000000
         H            2.086703524128    -1.644920477428    -2.851023375000     1.007825032230
         H           -0.767601590172    -0.393265337528    -4.028738205500     1.007825032230
         H           -0.763934729172    -3.293231472228    -2.344912482200     1.007825032230
         H            2.087257083528     3.281076564272     0.000000000000     1.007825032230
         H           -0.765085729572     3.677809443072     1.676124536000     1.007825032230
         H           -0.765085729572     3.677809443072    -1.676124536000     1.007825032230
         H            2.086703524128    -1.644920477428     2.851023375000     1.007825032230
         H           -0.763934729172    -3.293231472228     2.344912482200     1.007825032230
         H           -0.767601590172    -0.393265337528     4.028738205500     1.007825032230

  Charge       = 0
  Multiplicity = 2
  Basis Set: ANONYMOUS2372B5E6
    Blend: 6-31G_2DFP_
  Basis Set: (ANONYMOUS2372B5E6 AUX)
    Blend: DEF2-UNIVERSAL-JKFIT

    Orbital Energies [Eh]
    ---------------------

    Alpha Occupied:

       1Ap   -10.180341     1App  -10.167138     2Ap   -10.167109
       3Ap   -10.166797     4Ap    -0.797773     5Ap    -0.686496
       2App   -0.685876     6Ap    -0.530775     7Ap    -0.441128
       3App   -0.434818     8Ap    -0.434527     9Ap    -0.382749
       4App   -0.382447     5App   -0.363610    10Ap    -0.338583
       6App   -0.337412    11Ap    -0.168959

    Alpha Virtual:

      12Ap     0.076073     7App    0.134140    13Ap     0.134172
       8App    0.142513    14Ap     0.142736    15Ap     0.154880
      16Ap     0.178744     9App    0.178811    17Ap     0.203543
      10App    0.214802    11App    0.275427    18Ap     0.276543
      12App    0.399070    19Ap     0.399375    20Ap     0.403357
      21Ap     0.424046    13App    0.424152    22Ap     0.456591
      23Ap     0.495377    14App    0.495401    15App    0.512160
      24Ap     0.513978    16App    0.578331    25Ap     0.579289
      17App    0.591353    26Ap     0.591929    27Ap     0.602588
      28Ap     0.624761    18App    0.631773    19App    0.636063
      29Ap     0.636447    30Ap     0.663314    20App    0.663512
      31Ap     0.683831    21App    0.683874    32Ap     0.734995
      33Ap     0.825300    22App    0.825512    23App    0.853918
      24App    0.914996    34Ap     0.915016    25App    0.944126
      35Ap     0.944642    36Ap     0.960784    26App    0.961805
      37Ap     1.003468    27App    1.128074    38Ap     1.128086
      39Ap     1.142258    28App    1.163003    40Ap     1.163557
      41Ap     1.223320    42Ap     1.274180    29App    1.274810
      43Ap     1.279349    30App    1.324262    44Ap     1.324455
      45Ap     1.355994    31App    1.365600    46Ap     1.366489
      32App    1.392468    33App    1.403663    47Ap     1.404413
      34App    1.417032    48Ap     1.417199    35App    1.427934
      36App    1.491486    49Ap     1.499083    50Ap     1.542559
      37App    1.543105    51Ap     1.574413    38App    1.574475
      52Ap     1.669829    39App    1.738845    53Ap     1.739995
      54Ap     1.768300    40App    1.830640    55Ap     1.832157
      41App    1.971722    56Ap     2.017748    57Ap     2.018987
      42App    2.019674    43App    2.051310    58Ap     2.053995
      59Ap     2.738436    44App    2.738527    60Ap     2.790937
      45App    2.811410    46App    2.889136    61Ap     2.890708
      62Ap     2.895006    47App    2.929086    63Ap     2.929906
      48App    2.958992    64Ap     2.964054    49App    2.964688
      65Ap     3.033997    50App    3.070903    66Ap     3.071674
      51App    3.084347    52App    3.168663    67Ap     3.168852
      68Ap     3.180679    53App    3.284966    69Ap     3.285655
      70Ap     3.327102    54App    3.327223    71Ap     3.375601
      55App    3.489448    72Ap     3.490831    56App    3.513993
      73Ap     3.525337    57App    3.568156    74Ap     3.568469
      58App    3.575283    75Ap     3.665861    59App    3.666854
      76Ap     3.679641    60App    3.693750    77Ap     3.694495
      78Ap     3.776252    61App    3.777317    79Ap     3.789269
      62App    3.911501    80Ap     3.912960    81Ap     4.034398
      63App    4.109769    82Ap     4.112922    64App    4.146259
      83Ap     4.149990    84Ap     4.173283    85Ap     4.202451
      65App    4.202549    86Ap     4.203785    66App    4.210916
      67App    4.314627    87Ap     4.317324    68App    4.358993
      88Ap     4.424253    69App    4.424619    70App    4.443473
      71App    4.516304    89Ap     4.517367    90Ap     4.578012
      72App    4.578083    91Ap     4.617920    92Ap     4.709482
      93Ap     4.774240    73App    4.775051    74App    4.836944
      94Ap     4.962784    75App    5.002864    95Ap     5.003142
      96Ap     5.228041    97Ap     5.246370    76App    5.247241
      77App    5.354231    98Ap     5.356780    78App    5.479376

    Beta Occupied:

       1App  -10.167889     1Ap   -10.167871     2Ap   -10.167562
       3Ap   -10.166518     4Ap    -0.781098     5Ap    -0.684279
       2App   -0.683698     6Ap    -0.511747     3App   -0.431195
       7Ap    -0.430892     8Ap    -0.421825     9Ap    -0.376789
       4App   -0.376578     5App   -0.362594    10Ap    -0.333712
       6App   -0.332530

    Beta Virtual:

      11Ap    -0.025742    12Ap     0.077081     7App    0.135020
      13Ap     0.135071     8App    0.144395    14Ap     0.144596
      15Ap     0.163340    16Ap     0.182445     9App    0.182453
      10App    0.215031    17Ap     0.218925    11App    0.281819
      18Ap     0.282846    12App    0.400243    19Ap     0.400551
      20Ap     0.419790    21Ap     0.426869    13App    0.426954
      22Ap     0.468498    23Ap     0.497645    14App    0.497656
      15App    0.513895    24Ap     0.556319    16App    0.583858
      25Ap     0.584867    17App    0.597534    26Ap     0.598104
      27Ap     0.610010    28Ap     0.628134    18App    0.631930
      19App    0.639316    29Ap     0.639772    30Ap     0.666883
      20App    0.667071    31Ap     0.686487    21App    0.686489
      32Ap     0.757517    33Ap     0.830442    22App    0.830707
      23App    0.855271    34Ap     0.922925    24App    0.923027
      25App    0.945963    35Ap     0.953571    36Ap     0.966154
      26App    0.967049    37Ap     1.008708    38Ap     1.132033
      27App    1.132203    39Ap     1.155621    28App    1.167997
      40Ap     1.168702    41Ap     1.232292    42Ap     1.279832
      29App    1.280356    43Ap     1.285101    30App    1.329247
      44Ap     1.329449    45Ap     1.365408    31App    1.370921
      46Ap     1.371657    32App    1.393526    33App    1.407042
      47Ap     1.407958    34App    1.422080    48Ap     1.422252
      35App    1.428209    36App    1.492534    49Ap     1.509527
      50Ap     1.546970    37App    1.547509    51Ap     1.582317
      38App    1.582318    52Ap     1.674675    39App    1.744594
      53Ap     1.745770    54Ap     1.779077    40App    1.834483
      55Ap     1.836026    41App    1.972582    56Ap     2.024806
      42App    2.026076    57Ap     2.039697    43App    2.058009
      58Ap     2.060734    44App    2.746815    59Ap     2.746822
      45App    2.811824    60Ap     2.816069    46App    2.901968
      61Ap     2.903298    62Ap     2.924662    47App    2.931528
      63Ap     2.932432    48App    2.960054    64Ap     2.968619
      49App    2.969212    65Ap     3.041932    50App    3.080882
      66Ap     3.081515    51App    3.086163    52App    3.184293
      67Ap     3.184572    68Ap     3.188511    53App    3.289781
      69Ap     3.290437    70Ap     3.330887    54App    3.331047
      71Ap     3.383422    55App    3.492187    72Ap     3.493552
      56App    3.512357    73Ap     3.528387    57App    3.574864
      58App    3.581684    74Ap     3.581895    75Ap     3.670938
      59App    3.671313    76Ap     3.692920    77Ap     3.725675
      60App    3.725809    78Ap     3.780841    61App    3.781804
      79Ap     3.817781    62App    3.921337    80Ap     3.922763
      81Ap     4.045285    63App    4.116743    82Ap     4.119591
      64App    4.153465    83Ap     4.157193    84Ap     4.187340
      65App    4.208466    85Ap     4.209318    86Ap     4.210828
      66App    4.215404    67App    4.321977    87Ap     4.324850
      68App    4.362357    88Ap     4.432515    69App    4.432769
      70App    4.446381    71App    4.524058    89Ap     4.525192
      90Ap     4.588567    72App    4.588684    91Ap     4.625157
      92Ap     4.719828    93Ap     4.781275    73App    4.781922
      74App    4.839865    94Ap     4.967574    75App    5.006879
      95Ap     5.007211    96Ap     5.233756    97Ap     5.248141
      76App    5.249038    77App    5.360664    98Ap     5.363309
      78App    5.481697

    Final Occupation by Irrep:
             Ap   App
    DOCC [    10,    6 ]
    SOCC [     1,    0 ]

  @DF-UKS Final Energy:  -157.81305865916309

   => Energetics <=

    Nuclear Repulsion Energy =            125.3947882040368995
    One-Electron Energy =                -458.7492061148919333
    Two-Electron Energy =                 195.8485092532193619
    DFT Exchange-Correlation Energy =     -20.3071500015274076
    Empirical Dispersion Energy =           0.0000000000000000
    VV10 Nonlocal Energy =                  0.0000000000000000
    Total Energy =                       -157.8130586591630902

  UHF NO Occupations:
  HONO-2 :    9 Ap 1.9996008
  HONO-1 :   10 Ap 1.9989804
  HONO-0 :   11 Ap 1.0000000
  LUNO+0 :   12 Ap 0.0010196
  LUNO+1 :   13 Ap 0.0003992
  LUNO+2 :    7App 0.0001990
  LUNO+3 :   14 Ap 0.0001961

Computation Completed

Properties will be evaluated at   0.000000,   0.000000,   0.000000 [a0]

Properties computed using the SCF density matrix

  Nuclear Dipole Moment: [e a0]
     X:     0.8272      Y:    -0.0130      Z:     0.0000

  Electronic Dipole Moment: [e a0]
     X:    -0.7493      Y:     0.0142      Z:     0.0000

  Dipole Moment: [e a0]
     X:     0.0779      Y:     0.0013      Z:     0.0000     Total:     0.0779

  Dipole Moment: [D]
     X:     0.1980      Y:     0.0032      Z:     0.0000     Total:     0.1981

*** tstop() called on n022 at Fri Nov  5 13:48:31 2021
Module time:
	user time   =     636.41 seconds =      10.61 minutes
	system time =      12.09 seconds =       0.20 minutes
	total time  =        163 seconds =       2.72 minutes
Total time:
	user time   =     636.41 seconds =      10.61 minutes
	system time =      12.09 seconds =       0.20 minutes
	total time  =        163 seconds =       2.72 minutes
Grab this energy -157.8130586591631
    Psi4 stopped on: Friday, 05 November 2021 01:48PM
    Psi4 wall time for execution: 0:02:43.08

*** Psi4 exiting successfully. Buy a developer a beer!
