                               Psi4 1.4a2.dev629

  ==> Input File <==

--------------------------------------------------------------------------
import os
memory 14 GB

molecule {
 C   -0.3233631843   -0.0000020259    0.0000000000
 C    0.0610466486   -1.4005483192   -2.4258104187
 C    0.0609268865    2.8011009817    0.0000000000
 C    0.0610466486   -1.4005483192    2.4258104187
 H    2.0900913242   -1.6439176965   -2.8471287720
 H   -0.7669318013   -0.3859052416   -4.0270490472
 H   -0.7670952760   -3.2945150646   -2.3477657983
 H    2.0899521320    3.2877427829    0.0000000000
 H   -0.7671727509    3.6804532957    1.6792893431
 H   -0.7671727509    3.6804532957   -1.6792893431
 H    2.0900913242   -1.6439176965    2.8471287720
 H   -0.7670952760   -3.2945150646    2.3477657983
 H   -0.7669318013   -0.3859052416    4.0270490472
units bohr
0 2
}

basis {

assign 6-31g_2dfp_

[ 6-31g_2dfp_ ]

spherical

!----------------------------------------------------------------------
! Basis Set Exchange
! Version v0.8.13
! https://www.basissetexchange.org
!----------------------------------------------------------------------
!   Basis set: 6-31G(2df,p)
! Description: 6-31G(2df,p)
!        Role: orbital
!     Version: 0  (Data from the original Basis Set Exchange)
!----------------------------------------------------------------------

****
H     0
S    3   1.00
     18.7311370              0.03349460
      2.8253937              0.23472695
      0.6401217              0.81375733
S    1   1.00
      0.1612778              1.00000000
P    1   1.00
      1.5000000              1.0000000
P    1   1.00
      0.3750000              1.0000000
****
B     0
S    6   1.00
   2068.8823000              0.0018663
    310.6495700              0.0142515
     70.6830330              0.0695516
     19.8610800              0.2325729
      6.2993048              0.4670787
      2.1270270              0.3634314
SP   3   1.00
      4.7279710             -0.1303938              0.0745976
      1.1903377             -0.1307889              0.3078467
      0.3594117              1.1309444              0.7434568
SP   1   1.00
      0.1267512              1.0000000              1.0000000
D    1   1.00
      0.8020000              1.0000000
D    1   1.00
      0.2005000              1.0000000
F    1   1.00
      0.5000000              1.0000000
****
C     0
S    6   1.00
   3047.5249000              0.0018347
    457.3695100              0.0140373
    103.9486900              0.0688426
     29.2101550              0.2321844
      9.2866630              0.4679413
      3.1639270              0.3623120
SP   3   1.00
      7.8682724             -0.1193324              0.0689991
      1.8812885             -0.1608542              0.3164240
      0.5442493              1.1434564              0.7443083
SP   1   1.00
      0.1687144              1.0000000              1.0000000
D    1   1.00
      1.2520000              1.0000000
D    1   1.00
      0.3130000              1.0000000
F    1   1.00
      0.8000000              1.0000000
****
N     0
S    6   1.00
   4173.5110000              0.0018348
    627.4579000              0.0139950
    142.9021000              0.0685870
     40.2343300              0.2322410
     12.8202100              0.4690700
      4.3904370              0.3604550
SP   3   1.00
     11.6263580             -0.1149610              0.0675800
      2.7162800             -0.1691180              0.3239070
      0.7722180              1.1458520              0.7408950
SP   1   1.00
      0.2120313              1.0000000              1.0000000
D    1   1.00
      1.8260000              1.0000000
D    1   1.00
      0.4565000              1.0000000
F    1   1.00
      1.0000000              1.0000000
****
O     0
S    6   1.00
   5484.6717000              0.0018311
    825.2349500              0.0139501
    188.0469600              0.0684451
     52.9645000              0.2327143
     16.8975700              0.4701930
      5.7996353              0.3585209
SP   3   1.00
     15.5396160             -0.1107775              0.0708743
      3.5999336             -0.1480263              0.3397528
      1.0137618              1.1307670              0.7271586
SP   1   1.00
      0.2700058              1.0000000              1.0000000
D    1   1.00
      2.5840000              1.0000000
D    1   1.00
      0.6460000              1.0000000
F    1   1.00
      1.4000000              1.0000000
****
F     0
S    6   1.00
   7001.7130900              0.0018196169
   1051.3660900              0.0139160796
    239.2856900              0.0684053245
     67.3974453              0.233185760
     21.5199573              0.471267439
      7.40310130             0.356618546
SP   3   1.00
     20.8479528             -0.108506975            0.0716287243
      4.80830834            -0.146451658            0.3459121030
      1.34406986             1.128688580            0.7224699570
SP   1   1.00
      0.358151393            1.0000000              1.0000000
D    1   1.00
      3.5000000              1.0000000
D    1   1.00
      0.8750000              1.0000000
F    1   1.00
      1.8500000              1.0000000
****
Al     0
S    6   1.00
  13983.1000000              0.00194267
   2098.7500000              0.0148599
    477.7050000              0.0728494
    134.3600000              0.2468300
     42.8709000              0.4872580
     14.5189000              0.3234960
SP   6   1.00
    239.6680000             -0.00292619             0.00460285
     57.4419000             -0.0374080              0.0331990
     18.2859000             -0.1144870              0.1362820
      6.5991400              0.1156350              0.3304760
      2.4904900              0.6125950              0.4491460
      0.9445400              0.3937990              0.2657040
SP   3   1.00
      1.2779000             -0.2276060             -0.0175130
      0.3975900              0.00144583             0.2445330
      0.1600950              1.0927900              0.8049340
SP   1   1.00
      0.0556577              1.0000000              1.0000000
D    1   1.00
      0.6500000              1.0000000
D    1   1.00
      0.1625000              1.0000000
F    1   1.00
      0.2500000              1.0000000
****
Si     0
S    6   1.00
  16115.9000000              0.00195948
   2425.5800000              0.01492880
    553.8670000              0.07284780
    156.3400000              0.24613000
     50.0683000              0.48591400
     17.0178000              0.32500200
SP   6   1.00
    292.7180000             -0.00278094             0.00443826
     69.8731000             -0.03571460             0.03266790
     22.3363000             -0.11498500             0.13472100
      8.1503900              0.09356340             0.32867800
      3.1345800              0.60301700             0.44964000
      1.2254300              0.41895900             0.26137200
SP   3   1.00
      1.7273800             -0.24463000            -0.01779510
      0.5729220              0.00431572             0.25353900
      0.2221920              1.09818000             0.80066900
SP   1   1.00
      0.0778369              1.00000000             1.00000000
D    1   1.00
      0.9000000              1.0000000
D    1   1.00
      0.2250000              1.0000000
F    1   1.00
      0.3200000              1.0000000
****
P     0
S    6   1.00
  19413.3000000              0.0018516
   2909.4200000              0.0142062
    661.3640000              0.0699995
    185.7590000              0.2400790
     59.1943000              0.4847620
     20.0310000              0.3352000
SP   6   1.00
    339.4780000             -0.00278217             0.00456462
     81.0101000             -0.0360499              0.03369360
     25.8780000             -0.1166310              0.13975500
      9.4522100              0.0968328              0.33936200
      3.6656600              0.6144180              0.45092100
      1.4674600              0.4037980              0.23858600
SP   3   1.00
      2.1562300             -0.2529230             -0.01776530
      0.7489970              0.0328517              0.27405800
      0.2831450              1.0812500              0.78542100
SP   1   1.00
      0.0998317              1.0000000              1.00000000
D    1   1.00
      1.1000000              1.0000000
D    1   1.00
      0.2750000              1.0000000
F    1   1.00
      0.4500000              1.0000000
****
S     0
S    6   1.00
  21917.1000000              0.0018690
   3301.4900000              0.0142300
    754.1460000              0.0696960
    212.7110000              0.2384870
     67.9896000              0.4833070
     23.0515000              0.3380740
SP   6   1.00
    423.7350000             -0.0023767              0.0040610
    100.7100000             -0.0316930              0.0306810
     32.1599000             -0.1133170              0.1304520
     11.8079000              0.0560900              0.3272050
      4.6311000              0.5922550              0.4528510
      1.8702500              0.4550060              0.2560420
SP   3   1.00
      2.6158400             -0.2503740             -0.0145110
      0.9221670              0.0669570              0.3102630
      0.3412870              1.0545100              0.7544830
SP   1   1.00
      0.1171670              1.0000000              1.0000000
D    1   1.00
      1.3000000              1.0000000
D    1   1.00
      0.3250000              1.0000000
F    1   1.00
      0.5500000              1.0000000
****
Cl     0
S    6   1.00
  25180.1000000              0.0018330
   3780.3500000              0.0140340
    860.4740000              0.0690970
    242.1450000              0.2374520
     77.3349000              0.4830340
     26.2470000              0.3398560
SP   6   1.00
    491.7650000             -0.0022974              0.0039894
    116.9840000             -0.0307140              0.0303180
     37.4153000             -0.1125280              0.1298800
     13.7834000              0.0450160              0.3279510
      5.4521500              0.5893530              0.4535270
      2.2258800              0.4652060              0.2521540
SP   3   1.00
      3.1864900             -0.2518300             -0.0142990
      1.1442700              0.0615890              0.3235720
      0.4203770              1.0601800              0.7435070
SP   1   1.00
      0.1426570              1.0000000              1.0000000
D    1   1.00
      1.5000000              1.0000000
D    1   1.00
      0.3750000              1.0000000
F    1   1.00
      0.7000000              1.0000000
****
}

set {
reference uhf
freeze_core true
e_convergence 10
d_convergence 10
dft_spherical_points 1202
dft_radial_points 99
}

e = energy('b3lyp')

print_out('Grab this energy {0}'.format(e))
--------------------------------------------------------------------------

    Molecular point group: cs

    Geometry (in Bohr), charge = 0, multiplicity = 2:

       Center              X                  Y                   Z               Mass
    ------------   -----------------  -----------------  -----------------  -----------------
         C           -0.323304821285    -0.000002042884     0.000000000000    12.000000000000
         C            0.061105011615    -1.400548336184    -2.425810418700    12.000000000000
         C            0.060985249515     2.801100964716     0.000000000000    12.000000000000
         C            0.061105011615    -1.400548336184     2.425810418700    12.000000000000
         H            2.090149687215    -1.643917713484    -2.847128772000     1.007825032230
         H           -0.766873438285    -0.385905258584    -4.027049047200     1.007825032230
         H           -0.767036912985    -3.294515081584    -2.347765798300     1.007825032230
         H            2.090010495015     3.287742765916     0.000000000000     1.007825032230
         H           -0.767114387885     3.680453278716     1.679289343100     1.007825032230
         H           -0.767114387885     3.680453278716    -1.679289343100     1.007825032230
         H            2.090149687215    -1.643917713484     2.847128772000     1.007825032230
         H           -0.767036912985    -3.294515081584     2.347765798300     1.007825032230
         H           -0.766873438285    -0.385905258584     4.027049047200     1.007825032230

  Charge       = 0
  Multiplicity = 2
  Basis Set: ANONYMOUSAF8DB3AC
    Blend: 6-31G_2DFP_
  Basis Set: (ANONYMOUSAF8DB3AC AUX)
    Blend: DEF2-UNIVERSAL-JKFIT

    Orbital Energies [Eh]
    ---------------------

    Alpha Occupied:

       1Ap   -10.180410     2Ap   -10.167566     1App  -10.167565
       3Ap   -10.167520     4Ap    -0.797806     5Ap    -0.685828
       2App   -0.685827     6Ap    -0.530465     7Ap    -0.441023
       3App   -0.434532     8Ap    -0.434532     9Ap    -0.382341
       4App   -0.382339     5App   -0.363296     6App   -0.337994
      10Ap    -0.337994    11Ap    -0.169023

    Alpha Virtual:

      12Ap     0.075740    13Ap     0.133788     7App    0.133789
      14Ap     0.142219     8App    0.142219    15Ap     0.154581
      16Ap     0.178271     9App    0.178271    17Ap     0.203657
      10App    0.214347    11App    0.275961    18Ap     0.275963
      19Ap     0.399282    12App    0.399286    20Ap     0.403135
      13App    0.423823    21Ap     0.423823    22Ap     0.456459
      23Ap     0.495166    14App    0.495167    15App    0.511891
      24Ap     0.513846    25Ap     0.578478    16App    0.578486
      17App    0.591031    26Ap     0.591032    27Ap     0.601922
      28Ap     0.623790    18App    0.631077    19App    0.635684
      29Ap     0.635688    30Ap     0.663078    20App    0.663078
      31Ap     0.683305    21App    0.683306    32Ap     0.734684
      22App    0.824589    33Ap     0.824592    23App    0.853399
      24App    0.914312    34Ap     0.914318    25App    0.943503
      35Ap     0.943824    26App    0.960630    36Ap     0.960647
      37Ap     1.003354    38Ap     1.127685    27App    1.127698
      39Ap     1.141348    40Ap     1.163007    28App    1.163019
      41Ap     1.222881    42Ap     1.273954    29App    1.273958
      43Ap     1.279803    30App    1.323644    44Ap     1.323647
      45Ap     1.355141    31App    1.365551    46Ap     1.365555
      32App    1.391875    47Ap     1.403024    33App    1.403026
      34App    1.416165    48Ap     1.416172    35App    1.427154
      36App    1.490606    49Ap     1.497720    37App    1.542311
      50Ap     1.542314    51Ap     1.574278    38App    1.574281
      52Ap     1.667661    53Ap     1.737980    39App    1.737992
      54Ap     1.766802    40App    1.828921    55Ap     1.828921
      41App    1.970098    56Ap     2.017217    57Ap     2.017843
      42App    2.017846    58Ap     2.051556    43App    2.051556
      44App    2.737509    59Ap     2.737510    60Ap     2.790711
      45App    2.810915    61Ap     2.889387    46App    2.889393
      62Ap     2.894865    63Ap     2.929110    47App    2.929119
      48App    2.958376    64Ap     2.963722    49App    2.963736
      65Ap     3.033108    50App    3.070333    66Ap     3.070346
      51App    3.083430    67Ap     3.169446    52App    3.169453
      68Ap     3.180287    53App    3.285353    69Ap     3.285353
      70Ap     3.327669    54App    3.327675    71Ap     3.376313
      55App    3.491146    72Ap     3.491166    56App    3.514310
      73Ap     3.525957    57App    3.568193    74Ap     3.568213
      58App    3.576815    75Ap     3.665643    59App    3.665651
      76Ap     3.677822    60App    3.693296    77Ap     3.693313
      78Ap     3.776245    61App    3.776271    79Ap     3.788555
      80Ap     3.911278    62App    3.911284    81Ap     4.032105
      82Ap     4.108902    63App    4.108905    83Ap     4.144806
      64App    4.144815    84Ap     4.170291    85Ap     4.201259
      65App    4.201669    86Ap     4.201672    66App    4.207161
      87Ap     4.313718    67App    4.313738    68App    4.356565
      88Ap     4.421880    69App    4.421882    70App    4.441401
      71App    4.514411    89Ap     4.514412    72App    4.576787
      90Ap     4.576799    91Ap     4.616844    92Ap     4.707431
      93Ap     4.772814    73App    4.772822    74App    4.834546
      94Ap     4.962090    75App    5.001857    95Ap     5.001869
      96Ap     5.222750    97Ap     5.241513    76App    5.241513
      98Ap     5.350911    77App    5.350923    78App    5.476131

    Beta Occupied:

       1Ap   -10.168322     1App  -10.168322     2Ap   -10.168291
       3Ap   -10.166602     4Ap    -0.781103     5Ap    -0.683632
       2App   -0.683632     6Ap    -0.511494     3App   -0.430894
       7Ap    -0.430894     8Ap    -0.421686     9Ap    -0.376417
       4App   -0.376416     5App   -0.362277     6App   -0.333127
      10Ap    -0.333126

    Beta Virtual:

      11Ap    -0.025976    12Ap     0.076753    13Ap     0.134670
       7App    0.134670    14Ap     0.144116     8App    0.144117
      15Ap     0.163103    16Ap     0.181952     9App    0.181952
      10App    0.214579    17Ap     0.219020    11App    0.282300
      18Ap     0.282302    19Ap     0.400456    12App    0.400460
      20Ap     0.419568    13App    0.426632    21Ap     0.426632
      22Ap     0.468385    23Ap     0.497427    14App    0.497428
      15App    0.513632    24Ap     0.556133    25Ap     0.584011
      16App    0.584019    17App    0.597190    26Ap     0.597191
      27Ap     0.609359    28Ap     0.627177    18App    0.631238
      19App    0.638992    29Ap     0.638996    30Ap     0.666636
      20App    0.666637    31Ap     0.685976    21App    0.685977
      32Ap     0.757183    22App    0.829760    33Ap     0.829762
      23App    0.854776    24App    0.922297    34Ap     0.922304
      25App    0.945340    35Ap     0.952731    26App    0.965945
      36Ap     0.965961    37Ap     1.008582    38Ap     1.131727
      27App    1.131738    39Ap     1.154738    40Ap     1.168050
      28App    1.168063    41Ap     1.231871    42Ap     1.279563
      29App    1.279567    43Ap     1.285569    30App    1.328608
      44Ap     1.328609    45Ap     1.364534    31App    1.370795
      46Ap     1.370800    32App    1.392936    47Ap     1.406493
      33App    1.406495    34App    1.421216    48Ap     1.421223
      35App    1.427433    36App    1.491648    49Ap     1.508163
      37App    1.546851    50Ap     1.546851    51Ap     1.582043
      38App    1.582043    52Ap     1.672435    53Ap     1.743735
      39App    1.743747    54Ap     1.777638    40App    1.832806
      55Ap     1.832807    41App    1.970961    56Ap     2.024263
      42App    2.024267    57Ap     2.038613    58Ap     2.058272
      43App    2.058272    44App    2.745833    59Ap     2.745834
      45App    2.811324    60Ap     2.815822    61Ap     2.902030
      46App    2.902036    62Ap     2.924538    63Ap     2.931640
      47App    2.931649    48App    2.959433    64Ap     2.968226
      49App    2.968240    65Ap     3.041123    50App    3.080187
      66Ap     3.080198    51App    3.085240    67Ap     3.185247
      52App    3.185251    68Ap     3.187906    69Ap     3.290206
      53App    3.290206    70Ap     3.331466    54App    3.331472
      71Ap     3.384108    55App    3.493831    72Ap     3.493851
      56App    3.512667    73Ap     3.528987    57App    3.576681
      58App    3.581509    74Ap     3.581530    75Ap     3.670130
      59App    3.670141    76Ap     3.691055    60App    3.725074
      77Ap     3.725090    78Ap     3.780786    61App    3.780812
      79Ap     3.817073    80Ap     3.921108    62App    3.921115
      81Ap     4.042868    82Ap     4.115640    63App    4.115641
      83Ap     4.152054    64App    4.152063    84Ap     4.184496
      65App    4.207609    85Ap     4.207613    86Ap     4.209300
      66App    4.211659    87Ap     4.321239    67App    4.321260
      68App    4.359937    88Ap     4.430125    69App    4.430128
      70App    4.444298    71App    4.522213    89Ap     4.522214
      72App    4.587422    90Ap     4.587434    91Ap     4.624045
      92Ap     4.717780    93Ap     4.779771    73App    4.779779
      74App    4.837457    94Ap     4.966911    75App    5.005915
      95Ap     5.005928    96Ap     5.228491    97Ap     5.243303
      76App    5.243303    98Ap     5.357418    77App    5.357431
      78App    5.478464

    Final Occupation by Irrep:
             Ap   App
    DOCC [    10,    6 ]
    SOCC [     1,    0 ]

  @DF-UKS Final Energy:  -157.81309369174846

   => Energetics <=

    Nuclear Repulsion Energy =            125.3572568326646461
    One-Electron Energy =                -458.6780508937970353
    Two-Electron Energy =                 195.8108222418710511
    DFT Exchange-Correlation Energy =     -20.3031218724871252
    Empirical Dispersion Energy =           0.0000000000000000
    VV10 Nonlocal Energy =                  0.0000000000000000
    Total Energy =                       -157.8130936917484632

  UHF NO Occupations:
  HONO-2 :    9 Ap 1.9995983
  HONO-1 :   10 Ap 1.9989811
  HONO-0 :   11 Ap 1.0000000
  LUNO+0 :   12 Ap 0.0010189
  LUNO+1 :   13 Ap 0.0004017
  LUNO+2 :    7App 0.0001972
  LUNO+3 :   14 Ap 0.0001972

Computation Completed

Properties will be evaluated at   0.000000,   0.000000,   0.000000 [a0]

Properties computed using the SCF density matrix

  Nuclear Dipole Moment: [e a0]
     X:     0.8276      Y:    -0.0000      Z:     0.0000

  Electronic Dipole Moment: [e a0]
     X:    -0.7503      Y:     0.0000      Z:     0.0000

  Dipole Moment: [e a0]
     X:     0.0773      Y:     0.0000      Z:     0.0000     Total:     0.0773

  Dipole Moment: [D]
     X:     0.1964      Y:     0.0000      Z:     0.0000     Total:     0.1964

*** tstop() called on n082 at Fri Nov  5 14:54:38 2021
Module time:
	user time   =     496.33 seconds =       8.27 minutes
	system time =       4.52 seconds =       0.08 minutes
	total time  =        126 seconds =       2.10 minutes
Total time:
	user time   =     496.33 seconds =       8.27 minutes
	system time =       4.52 seconds =       0.08 minutes
	total time  =        126 seconds =       2.10 minutes
Grab this energy -157.81309369174846
    Psi4 stopped on: Friday, 05 November 2021 02:54PM
    Psi4 wall time for execution: 0:02:05.96

*** Psi4 exiting successfully. Buy a developer a beer!
