                               Psi4 1.4a2.dev629

  ==> Input File <==

--------------------------------------------------------------------------
import os
memory 14 GB

molecule {
 C   -0.3233386419    0.0010193414    0.0004326247
 C    0.0604980096   -1.4029752560   -2.4255023254
 C    0.0617701590    2.8013655877    0.0013880602
 C    0.0610340436   -1.4016801932    2.4260377036
 H    2.0877679319   -1.6450572855   -2.8468191719
 H   -0.7670752926   -0.3878500241   -4.0262268969
 H   -0.7642891367   -3.2899635357   -2.3498285767
 H    2.0867178395    3.2881990048    0.0034937114
 H   -0.7626535245    3.6794253815    1.6740152396
 H   -0.7690683009    3.6812332851   -1.6787954530
 H    2.0861871428   -1.6420400618    2.8485813740
 H   -0.7668919706   -3.2937327455    2.3484034207
 H   -0.7632661358   -0.3879678123    4.0248202897
units bohr
0 2
}

basis {

assign 6-31g_2dfp_

[ 6-31g_2dfp_ ]

spherical

!----------------------------------------------------------------------
! Basis Set Exchange
! Version v0.8.13
! https://www.basissetexchange.org
!----------------------------------------------------------------------
!   Basis set: 6-31G(2df,p)
! Description: 6-31G(2df,p)
!        Role: orbital
!     Version: 0  (Data from the original Basis Set Exchange)
!----------------------------------------------------------------------

****
H     0
S    3   1.00
     18.7311370              0.03349460
      2.8253937              0.23472695
      0.6401217              0.81375733
S    1   1.00
      0.1612778              1.00000000
P    1   1.00
      1.5000000              1.0000000
P    1   1.00
      0.3750000              1.0000000
****
B     0
S    6   1.00
   2068.8823000              0.0018663
    310.6495700              0.0142515
     70.6830330              0.0695516
     19.8610800              0.2325729
      6.2993048              0.4670787
      2.1270270              0.3634314
SP   3   1.00
      4.7279710             -0.1303938              0.0745976
      1.1903377             -0.1307889              0.3078467
      0.3594117              1.1309444              0.7434568
SP   1   1.00
      0.1267512              1.0000000              1.0000000
D    1   1.00
      0.8020000              1.0000000
D    1   1.00
      0.2005000              1.0000000
F    1   1.00
      0.5000000              1.0000000
****
C     0
S    6   1.00
   3047.5249000              0.0018347
    457.3695100              0.0140373
    103.9486900              0.0688426
     29.2101550              0.2321844
      9.2866630              0.4679413
      3.1639270              0.3623120
SP   3   1.00
      7.8682724             -0.1193324              0.0689991
      1.8812885             -0.1608542              0.3164240
      0.5442493              1.1434564              0.7443083
SP   1   1.00
      0.1687144              1.0000000              1.0000000
D    1   1.00
      1.2520000              1.0000000
D    1   1.00
      0.3130000              1.0000000
F    1   1.00
      0.8000000              1.0000000
****
N     0
S    6   1.00
   4173.5110000              0.0018348
    627.4579000              0.0139950
    142.9021000              0.0685870
     40.2343300              0.2322410
     12.8202100              0.4690700
      4.3904370              0.3604550
SP   3   1.00
     11.6263580             -0.1149610              0.0675800
      2.7162800             -0.1691180              0.3239070
      0.7722180              1.1458520              0.7408950
SP   1   1.00
      0.2120313              1.0000000              1.0000000
D    1   1.00
      1.8260000              1.0000000
D    1   1.00
      0.4565000              1.0000000
F    1   1.00
      1.0000000              1.0000000
****
O     0
S    6   1.00
   5484.6717000              0.0018311
    825.2349500              0.0139501
    188.0469600              0.0684451
     52.9645000              0.2327143
     16.8975700              0.4701930
      5.7996353              0.3585209
SP   3   1.00
     15.5396160             -0.1107775              0.0708743
      3.5999336             -0.1480263              0.3397528
      1.0137618              1.1307670              0.7271586
SP   1   1.00
      0.2700058              1.0000000              1.0000000
D    1   1.00
      2.5840000              1.0000000
D    1   1.00
      0.6460000              1.0000000
F    1   1.00
      1.4000000              1.0000000
****
F     0
S    6   1.00
   7001.7130900              0.0018196169
   1051.3660900              0.0139160796
    239.2856900              0.0684053245
     67.3974453              0.233185760
     21.5199573              0.471267439
      7.40310130             0.356618546
SP   3   1.00
     20.8479528             -0.108506975            0.0716287243
      4.80830834            -0.146451658            0.3459121030
      1.34406986             1.128688580            0.7224699570
SP   1   1.00
      0.358151393            1.0000000              1.0000000
D    1   1.00
      3.5000000              1.0000000
D    1   1.00
      0.8750000              1.0000000
F    1   1.00
      1.8500000              1.0000000
****
Al     0
S    6   1.00
  13983.1000000              0.00194267
   2098.7500000              0.0148599
    477.7050000              0.0728494
    134.3600000              0.2468300
     42.8709000              0.4872580
     14.5189000              0.3234960
SP   6   1.00
    239.6680000             -0.00292619             0.00460285
     57.4419000             -0.0374080              0.0331990
     18.2859000             -0.1144870              0.1362820
      6.5991400              0.1156350              0.3304760
      2.4904900              0.6125950              0.4491460
      0.9445400              0.3937990              0.2657040
SP   3   1.00
      1.2779000             -0.2276060             -0.0175130
      0.3975900              0.00144583             0.2445330
      0.1600950              1.0927900              0.8049340
SP   1   1.00
      0.0556577              1.0000000              1.0000000
D    1   1.00
      0.6500000              1.0000000
D    1   1.00
      0.1625000              1.0000000
F    1   1.00
      0.2500000              1.0000000
****
Si     0
S    6   1.00
  16115.9000000              0.00195948
   2425.5800000              0.01492880
    553.8670000              0.07284780
    156.3400000              0.24613000
     50.0683000              0.48591400
     17.0178000              0.32500200
SP   6   1.00
    292.7180000             -0.00278094             0.00443826
     69.8731000             -0.03571460             0.03266790
     22.3363000             -0.11498500             0.13472100
      8.1503900              0.09356340             0.32867800
      3.1345800              0.60301700             0.44964000
      1.2254300              0.41895900             0.26137200
SP   3   1.00
      1.7273800             -0.24463000            -0.01779510
      0.5729220              0.00431572             0.25353900
      0.2221920              1.09818000             0.80066900
SP   1   1.00
      0.0778369              1.00000000             1.00000000
D    1   1.00
      0.9000000              1.0000000
D    1   1.00
      0.2250000              1.0000000
F    1   1.00
      0.3200000              1.0000000
****
P     0
S    6   1.00
  19413.3000000              0.0018516
   2909.4200000              0.0142062
    661.3640000              0.0699995
    185.7590000              0.2400790
     59.1943000              0.4847620
     20.0310000              0.3352000
SP   6   1.00
    339.4780000             -0.00278217             0.00456462
     81.0101000             -0.0360499              0.03369360
     25.8780000             -0.1166310              0.13975500
      9.4522100              0.0968328              0.33936200
      3.6656600              0.6144180              0.45092100
      1.4674600              0.4037980              0.23858600
SP   3   1.00
      2.1562300             -0.2529230             -0.01776530
      0.7489970              0.0328517              0.27405800
      0.2831450              1.0812500              0.78542100
SP   1   1.00
      0.0998317              1.0000000              1.00000000
D    1   1.00
      1.1000000              1.0000000
D    1   1.00
      0.2750000              1.0000000
F    1   1.00
      0.4500000              1.0000000
****
S     0
S    6   1.00
  21917.1000000              0.0018690
   3301.4900000              0.0142300
    754.1460000              0.0696960
    212.7110000              0.2384870
     67.9896000              0.4833070
     23.0515000              0.3380740
SP   6   1.00
    423.7350000             -0.0023767              0.0040610
    100.7100000             -0.0316930              0.0306810
     32.1599000             -0.1133170              0.1304520
     11.8079000              0.0560900              0.3272050
      4.6311000              0.5922550              0.4528510
      1.8702500              0.4550060              0.2560420
SP   3   1.00
      2.6158400             -0.2503740             -0.0145110
      0.9221670              0.0669570              0.3102630
      0.3412870              1.0545100              0.7544830
SP   1   1.00
      0.1171670              1.0000000              1.0000000
D    1   1.00
      1.3000000              1.0000000
D    1   1.00
      0.3250000              1.0000000
F    1   1.00
      0.5500000              1.0000000
****
Cl     0
S    6   1.00
  25180.1000000              0.0018330
   3780.3500000              0.0140340
    860.4740000              0.0690970
    242.1450000              0.2374520
     77.3349000              0.4830340
     26.2470000              0.3398560
SP   6   1.00
    491.7650000             -0.0022974              0.0039894
    116.9840000             -0.0307140              0.0303180
     37.4153000             -0.1125280              0.1298800
     13.7834000              0.0450160              0.3279510
      5.4521500              0.5893530              0.4535270
      2.2258800              0.4652060              0.2521540
SP   3   1.00
      3.1864900             -0.2518300             -0.0142990
      1.1442700              0.0615890              0.3235720
      0.4203770              1.0601800              0.7435070
SP   1   1.00
      0.1426570              1.0000000              1.0000000
D    1   1.00
      1.5000000              1.0000000
D    1   1.00
      0.3750000              1.0000000
F    1   1.00
      0.7000000              1.0000000
****
}

set {
reference uhf
freeze_core true
e_convergence 10
d_convergence 10
dft_spherical_points 1202
dft_radial_points 99
}

e = energy('b3lyp')

print_out('Grab this energy {0}'.format(e))
--------------------------------------------------------------------------

    Molecular point group: c1

    Geometry (in Bohr), charge = 0, multiplicity = 2:

       Center              X                  Y                   Z               Mass
    ------------   -----------------  -----------------  -----------------  -----------------
         C           -0.323339326648     0.001457089287    -0.000021170023    12.000000000000
         C            0.060497324852    -1.402537508113    -2.425956120123    12.000000000000
         C            0.061769474252     2.801803335587     0.000934265477    12.000000000000
         C            0.061033358852    -1.401242445313     2.425583908877    12.000000000000
         H            2.087767247152    -1.644619537613    -2.847272966623     1.007825032230
         H           -0.767075977348    -0.387412276213    -4.026680691623     1.007825032230
         H           -0.764289821448    -3.289525787813    -2.350282371423     1.007825032230
         H            2.086717154752     3.288636752687     0.003039916677     1.007825032230
         H           -0.762654209248     3.679863129387     1.673561444877     1.007825032230
         H           -0.769068985648     3.681671032987    -1.679249247723     1.007825032230
         H            2.086186458052    -1.641602313913     2.848127579277     1.007825032230
         H           -0.766892655348    -3.293294997613     2.347949625977     1.007825032230
         H           -0.763266820548    -0.387530064413     4.024366494977     1.007825032230

  Charge       = 0
  Multiplicity = 2
  Basis Set: ANONYMOUSED6DFBE3
    Blend: 6-31G_2DFP_
  Basis Set: (ANONYMOUSED6DFBE3 AUX)
    Blend: DEF2-UNIVERSAL-JKFIT

    Orbital Energies [Eh]
    ---------------------

    Alpha Occupied:

       1A    -10.180342     2A    -10.167052     3A    -10.167016
       4A    -10.166977     5A     -0.797766     6A     -0.686288
       7A     -0.686088     8A     -0.530778     9A     -0.441127
      10A     -0.434854    11A     -0.434484    12A     -0.382644
      13A     -0.382556    14A     -0.363610    15A     -0.338333
      16A     -0.337664    17A     -0.168961

    Alpha Virtual:

      18A      0.076070    19A      0.134034    20A      0.134273
      21A      0.142413    22A      0.142841    23A      0.154882
      24A      0.178670    25A      0.178885    26A      0.203547
      27A      0.214804    28A      0.275818    29A      0.276154
      30A      0.398959    31A      0.399496    32A      0.403344
      33A      0.423935    34A      0.424260    35A      0.456593
      36A      0.495328    37A      0.495452    38A      0.512161
      39A      0.513979    40A      0.578748    41A      0.578886
      42A      0.591487    43A      0.591777    44A      0.602571
      45A      0.624715    46A      0.631762    47A      0.635989
      48A      0.636566    49A      0.663183    50A      0.663640
      51A      0.683660    52A      0.684063    53A      0.734994
      54A      0.825156    55A      0.825658    56A      0.853915
      57A      0.914789    58A      0.915262    59A      0.944125
      60A      0.944607    61A      0.961185    62A      0.961403
      63A      1.003455    64A      1.127829    65A      1.128398
      66A      1.142212    67A      1.163204    68A      1.163339
      69A      1.223322    70A      1.274184    71A      1.274790
      72A      1.279357    73A      1.324133    74A      1.324572
      75A      1.355989    76A      1.365672    77A      1.366435
      78A      1.392429    79A      1.403815    80A      1.404294
      81A      1.416355    82A      1.417872    83A      1.427908
      84A      1.491498    85A      1.499073    86A      1.542661
      87A      1.543012    88A      1.574077    89A      1.574825
      90A      1.669823    91A      1.738672    92A      1.740147
      93A      1.768340    94A      1.830614    95A      1.832166
      96A      1.971751    97A      2.017833    98A      2.018345
      99A      2.020207   100A      2.051838   101A      2.053460
     102A      2.738296   103A      2.738672   104A      2.790924
     105A      2.811427   106A      2.889271   107A      2.890635
     108A      2.894937   109A      2.929333   110A      2.929664
     111A      2.958958   112A      2.964107   113A      2.964693
     114A      3.034010   115A      3.070699   116A      3.071810
     117A      3.084436   118A      3.168327   119A      3.169215
     120A      3.180608   121A      3.285040   122A      3.285580
     123A      3.326780   124A      3.327542   125A      3.375630
     126A      3.489881   127A      3.490441   128A      3.514019
     129A      3.525328   130A      3.567943   131A      3.568834
     132A      3.575125   133A      3.665874   134A      3.666900
     135A      3.679676   136A      3.693901   137A      3.694371
     138A      3.776684   139A      3.776906   140A      3.789126
     141A      3.911543   142A      3.912897   143A      4.034448
     144A      4.110763   145A      4.111913   146A      4.147694
     147A      4.148475   148A      4.173343   149A      4.202217
     150A      4.202653   151A      4.203851   152A      4.210975
     153A      4.314951   154A      4.316979   155A      4.358970
     156A      4.423653   157A      4.425225   158A      4.443480
     159A      4.515772   160A      4.517905   161A      4.577973
     162A      4.578567   163A      4.617544   164A      4.709437
     165A      4.773600   166A      4.775615   167A      4.836917
     168A      4.962863   169A      5.002498   170A      5.003416
     171A      5.227570   172A      5.247009   173A      5.247041
     174A      5.354258   175A      5.356781   176A      5.479416

    Beta Occupied:

       1A    -10.167808     2A    -10.167769     3A    -10.167746
       4A    -10.166519     5A     -0.781091     6A     -0.684090
       7A     -0.683891     8A     -0.511750     9A     -0.431231
      10A     -0.430854    11A     -0.421820    12A     -0.376734
      13A     -0.376637    14A     -0.362593    15A     -0.333453
      16A     -0.332789

    Beta Virtual:

      17A     -0.025742    18A      0.077079    19A      0.134896
      20A      0.135191    21A      0.144261    22A      0.144735
      23A      0.163340    24A      0.182347    25A      0.182551
      26A      0.215034    27A      0.218930    28A      0.282177
      29A      0.282491    30A      0.400125    31A      0.400670
      32A      0.419789    33A      0.426747    34A      0.427071
      35A      0.468501    36A      0.497585    37A      0.497715
      38A      0.513896    39A      0.556325    40A      0.584299
      41A      0.584435    42A      0.597642    43A      0.597980
      44A      0.609995    45A      0.628093    46A      0.631923
      47A      0.639292    48A      0.639829    49A      0.666759
      50A      0.667193    51A      0.686317    52A      0.686675
      53A      0.757518    54A      0.830336    55A      0.830814
      56A      0.855268    57A      0.922778    58A      0.923215
      59A      0.945962    60A      0.953533    61A      0.966484
      62A      0.966718    63A      1.008696    64A      1.131863
      65A      1.132421    66A      1.155583    67A      1.168280
      68A      1.168416    69A      1.232295    70A      1.279749
      71A      1.280416    72A      1.285113    73A      1.329120
      74A      1.329562    75A      1.365405    76A      1.370942
      77A      1.371650    78A      1.393490    79A      1.407265
      80A      1.407772    81A      1.421460    82A      1.422864
      83A      1.428180    84A      1.492548    85A      1.509516
      86A      1.547054    87A      1.547437    88A      1.581954
      89A      1.582688    90A      1.674670    91A      1.744425
      92A      1.745922    93A      1.779115    94A      1.834465
      95A      1.836026    96A      1.972612    97A      2.024759
      98A      2.026094    99A      2.039696   100A      2.058528
     101A      2.060214   102A      2.746622   103A      2.747018
     104A      2.811839   105A      2.816059   106A      2.901961
     107A      2.903319   108A      2.924644   109A      2.931780
     110A      2.932181   111A      2.960036   112A      2.968646
     113A      2.969226   114A      3.041944   115A      3.080559
     116A      3.081639   117A      3.086385   118A      3.184064
     119A      3.184945   120A      3.188323   121A      3.289856
     122A      3.290362   123A      3.330548   124A      3.331381
     125A      3.383448   126A      3.492620   127A      3.493162
     128A      3.512384   129A      3.528373   130A      3.574973
     131A      3.581217   132A      3.582252   133A      3.670686
     134A      3.671594   135A      3.692971   136A      3.725586
     137A      3.725937   138A      3.781177   139A      3.781473
     140A      3.817665   141A      3.921291   142A      3.922782
     143A      4.045336   144A      4.117383   145A      4.118928
     146A      4.154732   147A      4.155869   148A      4.187380
     149A      4.208192   150A      4.209702   151A      4.210659
     152A      4.215463   153A      4.322394   154A      4.324421
     155A      4.362332   156A      4.431873   157A      4.433419
     158A      4.446378   159A      4.523558   160A      4.525699
     161A      4.588594   162A      4.589148   163A      4.624736
     164A      4.719781   165A      4.780583   166A      4.782539
     167A      4.839834   168A      4.967657   169A      5.006539
     170A      5.007453   171A      5.233177   172A      5.248808
     173A      5.248923   174A      5.360747   175A      5.363247
     176A      5.481738

    Final Occupation by Irrep:
              A
    DOCC [    16 ]
    SOCC [     1 ]

  @DF-UKS Final Energy:  -157.81305871615282

   => Energetics <=

    Nuclear Repulsion Energy =            125.3946487771797820
    One-Electron Energy =                -458.7489294414057781
    Two-Electron Energy =                 195.8483681812210477
    DFT Exchange-Correlation Energy =     -20.3071462331478756
    Empirical Dispersion Energy =           0.0000000000000000
    VV10 Nonlocal Energy =                  0.0000000000000000
    Total Energy =                       -157.8130587161528240

  UHF NO Occupations:
  HONO-2 :   15  A 1.9996009
  HONO-1 :   16  A 1.9989805
  HONO-0 :   17  A 1.0000000
  LUNO+0 :   18  A 0.0010195
  LUNO+1 :   19  A 0.0003991
  LUNO+2 :   20  A 0.0001980
  LUNO+3 :   21  A 0.0001971

Computation Completed

Properties will be evaluated at   0.000000,   0.000000,   0.000000 [a0]

Properties computed using the SCF density matrix

  Nuclear Dipole Moment: [e a0]
     X:     0.8272      Y:     0.0031      Z:    -0.0032

  Electronic Dipole Moment: [e a0]
     X:    -0.7493      Y:    -0.0030      Z:     0.0049

  Dipole Moment: [e a0]
     X:     0.0779      Y:     0.0000      Z:     0.0017     Total:     0.0779

  Dipole Moment: [D]
     X:     0.1980      Y:     0.0001      Z:     0.0044     Total:     0.1981

*** tstop() called on n046 at Fri Nov  5 11:50:08 2021
Module time:
	user time   =     541.64 seconds =       9.03 minutes
	system time =      12.03 seconds =       0.20 minutes
	total time  =        140 seconds =       2.33 minutes
Total time:
	user time   =     541.64 seconds =       9.03 minutes
	system time =      12.03 seconds =       0.20 minutes
	total time  =        140 seconds =       2.33 minutes
Grab this energy -157.81305871615282
    Psi4 stopped on: Friday, 05 November 2021 11:50AM
    Psi4 wall time for execution: 0:02:19.52

*** Psi4 exiting successfully. Buy a developer a beer!
