                               Psi4 1.4a2.dev629

  ==> Input File <==

--------------------------------------------------------------------------
import os
memory 14 GB

molecule {
 C   -0.3233379419   -0.0000036945   -0.0058382916
 C    0.0610963790   -1.4007744712   -2.4273548927
 C    0.0610194513    2.8017545275   -0.0011473784
 C    0.0611844619   -1.4009763015    2.4254097137
 H    2.0835221831   -1.6444946746   -2.8471082505
 H   -0.7639363222   -0.3904938239   -4.0220395867
 H   -0.7631764425   -3.2894705098   -2.3498786663
 H    2.0867965772    3.2880998042    0.0010281979
 H   -0.7647192108    3.6815994652    1.6775617389
 H   -0.7665733946    3.6788953065   -1.6754402994
 H    2.0903533540   -1.6436953202    2.8477793142
 H   -0.7679659845   -3.2945220973    2.3481004344
 H   -0.7668709866   -0.3859425239    4.0289279665
units bohr
0 2
}

basis {

assign 6-31g_2dfp_

[ 6-31g_2dfp_ ]

spherical

!----------------------------------------------------------------------
! Basis Set Exchange
! Version v0.8.13
! https://www.basissetexchange.org
!----------------------------------------------------------------------
!   Basis set: 6-31G(2df,p)
! Description: 6-31G(2df,p)
!        Role: orbital
!     Version: 0  (Data from the original Basis Set Exchange)
!----------------------------------------------------------------------

****
H     0
S    3   1.00
     18.7311370              0.03349460
      2.8253937              0.23472695
      0.6401217              0.81375733
S    1   1.00
      0.1612778              1.00000000
P    1   1.00
      1.5000000              1.0000000
P    1   1.00
      0.3750000              1.0000000
****
B     0
S    6   1.00
   2068.8823000              0.0018663
    310.6495700              0.0142515
     70.6830330              0.0695516
     19.8610800              0.2325729
      6.2993048              0.4670787
      2.1270270              0.3634314
SP   3   1.00
      4.7279710             -0.1303938              0.0745976
      1.1903377             -0.1307889              0.3078467
      0.3594117              1.1309444              0.7434568
SP   1   1.00
      0.1267512              1.0000000              1.0000000
D    1   1.00
      0.8020000              1.0000000
D    1   1.00
      0.2005000              1.0000000
F    1   1.00
      0.5000000              1.0000000
****
C     0
S    6   1.00
   3047.5249000              0.0018347
    457.3695100              0.0140373
    103.9486900              0.0688426
     29.2101550              0.2321844
      9.2866630              0.4679413
      3.1639270              0.3623120
SP   3   1.00
      7.8682724             -0.1193324              0.0689991
      1.8812885             -0.1608542              0.3164240
      0.5442493              1.1434564              0.7443083
SP   1   1.00
      0.1687144              1.0000000              1.0000000
D    1   1.00
      1.2520000              1.0000000
D    1   1.00
      0.3130000              1.0000000
F    1   1.00
      0.8000000              1.0000000
****
N     0
S    6   1.00
   4173.5110000              0.0018348
    627.4579000              0.0139950
    142.9021000              0.0685870
     40.2343300              0.2322410
     12.8202100              0.4690700
      4.3904370              0.3604550
SP   3   1.00
     11.6263580             -0.1149610              0.0675800
      2.7162800             -0.1691180              0.3239070
      0.7722180              1.1458520              0.7408950
SP   1   1.00
      0.2120313              1.0000000              1.0000000
D    1   1.00
      1.8260000              1.0000000
D    1   1.00
      0.4565000              1.0000000
F    1   1.00
      1.0000000              1.0000000
****
O     0
S    6   1.00
   5484.6717000              0.0018311
    825.2349500              0.0139501
    188.0469600              0.0684451
     52.9645000              0.2327143
     16.8975700              0.4701930
      5.7996353              0.3585209
SP   3   1.00
     15.5396160             -0.1107775              0.0708743
      3.5999336             -0.1480263              0.3397528
      1.0137618              1.1307670              0.7271586
SP   1   1.00
      0.2700058              1.0000000              1.0000000
D    1   1.00
      2.5840000              1.0000000
D    1   1.00
      0.6460000              1.0000000
F    1   1.00
      1.4000000              1.0000000
****
F     0
S    6   1.00
   7001.7130900              0.0018196169
   1051.3660900              0.0139160796
    239.2856900              0.0684053245
     67.3974453              0.233185760
     21.5199573              0.471267439
      7.40310130             0.356618546
SP   3   1.00
     20.8479528             -0.108506975            0.0716287243
      4.80830834            -0.146451658            0.3459121030
      1.34406986             1.128688580            0.7224699570
SP   1   1.00
      0.358151393            1.0000000              1.0000000
D    1   1.00
      3.5000000              1.0000000
D    1   1.00
      0.8750000              1.0000000
F    1   1.00
      1.8500000              1.0000000
****
Al     0
S    6   1.00
  13983.1000000              0.00194267
   2098.7500000              0.0148599
    477.7050000              0.0728494
    134.3600000              0.2468300
     42.8709000              0.4872580
     14.5189000              0.3234960
SP   6   1.00
    239.6680000             -0.00292619             0.00460285
     57.4419000             -0.0374080              0.0331990
     18.2859000             -0.1144870              0.1362820
      6.5991400              0.1156350              0.3304760
      2.4904900              0.6125950              0.4491460
      0.9445400              0.3937990              0.2657040
SP   3   1.00
      1.2779000             -0.2276060             -0.0175130
      0.3975900              0.00144583             0.2445330
      0.1600950              1.0927900              0.8049340
SP   1   1.00
      0.0556577              1.0000000              1.0000000
D    1   1.00
      0.6500000              1.0000000
D    1   1.00
      0.1625000              1.0000000
F    1   1.00
      0.2500000              1.0000000
****
Si     0
S    6   1.00
  16115.9000000              0.00195948
   2425.5800000              0.01492880
    553.8670000              0.07284780
    156.3400000              0.24613000
     50.0683000              0.48591400
     17.0178000              0.32500200
SP   6   1.00
    292.7180000             -0.00278094             0.00443826
     69.8731000             -0.03571460             0.03266790
     22.3363000             -0.11498500             0.13472100
      8.1503900              0.09356340             0.32867800
      3.1345800              0.60301700             0.44964000
      1.2254300              0.41895900             0.26137200
SP   3   1.00
      1.7273800             -0.24463000            -0.01779510
      0.5729220              0.00431572             0.25353900
      0.2221920              1.09818000             0.80066900
SP   1   1.00
      0.0778369              1.00000000             1.00000000
D    1   1.00
      0.9000000              1.0000000
D    1   1.00
      0.2250000              1.0000000
F    1   1.00
      0.3200000              1.0000000
****
P     0
S    6   1.00
  19413.3000000              0.0018516
   2909.4200000              0.0142062
    661.3640000              0.0699995
    185.7590000              0.2400790
     59.1943000              0.4847620
     20.0310000              0.3352000
SP   6   1.00
    339.4780000             -0.00278217             0.00456462
     81.0101000             -0.0360499              0.03369360
     25.8780000             -0.1166310              0.13975500
      9.4522100              0.0968328              0.33936200
      3.6656600              0.6144180              0.45092100
      1.4674600              0.4037980              0.23858600
SP   3   1.00
      2.1562300             -0.2529230             -0.01776530
      0.7489970              0.0328517              0.27405800
      0.2831450              1.0812500              0.78542100
SP   1   1.00
      0.0998317              1.0000000              1.00000000
D    1   1.00
      1.1000000              1.0000000
D    1   1.00
      0.2750000              1.0000000
F    1   1.00
      0.4500000              1.0000000
****
S     0
S    6   1.00
  21917.1000000              0.0018690
   3301.4900000              0.0142300
    754.1460000              0.0696960
    212.7110000              0.2384870
     67.9896000              0.4833070
     23.0515000              0.3380740
SP   6   1.00
    423.7350000             -0.0023767              0.0040610
    100.7100000             -0.0316930              0.0306810
     32.1599000             -0.1133170              0.1304520
     11.8079000              0.0560900              0.3272050
      4.6311000              0.5922550              0.4528510
      1.8702500              0.4550060              0.2560420
SP   3   1.00
      2.6158400             -0.2503740             -0.0145110
      0.9221670              0.0669570              0.3102630
      0.3412870              1.0545100              0.7544830
SP   1   1.00
      0.1171670              1.0000000              1.0000000
D    1   1.00
      1.3000000              1.0000000
D    1   1.00
      0.3250000              1.0000000
F    1   1.00
      0.5500000              1.0000000
****
Cl     0
S    6   1.00
  25180.1000000              0.0018330
   3780.3500000              0.0140340
    860.4740000              0.0690970
    242.1450000              0.2374520
     77.3349000              0.4830340
     26.2470000              0.3398560
SP   6   1.00
    491.7650000             -0.0022974              0.0039894
    116.9840000             -0.0307140              0.0303180
     37.4153000             -0.1125280              0.1298800
     13.7834000              0.0450160              0.3279510
      5.4521500              0.5893530              0.4535270
      2.2258800              0.4652060              0.2521540
SP   3   1.00
      3.1864900             -0.2518300             -0.0142990
      1.1442700              0.0615890              0.3235720
      0.4203770              1.0601800              0.7435070
SP   1   1.00
      0.1426570              1.0000000              1.0000000
D    1   1.00
      1.5000000              1.0000000
D    1   1.00
      0.3750000              1.0000000
F    1   1.00
      0.7000000              1.0000000
****
}

set {
reference uhf
freeze_core true
e_convergence 10
d_convergence 10
dft_spherical_points 1202
dft_radial_points 99
}

e = energy('b3lyp')

print_out('Grab this energy {0}'.format(e))
--------------------------------------------------------------------------

    Molecular point group: c1

    Geometry (in Bohr), charge = 0, multiplicity = 2:

       Center              X                  Y                   Z               Mass
    ------------   -----------------  -----------------  -----------------  -----------------
         C           -0.323338391667    -0.000003276754    -0.004118145757    12.000000000000
         C            0.061095929233    -1.400774053454    -2.425634746857    12.000000000000
         C            0.061019001533     2.801754945246     0.000572767443    12.000000000000
         C            0.061184012133    -1.400975883754     2.427129859543    12.000000000000
         H            2.083521733333    -1.644494256854    -2.845388104657     1.007825032230
         H           -0.763936771967    -0.390493406154    -4.020319440857     1.007825032230
         H           -0.763176892267    -3.289470092054    -2.348158520457     1.007825032230
         H            2.086796127433     3.288100221946     0.002748343743     1.007825032230
         H           -0.764719660567     3.681599882946     1.679281884743     1.007825032230
         H           -0.766573844367     3.678895724246    -1.673720153557     1.007825032230
         H            2.090352904233    -1.643694902454     2.849499460043     1.007825032230
         H           -0.767966434267    -3.294521679554     2.349820580243     1.007825032230
         H           -0.766871436367    -0.385942106154     4.030648112343     1.007825032230

  Charge       = 0
  Multiplicity = 2
  Basis Set: ANONYMOUS0E18DFD7
    Blend: 6-31G_2DFP_
  Basis Set: (ANONYMOUS0E18DFD7 AUX)
    Blend: DEF2-UNIVERSAL-JKFIT

    Orbital Energies [Eh]
    ---------------------

    Alpha Occupied:

       1A    -10.180342     2A    -10.167624     3A    -10.167015
       4A    -10.166404     5A     -0.797772     6A     -0.686696
       7A     -0.685675     8A     -0.530777     9A     -0.441136
      10A     -0.434970    11A     -0.434368    12A     -0.382939
      13A     -0.382261    14A     -0.363608    15A     -0.338484
      16A     -0.337508    17A     -0.168961

    Alpha Virtual:

      18A      0.076071    19A      0.134136    20A      0.134168
      21A      0.142557    22A      0.142702    23A      0.154878
      24A      0.178449    25A      0.179108    26A      0.203544
      27A      0.214806    28A      0.275741    29A      0.276228
      30A      0.399025    31A      0.399433    32A      0.403344
      33A      0.424001    34A      0.424192    35A      0.456594
      36A      0.495270    37A      0.495507    38A      0.512162
      39A      0.513976    40A      0.578498    41A      0.579133
      42A      0.591326    43A      0.591920    44A      0.602601
      45A      0.624761    46A      0.631676    47A      0.636069
      48A      0.636538    49A      0.663297    50A      0.663530
      51A      0.683595    52A      0.684125    53A      0.734993
      54A      0.825114    55A      0.825695    56A      0.853914
      57A      0.914896    58A      0.915144    59A      0.944127
      60A      0.944617    61A      0.961225    62A      0.961374
      63A      1.003453    64A      1.127527    65A      1.128675
      66A      1.142234    67A      1.162967    68A      1.163567
      69A      1.223330    70A      1.274206    71A      1.274780
      72A      1.279346    73A      1.324092    74A      1.324611
      75A      1.355978    76A      1.365525    77A      1.366590
      78A      1.392457    79A      1.403604    80A      1.404477
      81A      1.417106    82A      1.417110    83A      1.427917
      84A      1.491484    85A      1.499095    86A      1.542786
      87A      1.542891    88A      1.574152    89A      1.574759
      90A      1.669819    91A      1.739285    92A      1.739529
      93A      1.768300    94A      1.829559    95A      1.833275
      96A      1.971692    97A      2.017899    98A      2.018677
      99A      2.019813   100A      2.052214   101A      2.053151
     102A      2.738280   103A      2.738696   104A      2.790925
     105A      2.811426   106A      2.889099   107A      2.890766
     108A      2.894973   109A      2.929214   110A      2.929785
     111A      2.958985   112A      2.964011   113A      2.964753
     114A      3.034018   115A      3.070556   116A      3.072013
     117A      3.084371   118A      3.168523   119A      3.168930
     120A      3.180712   121A      3.285085   122A      3.285544
     123A      3.326730   124A      3.327582   125A      3.375582
     126A      3.489867   127A      3.490478   128A      3.514019
     129A      3.525313   130A      3.568158   131A      3.568545
     132A      3.575250   133A      3.665902   134A      3.666759
     135A      3.679649   136A      3.693702   137A      3.694592
     138A      3.775485   139A      3.778129   140A      3.789189
     141A      3.911328   142A      3.913141   143A      4.034384
     144A      4.110220   145A      4.112312   146A      4.147128
     147A      4.149163   148A      4.173355   149A      4.201161
     150A      4.202745   151A      4.204701   152A      4.211228
     153A      4.314692   154A      4.317205   155A      4.358897
     156A      4.424176   157A      4.424545   158A      4.443648
     159A      4.516475   160A      4.517202   161A      4.577478
     162A      4.578728   163A      4.617904   164A      4.709526
     165A      4.773966   166A      4.775294   167A      4.836877
     168A      4.962762   169A      5.002716   170A      5.003348
     171A      5.227789   172A      5.243145   173A      5.250448
     174A      5.352032   175A      5.359185   176A      5.479462

    Beta Occupied:

       1A    -10.168383     2A    -10.167775     3A    -10.167169
       4A    -10.166515     5A     -0.781097     6A     -0.684486
       7A     -0.683489     8A     -0.511749     9A     -0.431355
      10A     -0.430738    11A     -0.421820    12A     -0.376993
      13A     -0.376379    14A     -0.362590    15A     -0.333625
      16A     -0.332614

    Beta Virtual:

      17A     -0.025742    18A      0.077080    19A      0.134986
      20A      0.135098    21A      0.144389    22A      0.144610
      23A      0.163335    24A      0.182117    25A      0.182783
      26A      0.215036    27A      0.218927    28A      0.282126
      29A      0.282538    30A      0.400194    31A      0.400603
      32A      0.419791    33A      0.426820    34A      0.426995
      35A      0.468501    36A      0.497528    37A      0.497770
      38A      0.513897    39A      0.556318    40A      0.584019
      41A      0.584716    42A      0.597519    43A      0.598088
      44A      0.610019    45A      0.628135    46A      0.631876
      47A      0.639374    48A      0.639767    49A      0.666841
      50A      0.667114    51A      0.686267    52A      0.686724
      53A      0.757516    54A      0.830252    55A      0.830893
      56A      0.855268    57A      0.922842    58A      0.923140
      59A      0.945964    60A      0.953540    61A      0.966569
      62A      0.966645    63A      1.008694    64A      1.131569
      65A      1.132699    66A      1.155601    67A      1.168061
      68A      1.168622    69A      1.232304    70A      1.279858
      71A      1.280322    72A      1.285100    73A      1.329022
      74A      1.329659    75A      1.365379    76A      1.370838
      77A      1.371781    78A      1.393514    79A      1.406998
      80A      1.408015    81A      1.422105    82A      1.422207
      83A      1.428189    84A      1.492533    85A      1.509537
      86A      1.547155    87A      1.547337    88A      1.582059
      89A      1.582596    90A      1.674664    91A      1.745026
      92A      1.745312    93A      1.779079    94A      1.833431
      95A      1.837117    96A      1.972556    97A      2.024823
      98A      2.026014    99A      2.039720   100A      2.059004
     101A      2.059797   102A      2.746632   103A      2.747015
     104A      2.811838   105A      2.816060   106A      2.901964
     107A      2.903296   108A      2.924654   109A      2.931595
     110A      2.932376   111A      2.960055   112A      2.968509
     113A      2.969335   114A      3.041954   115A      3.080469
     116A      3.081877   117A      3.086230   118A      3.184142
     119A      3.184586   120A      3.188620   121A      3.289950
     122A      3.290275   123A      3.330552   124A      3.331368
     125A      3.383401   126A      3.492634   127A      3.493165
     128A      3.512391   129A      3.528358   130A      3.574939
     131A      3.581590   132A      3.581962   133A      3.670524
     134A      3.671641   135A      3.692990   136A      3.725432
     137A      3.726065   138A      3.780067   139A      3.782634
     140A      3.817698   141A      3.921162   142A      3.922945
     143A      4.045266   144A      4.117293   145A      4.118860
     146A      4.154533   147A      4.156201   148A      4.187396
     149A      4.207501   150A      4.209325   151A      4.211593
     152A      4.215740   153A      4.322190   154A      4.324582
     155A      4.362262   156A      4.432347   157A      4.432712
     158A      4.446629   159A      4.524279   160A      4.524978
     161A      4.588110   162A      4.589275   163A      4.625115
     164A      4.719874   165A      4.780851   166A      4.782316
     167A      4.839794   168A      4.967555   169A      5.006758
     170A      5.007387   171A      5.233494   172A      5.244933
     173A      5.252240   174A      5.358501   175A      5.365677
     176A      5.481783

    Final Occupation by Irrep:
              A
    DOCC [    16 ]
    SOCC [     1 ]

  @DF-UKS Final Energy:  -157.81304839237046

   => Energetics <=

    Nuclear Repulsion Energy =            125.3947507926731078
    One-Electron Energy =                -458.7491091995528905
    Two-Electron Energy =                 195.8484606625820845
    DFT Exchange-Correlation Energy =     -20.3071506480727564
    Empirical Dispersion Energy =           0.0000000000000000
    VV10 Nonlocal Energy =                  0.0000000000000000
    Total Energy =                       -157.8130483923704617

  UHF NO Occupations:
  HONO-2 :   15  A 1.9996009
  HONO-1 :   16  A 1.9989805
  HONO-0 :   17  A 1.0000000
  LUNO+0 :   18  A 0.0010195
  LUNO+1 :   19  A 0.0003991
  LUNO+2 :   20  A 0.0001987
  LUNO+3 :   21  A 0.0001964

Computation Completed

Properties will be evaluated at   0.000000,   0.000000,   0.000000 [a0]

Properties computed using the SCF density matrix

  Nuclear Dipole Moment: [e a0]
     X:     0.8272      Y:    -0.0000      Z:     0.0121

  Electronic Dipole Moment: [e a0]
     X:    -0.7493      Y:     0.0000      Z:    -0.0158

  Dipole Moment: [e a0]
     X:     0.0779      Y:     0.0000      Z:    -0.0037     Total:     0.0780

  Dipole Moment: [D]
     X:     0.1980      Y:     0.0000      Z:    -0.0093     Total:     0.1983

*** tstop() called on n082 at Fri Nov  5 13:55:46 2021
Module time:
	user time   =     525.09 seconds =       8.75 minutes
	system time =       4.65 seconds =       0.08 minutes
	total time  =        134 seconds =       2.23 minutes
Total time:
	user time   =     525.09 seconds =       8.75 minutes
	system time =       4.65 seconds =       0.08 minutes
	total time  =        134 seconds =       2.23 minutes
Grab this energy -157.81304839237046
    Psi4 stopped on: Friday, 05 November 2021 01:55PM
    Psi4 wall time for execution: 0:02:13.18

*** Psi4 exiting successfully. Buy a developer a beer!
