                               Psi4 1.4a2.dev629

  ==> Input File <==

--------------------------------------------------------------------------
import os
memory 14 GB

molecule {
 C   -0.3233395417   -0.0000014194   -0.0019976343
 C    0.0610070197   -1.4008460683   -2.4255520674
 C    0.0610208436    2.8017603164   -0.0021210661
 C    0.0612745041   -1.4009055480    2.4272103850
 H    2.0871311974   -1.6425870980   -2.8437234375
 H   -0.7680148819   -0.3893754373   -4.0288752722
 H   -0.7620838135   -3.2886758571   -2.3472944990
 H    2.0867928546    3.2881102429   -0.0066963778
 H   -0.7666304777    3.6751299673    1.6790519289
 H   -0.7646515844    3.6853593027   -1.6739382065
 H    2.0867411479   -1.6456006971    2.8511603828
 H   -0.7690602647   -3.2953148480    2.3506846509
 H   -0.7627948802   -0.3870771697    4.0220912130
units bohr
0 2
}

basis {

assign 6-31g_2dfp_

[ 6-31g_2dfp_ ]

spherical

!----------------------------------------------------------------------
! Basis Set Exchange
! Version v0.8.13
! https://www.basissetexchange.org
!----------------------------------------------------------------------
!   Basis set: 6-31G(2df,p)
! Description: 6-31G(2df,p)
!        Role: orbital
!     Version: 0  (Data from the original Basis Set Exchange)
!----------------------------------------------------------------------

****
H     0
S    3   1.00
     18.7311370              0.03349460
      2.8253937              0.23472695
      0.6401217              0.81375733
S    1   1.00
      0.1612778              1.00000000
P    1   1.00
      1.5000000              1.0000000
P    1   1.00
      0.3750000              1.0000000
****
B     0
S    6   1.00
   2068.8823000              0.0018663
    310.6495700              0.0142515
     70.6830330              0.0695516
     19.8610800              0.2325729
      6.2993048              0.4670787
      2.1270270              0.3634314
SP   3   1.00
      4.7279710             -0.1303938              0.0745976
      1.1903377             -0.1307889              0.3078467
      0.3594117              1.1309444              0.7434568
SP   1   1.00
      0.1267512              1.0000000              1.0000000
D    1   1.00
      0.8020000              1.0000000
D    1   1.00
      0.2005000              1.0000000
F    1   1.00
      0.5000000              1.0000000
****
C     0
S    6   1.00
   3047.5249000              0.0018347
    457.3695100              0.0140373
    103.9486900              0.0688426
     29.2101550              0.2321844
      9.2866630              0.4679413
      3.1639270              0.3623120
SP   3   1.00
      7.8682724             -0.1193324              0.0689991
      1.8812885             -0.1608542              0.3164240
      0.5442493              1.1434564              0.7443083
SP   1   1.00
      0.1687144              1.0000000              1.0000000
D    1   1.00
      1.2520000              1.0000000
D    1   1.00
      0.3130000              1.0000000
F    1   1.00
      0.8000000              1.0000000
****
N     0
S    6   1.00
   4173.5110000              0.0018348
    627.4579000              0.0139950
    142.9021000              0.0685870
     40.2343300              0.2322410
     12.8202100              0.4690700
      4.3904370              0.3604550
SP   3   1.00
     11.6263580             -0.1149610              0.0675800
      2.7162800             -0.1691180              0.3239070
      0.7722180              1.1458520              0.7408950
SP   1   1.00
      0.2120313              1.0000000              1.0000000
D    1   1.00
      1.8260000              1.0000000
D    1   1.00
      0.4565000              1.0000000
F    1   1.00
      1.0000000              1.0000000
****
O     0
S    6   1.00
   5484.6717000              0.0018311
    825.2349500              0.0139501
    188.0469600              0.0684451
     52.9645000              0.2327143
     16.8975700              0.4701930
      5.7996353              0.3585209
SP   3   1.00
     15.5396160             -0.1107775              0.0708743
      3.5999336             -0.1480263              0.3397528
      1.0137618              1.1307670              0.7271586
SP   1   1.00
      0.2700058              1.0000000              1.0000000
D    1   1.00
      2.5840000              1.0000000
D    1   1.00
      0.6460000              1.0000000
F    1   1.00
      1.4000000              1.0000000
****
F     0
S    6   1.00
   7001.7130900              0.0018196169
   1051.3660900              0.0139160796
    239.2856900              0.0684053245
     67.3974453              0.233185760
     21.5199573              0.471267439
      7.40310130             0.356618546
SP   3   1.00
     20.8479528             -0.108506975            0.0716287243
      4.80830834            -0.146451658            0.3459121030
      1.34406986             1.128688580            0.7224699570
SP   1   1.00
      0.358151393            1.0000000              1.0000000
D    1   1.00
      3.5000000              1.0000000
D    1   1.00
      0.8750000              1.0000000
F    1   1.00
      1.8500000              1.0000000
****
Al     0
S    6   1.00
  13983.1000000              0.00194267
   2098.7500000              0.0148599
    477.7050000              0.0728494
    134.3600000              0.2468300
     42.8709000              0.4872580
     14.5189000              0.3234960
SP   6   1.00
    239.6680000             -0.00292619             0.00460285
     57.4419000             -0.0374080              0.0331990
     18.2859000             -0.1144870              0.1362820
      6.5991400              0.1156350              0.3304760
      2.4904900              0.6125950              0.4491460
      0.9445400              0.3937990              0.2657040
SP   3   1.00
      1.2779000             -0.2276060             -0.0175130
      0.3975900              0.00144583             0.2445330
      0.1600950              1.0927900              0.8049340
SP   1   1.00
      0.0556577              1.0000000              1.0000000
D    1   1.00
      0.6500000              1.0000000
D    1   1.00
      0.1625000              1.0000000
F    1   1.00
      0.2500000              1.0000000
****
Si     0
S    6   1.00
  16115.9000000              0.00195948
   2425.5800000              0.01492880
    553.8670000              0.07284780
    156.3400000              0.24613000
     50.0683000              0.48591400
     17.0178000              0.32500200
SP   6   1.00
    292.7180000             -0.00278094             0.00443826
     69.8731000             -0.03571460             0.03266790
     22.3363000             -0.11498500             0.13472100
      8.1503900              0.09356340             0.32867800
      3.1345800              0.60301700             0.44964000
      1.2254300              0.41895900             0.26137200
SP   3   1.00
      1.7273800             -0.24463000            -0.01779510
      0.5729220              0.00431572             0.25353900
      0.2221920              1.09818000             0.80066900
SP   1   1.00
      0.0778369              1.00000000             1.00000000
D    1   1.00
      0.9000000              1.0000000
D    1   1.00
      0.2250000              1.0000000
F    1   1.00
      0.3200000              1.0000000
****
P     0
S    6   1.00
  19413.3000000              0.0018516
   2909.4200000              0.0142062
    661.3640000              0.0699995
    185.7590000              0.2400790
     59.1943000              0.4847620
     20.0310000              0.3352000
SP   6   1.00
    339.4780000             -0.00278217             0.00456462
     81.0101000             -0.0360499              0.03369360
     25.8780000             -0.1166310              0.13975500
      9.4522100              0.0968328              0.33936200
      3.6656600              0.6144180              0.45092100
      1.4674600              0.4037980              0.23858600
SP   3   1.00
      2.1562300             -0.2529230             -0.01776530
      0.7489970              0.0328517              0.27405800
      0.2831450              1.0812500              0.78542100
SP   1   1.00
      0.0998317              1.0000000              1.00000000
D    1   1.00
      1.1000000              1.0000000
D    1   1.00
      0.2750000              1.0000000
F    1   1.00
      0.4500000              1.0000000
****
S     0
S    6   1.00
  21917.1000000              0.0018690
   3301.4900000              0.0142300
    754.1460000              0.0696960
    212.7110000              0.2384870
     67.9896000              0.4833070
     23.0515000              0.3380740
SP   6   1.00
    423.7350000             -0.0023767              0.0040610
    100.7100000             -0.0316930              0.0306810
     32.1599000             -0.1133170              0.1304520
     11.8079000              0.0560900              0.3272050
      4.6311000              0.5922550              0.4528510
      1.8702500              0.4550060              0.2560420
SP   3   1.00
      2.6158400             -0.2503740             -0.0145110
      0.9221670              0.0669570              0.3102630
      0.3412870              1.0545100              0.7544830
SP   1   1.00
      0.1171670              1.0000000              1.0000000
D    1   1.00
      1.3000000              1.0000000
D    1   1.00
      0.3250000              1.0000000
F    1   1.00
      0.5500000              1.0000000
****
Cl     0
S    6   1.00
  25180.1000000              0.0018330
   3780.3500000              0.0140340
    860.4740000              0.0690970
    242.1450000              0.2374520
     77.3349000              0.4830340
     26.2470000              0.3398560
SP   6   1.00
    491.7650000             -0.0022974              0.0039894
    116.9840000             -0.0307140              0.0303180
     37.4153000             -0.1125280              0.1298800
     13.7834000              0.0450160              0.3279510
      5.4521500              0.5893530              0.4535270
      2.2258800              0.4652060              0.2521540
SP   3   1.00
      3.1864900             -0.2518300             -0.0142990
      1.1442700              0.0615890              0.3235720
      0.4203770              1.0601800              0.7435070
SP   1   1.00
      0.1426570              1.0000000              1.0000000
D    1   1.00
      1.5000000              1.0000000
D    1   1.00
      0.3750000              1.0000000
F    1   1.00
      0.7000000              1.0000000
****
}

set {
reference uhf
freeze_core true
e_convergence 10
d_convergence 10
dft_spherical_points 1202
dft_radial_points 99
}

e = energy('b3lyp')

print_out('Grab this energy {0}'.format(e))
--------------------------------------------------------------------------

    Molecular point group: c1

    Geometry (in Bohr), charge = 0, multiplicity = 2:

       Center              X                  Y                   Z               Mass
    ------------   -----------------  -----------------  -----------------  -----------------
         C           -0.323340083029    -0.000002392354    -0.001523746848    12.000000000000
         C            0.061006478371    -1.400847041254    -2.425078179948    12.000000000000
         C            0.061020302271     2.801759343446    -0.001647178648    12.000000000000
         C            0.061273962771    -1.400906520954     2.427684272452    12.000000000000
         H            2.087130656071    -1.642588070954    -2.843249550048     1.007825032230
         H           -0.768015423229    -0.389376410254    -4.028401384748     1.007825032230
         H           -0.762084354829    -3.288676830054    -2.346820611548     1.007825032230
         H            2.086792313271     3.288109269946    -0.006222490348     1.007825032230
         H           -0.766631019029     3.675128994346     1.679525816352     1.007825032230
         H           -0.764652125729     3.685358329746    -1.673464319048     1.007825032230
         H            2.086740606571    -1.645601670054     2.851634270252     1.007825032230
         H           -0.769060806029    -3.295315820954     2.351158538352     1.007825032230
         H           -0.762795421529    -0.387078142654     4.022565100452     1.007825032230

  Charge       = 0
  Multiplicity = 2
  Basis Set: ANONYMOUSE59DC8B3
    Blend: 6-31G_2DFP_
  Basis Set: (ANONYMOUSE59DC8B3 AUX)
    Blend: DEF2-UNIVERSAL-JKFIT

    Orbital Energies [Eh]
    ---------------------

    Alpha Occupied:

       1A    -10.180342     2A    -10.167174     3A    -10.167016
       4A    -10.166855     5A     -0.797767     6A     -0.686310
       7A     -0.686066     8A     -0.530778     9A     -0.441129
      10A     -0.434740    11A     -0.434600    12A     -0.382634
      13A     -0.382564    14A     -0.363610    15A     -0.338063
      16A     -0.337932    17A     -0.168961

    Alpha Virtual:

      18A      0.076072    19A      0.134113    20A      0.134177
      21A      0.142572    22A      0.142694    23A      0.154878
      24A      0.178741    25A      0.178820    26A      0.203546
      27A      0.214806    28A      0.275717    29A      0.276254
      30A      0.399189    31A      0.399261    32A      0.403352
      33A      0.424042    34A      0.424153    35A      0.456591
      36A      0.495331    37A      0.495449    38A      0.512158
      39A      0.513980    40A      0.578528    41A      0.579105
      42A      0.591337    43A      0.591925    44A      0.602574
      45A      0.624714    46A      0.631829    47A      0.636206
      48A      0.636284    49A      0.663379    50A      0.663445
      51A      0.683834    52A      0.683893    53A      0.734994
      54A      0.825190    55A      0.825621    56A      0.853915
      57A      0.914882    58A      0.915159    59A      0.944097
      60A      0.944638    61A      0.960605    62A      0.961982
      63A      1.003466    64A      1.127889    65A      1.128320
      66A      1.142217    67A      1.163172    68A      1.163381
      69A      1.223323    70A      1.274336    71A      1.274646
      72A      1.279346    73A      1.324339    74A      1.324348
      75A      1.355988    76A      1.365889    77A      1.366214
      78A      1.392468    79A      1.403741    80A      1.404367
      81A      1.416723    82A      1.417517    83A      1.427910
      84A      1.491458    85A      1.499101    86A      1.542550
      87A      1.543097    88A      1.574443    89A      1.574458
      90A      1.669841    91A      1.739037    92A      1.739784
      93A      1.768308    94A      1.830915    95A      1.831898
      96A      1.971699    97A      2.018062    98A      2.019039
      99A      2.019337   100A      2.051842   101A      2.053452
     102A      2.738204   103A      2.738759   104A      2.790928
     105A      2.811419   106A      2.889671   107A      2.890203
     108A      2.894986   109A      2.929475   110A      2.929517
     111A      2.958993   112A      2.964232   113A      2.964534
     114A      3.033995   115A      3.071157   116A      3.071421
     117A      3.084369   118A      3.168582   119A      3.168988
     120A      3.180590   121A      3.285262   122A      3.285350
     123A      3.326841   124A      3.327498   125A      3.375618
     126A      3.489996   127A      3.490313   128A      3.514013
     129A      3.525317   130A      3.568043   131A      3.568665
     132A      3.575234   133A      3.666191   134A      3.666531
     135A      3.679646   136A      3.693712   137A      3.694578
     138A      3.775567   139A      3.778047   140A      3.789151
     141A      3.911970   142A      3.912502   143A      4.034441
     144A      4.110037   145A      4.112551   146A      4.147278
     147A      4.149033   148A      4.173157   149A      4.202592
     150A      4.203063   151A      4.203139   152A      4.211021
     153A      4.315149   154A      4.316722   155A      4.359021
     156A      4.424210   157A      4.424718   158A      4.443459
     159A      4.516421   160A      4.517249   161A      4.577928
     162A      4.578591   163A      4.617527   164A      4.709457
     165A      4.773532   166A      4.775671   167A      4.836949
     168A      4.962873   169A      5.002606   170A      5.003313
     171A      5.228022   172A      5.246270   173A      5.247208
     174A      5.354868   175A      5.356307   176A      5.479388

    Beta Occupied:

       1A    -10.167932     2A    -10.167775     3A    -10.167616
       4A    -10.166519     5A     -0.781092     6A     -0.684105
       7A     -0.683876     8A     -0.511749     9A     -0.431105
      10A     -0.430984    11A     -0.421818    12A     -0.376715
      13A     -0.376654    14A     -0.362594    15A     -0.333182
      16A     -0.333059

    Beta Virtual:

      17A     -0.025742    18A      0.077081    19A      0.135011
      20A      0.135059    21A      0.144442    22A      0.144567
      23A      0.163338    24A      0.182430    25A      0.182473
      26A      0.215029    27A      0.218935    28A      0.282075
      29A      0.282592    30A      0.400362    31A      0.400433
      32A      0.419789    33A      0.426853    34A      0.426967
      35A      0.468498    36A      0.497594    37A      0.497707
      38A      0.513895    39A      0.556323    40A      0.584076
      41A      0.584655    42A      0.597531    43A      0.598091
      44A      0.609994    45A      0.628062    46A      0.632016
      47A      0.639473    48A      0.639589    49A      0.666942
      50A      0.667011    51A      0.686447    52A      0.686549
      53A      0.757517    54A      0.830337    55A      0.830811
      56A      0.855268    57A      0.922887    58A      0.923095
      59A      0.945957    60A      0.953540    61A      0.965968
      62A      0.967235    63A      1.008707    64A      1.131844
      65A      1.132423    66A      1.155596    67A      1.168326
      68A      1.168371    69A      1.232296    70A      1.279934
      71A      1.280241    72A      1.285100    73A      1.329318
      74A      1.329345    75A      1.365404    76A      1.371161
      77A      1.371428    78A      1.393529    79A      1.407179
      80A      1.407857    81A      1.421779    82A      1.422562
      83A      1.428180    84A      1.492519    85A      1.509532
      86A      1.546958    87A      1.547507    88A      1.582315
      89A      1.582327    90A      1.674687    91A      1.744790
      92A      1.745554    93A      1.779087    94A      1.834774
      95A      1.835752    96A      1.972573    97A      2.025384
      98A      2.025503    99A      2.039718   100A      2.058529
     101A      2.060193   102A      2.746556   103A      2.747080
     104A      2.811827   105A      2.816066   106A      2.902435
     107A      2.902848   108A      2.924661   109A      2.931969
     110A      2.931984   111A      2.960056   112A      2.968794
     113A      2.969061   114A      3.041927   115A      3.081076
     116A      3.081322   117A      3.086190   118A      3.184302
     119A      3.184775   120A      3.188263   121A      3.290035
     122A      3.290173   123A      3.330663   124A      3.331286
     125A      3.383436   126A      3.492743   127A      3.493024
     128A      3.512385   129A      3.528365   130A      3.574908
     131A      3.581433   132A      3.582131   133A      3.671065
     134A      3.671188   135A      3.692939   136A      3.725643
     137A      3.725879   138A      3.780137   139A      3.782527
     140A      3.817698   141A      3.921803   142A      3.922301
     143A      4.045329   144A      4.116960   145A      4.119251
     146A      4.154473   147A      4.156278   148A      4.187163
     149A      4.208958   150A      4.209080   151A      4.210567
     152A      4.215567   153A      4.322564   154A      4.324183
     155A      4.362390   156A      4.432471   157A      4.432886
     158A      4.446343   159A      4.524221   160A      4.525028
     161A      4.588531   162A      4.589188   163A      4.624722
     164A      4.719801   165A      4.780528   166A      4.782581
     167A      4.839868   168A      4.967668   169A      5.006636
     170A      5.007361   171A      5.233738   172A      5.248051
     173A      5.249005   174A      5.361322   175A      5.362804
     176A      5.481709

    Final Occupation by Irrep:
              A
    DOCC [    16 ]
    SOCC [     1 ]

  @DF-UKS Final Energy:  -157.81305675841938

   => Energetics <=

    Nuclear Repulsion Energy =            125.3946612365833602
    One-Electron Energy =                -458.7489496078248976
    Two-Electron Energy =                 195.8483781692488321
    DFT Exchange-Correlation Energy =     -20.3071465564266909
    Empirical Dispersion Energy =           0.0000000000000000
    VV10 Nonlocal Energy =                  0.0000000000000000
    Total Energy =                       -157.8130567584193784

  UHF NO Occupations:
  HONO-2 :   15  A 1.9996009
  HONO-1 :   16  A 1.9989805
  HONO-0 :   17  A 1.0000000
  LUNO+0 :   18  A 0.0010195
  LUNO+1 :   19  A 0.0003991
  LUNO+2 :   20  A 0.0001979
  LUNO+3 :   21  A 0.0001972

Computation Completed

Properties will be evaluated at   0.000000,   0.000000,   0.000000 [a0]

Properties computed using the SCF density matrix

  Nuclear Dipole Moment: [e a0]
     X:     0.8272      Y:    -0.0000      Z:     0.0033

  Electronic Dipole Moment: [e a0]
     X:    -0.7493      Y:     0.0000      Z:    -0.0034

  Dipole Moment: [e a0]
     X:     0.0779      Y:     0.0000      Z:    -0.0000     Total:     0.0779

  Dipole Moment: [D]
     X:     0.1980      Y:     0.0000      Z:    -0.0001     Total:     0.1980

*** tstop() called on n073 at Fri Nov  5 14:44:14 2021
Module time:
	user time   =     569.66 seconds =       9.49 minutes
	system time =      13.09 seconds =       0.22 minutes
	total time  =        147 seconds =       2.45 minutes
Total time:
	user time   =     569.66 seconds =       9.49 minutes
	system time =      13.09 seconds =       0.22 minutes
	total time  =        147 seconds =       2.45 minutes
Grab this energy -157.81305675841938
    Psi4 stopped on: Friday, 05 November 2021 02:44PM
    Psi4 wall time for execution: 0:02:26.53

*** Psi4 exiting successfully. Buy a developer a beer!
