                               Psi4 1.4a2.dev629

  ==> Input File <==

--------------------------------------------------------------------------
import os
memory 14 GB

molecule {
 C   -0.3233424458    0.0004685410   -0.0000000000
 C    0.0617785165   -1.4011628158   -2.4274540779
 C    0.0597384989    2.7996131851    0.0000000000
 C    0.0617785165   -1.4011628158    2.4274540779
 H    2.0885980881   -1.6469806159   -2.8489023442
 H   -0.7638677966   -0.3862412248   -4.0229171857
 H   -0.7655929051   -3.2912687450   -2.3485138923
 H    2.0834676361    3.2826961348    0.0000000000
 H   -0.7671516859    3.6842523142    1.6764510996
 H   -0.7671516859    3.6842523142   -1.6764510996
 H    2.0885980881   -1.6469806159    2.8489023442
 H   -0.7655929051   -3.2912687450    2.3485138923
 H   -0.7638677966   -0.3862412248    4.0229171857
units bohr
0 2
}

basis {

assign 6-31g_2dfp_

[ 6-31g_2dfp_ ]

spherical

!----------------------------------------------------------------------
! Basis Set Exchange
! Version v0.8.13
! https://www.basissetexchange.org
!----------------------------------------------------------------------
!   Basis set: 6-31G(2df,p)
! Description: 6-31G(2df,p)
!        Role: orbital
!     Version: 0  (Data from the original Basis Set Exchange)
!----------------------------------------------------------------------

****
H     0
S    3   1.00
     18.7311370              0.03349460
      2.8253937              0.23472695
      0.6401217              0.81375733
S    1   1.00
      0.1612778              1.00000000
P    1   1.00
      1.5000000              1.0000000
P    1   1.00
      0.3750000              1.0000000
****
B     0
S    6   1.00
   2068.8823000              0.0018663
    310.6495700              0.0142515
     70.6830330              0.0695516
     19.8610800              0.2325729
      6.2993048              0.4670787
      2.1270270              0.3634314
SP   3   1.00
      4.7279710             -0.1303938              0.0745976
      1.1903377             -0.1307889              0.3078467
      0.3594117              1.1309444              0.7434568
SP   1   1.00
      0.1267512              1.0000000              1.0000000
D    1   1.00
      0.8020000              1.0000000
D    1   1.00
      0.2005000              1.0000000
F    1   1.00
      0.5000000              1.0000000
****
C     0
S    6   1.00
   3047.5249000              0.0018347
    457.3695100              0.0140373
    103.9486900              0.0688426
     29.2101550              0.2321844
      9.2866630              0.4679413
      3.1639270              0.3623120
SP   3   1.00
      7.8682724             -0.1193324              0.0689991
      1.8812885             -0.1608542              0.3164240
      0.5442493              1.1434564              0.7443083
SP   1   1.00
      0.1687144              1.0000000              1.0000000
D    1   1.00
      1.2520000              1.0000000
D    1   1.00
      0.3130000              1.0000000
F    1   1.00
      0.8000000              1.0000000
****
N     0
S    6   1.00
   4173.5110000              0.0018348
    627.4579000              0.0139950
    142.9021000              0.0685870
     40.2343300              0.2322410
     12.8202100              0.4690700
      4.3904370              0.3604550
SP   3   1.00
     11.6263580             -0.1149610              0.0675800
      2.7162800             -0.1691180              0.3239070
      0.7722180              1.1458520              0.7408950
SP   1   1.00
      0.2120313              1.0000000              1.0000000
D    1   1.00
      1.8260000              1.0000000
D    1   1.00
      0.4565000              1.0000000
F    1   1.00
      1.0000000              1.0000000
****
O     0
S    6   1.00
   5484.6717000              0.0018311
    825.2349500              0.0139501
    188.0469600              0.0684451
     52.9645000              0.2327143
     16.8975700              0.4701930
      5.7996353              0.3585209
SP   3   1.00
     15.5396160             -0.1107775              0.0708743
      3.5999336             -0.1480263              0.3397528
      1.0137618              1.1307670              0.7271586
SP   1   1.00
      0.2700058              1.0000000              1.0000000
D    1   1.00
      2.5840000              1.0000000
D    1   1.00
      0.6460000              1.0000000
F    1   1.00
      1.4000000              1.0000000
****
F     0
S    6   1.00
   7001.7130900              0.0018196169
   1051.3660900              0.0139160796
    239.2856900              0.0684053245
     67.3974453              0.233185760
     21.5199573              0.471267439
      7.40310130             0.356618546
SP   3   1.00
     20.8479528             -0.108506975            0.0716287243
      4.80830834            -0.146451658            0.3459121030
      1.34406986             1.128688580            0.7224699570
SP   1   1.00
      0.358151393            1.0000000              1.0000000
D    1   1.00
      3.5000000              1.0000000
D    1   1.00
      0.8750000              1.0000000
F    1   1.00
      1.8500000              1.0000000
****
Al     0
S    6   1.00
  13983.1000000              0.00194267
   2098.7500000              0.0148599
    477.7050000              0.0728494
    134.3600000              0.2468300
     42.8709000              0.4872580
     14.5189000              0.3234960
SP   6   1.00
    239.6680000             -0.00292619             0.00460285
     57.4419000             -0.0374080              0.0331990
     18.2859000             -0.1144870              0.1362820
      6.5991400              0.1156350              0.3304760
      2.4904900              0.6125950              0.4491460
      0.9445400              0.3937990              0.2657040
SP   3   1.00
      1.2779000             -0.2276060             -0.0175130
      0.3975900              0.00144583             0.2445330
      0.1600950              1.0927900              0.8049340
SP   1   1.00
      0.0556577              1.0000000              1.0000000
D    1   1.00
      0.6500000              1.0000000
D    1   1.00
      0.1625000              1.0000000
F    1   1.00
      0.2500000              1.0000000
****
Si     0
S    6   1.00
  16115.9000000              0.00195948
   2425.5800000              0.01492880
    553.8670000              0.07284780
    156.3400000              0.24613000
     50.0683000              0.48591400
     17.0178000              0.32500200
SP   6   1.00
    292.7180000             -0.00278094             0.00443826
     69.8731000             -0.03571460             0.03266790
     22.3363000             -0.11498500             0.13472100
      8.1503900              0.09356340             0.32867800
      3.1345800              0.60301700             0.44964000
      1.2254300              0.41895900             0.26137200
SP   3   1.00
      1.7273800             -0.24463000            -0.01779510
      0.5729220              0.00431572             0.25353900
      0.2221920              1.09818000             0.80066900
SP   1   1.00
      0.0778369              1.00000000             1.00000000
D    1   1.00
      0.9000000              1.0000000
D    1   1.00
      0.2250000              1.0000000
F    1   1.00
      0.3200000              1.0000000
****
P     0
S    6   1.00
  19413.3000000              0.0018516
   2909.4200000              0.0142062
    661.3640000              0.0699995
    185.7590000              0.2400790
     59.1943000              0.4847620
     20.0310000              0.3352000
SP   6   1.00
    339.4780000             -0.00278217             0.00456462
     81.0101000             -0.0360499              0.03369360
     25.8780000             -0.1166310              0.13975500
      9.4522100              0.0968328              0.33936200
      3.6656600              0.6144180              0.45092100
      1.4674600              0.4037980              0.23858600
SP   3   1.00
      2.1562300             -0.2529230             -0.01776530
      0.7489970              0.0328517              0.27405800
      0.2831450              1.0812500              0.78542100
SP   1   1.00
      0.0998317              1.0000000              1.00000000
D    1   1.00
      1.1000000              1.0000000
D    1   1.00
      0.2750000              1.0000000
F    1   1.00
      0.4500000              1.0000000
****
S     0
S    6   1.00
  21917.1000000              0.0018690
   3301.4900000              0.0142300
    754.1460000              0.0696960
    212.7110000              0.2384870
     67.9896000              0.4833070
     23.0515000              0.3380740
SP   6   1.00
    423.7350000             -0.0023767              0.0040610
    100.7100000             -0.0316930              0.0306810
     32.1599000             -0.1133170              0.1304520
     11.8079000              0.0560900              0.3272050
      4.6311000              0.5922550              0.4528510
      1.8702500              0.4550060              0.2560420
SP   3   1.00
      2.6158400             -0.2503740             -0.0145110
      0.9221670              0.0669570              0.3102630
      0.3412870              1.0545100              0.7544830
SP   1   1.00
      0.1171670              1.0000000              1.0000000
D    1   1.00
      1.3000000              1.0000000
D    1   1.00
      0.3250000              1.0000000
F    1   1.00
      0.5500000              1.0000000
****
Cl     0
S    6   1.00
  25180.1000000              0.0018330
   3780.3500000              0.0140340
    860.4740000              0.0690970
    242.1450000              0.2374520
     77.3349000              0.4830340
     26.2470000              0.3398560
SP   6   1.00
    491.7650000             -0.0022974              0.0039894
    116.9840000             -0.0307140              0.0303180
     37.4153000             -0.1125280              0.1298800
     13.7834000              0.0450160              0.3279510
      5.4521500              0.5893530              0.4535270
      2.2258800              0.4652060              0.2521540
SP   3   1.00
      3.1864900             -0.2518300             -0.0142990
      1.1442700              0.0615890              0.3235720
      0.4203770              1.0601800              0.7435070
SP   1   1.00
      0.1426570              1.0000000              1.0000000
D    1   1.00
      1.5000000              1.0000000
D    1   1.00
      0.3750000              1.0000000
F    1   1.00
      0.7000000              1.0000000
****
}

set {
reference uhf
freeze_core true
e_convergence 10
d_convergence 10
dft_spherical_points 1202
dft_radial_points 99
}

e = energy('b3lyp')

print_out('Grab this energy {0}'.format(e))
--------------------------------------------------------------------------

    Molecular point group: cs

    Geometry (in Bohr), charge = 0, multiplicity = 2:

       Center              X                  Y                   Z               Mass
    ------------   -----------------  -----------------  -----------------  -----------------
         C           -0.323341111212     0.000901162725     0.000000000000    12.000000000000
         C            0.061779851088    -1.400730194075    -2.427454077900    12.000000000000
         C            0.059739833488     2.800045806825     0.000000000000    12.000000000000
         C            0.061779851088    -1.400730194075     2.427454077900    12.000000000000
         H            2.088599422688    -1.646547994175    -2.848902344200     1.007825032230
         H           -0.763866462012    -0.385808603075    -4.022917185700     1.007825032230
         H           -0.765591570512    -3.290836123275    -2.348513892300     1.007825032230
         H            2.083468970688     3.283128756525     0.000000000000     1.007825032230
         H           -0.767150351312     3.684684935925     1.676451099600     1.007825032230
         H           -0.767150351312     3.684684935925    -1.676451099600     1.007825032230
         H            2.088599422688    -1.646547994175     2.848902344200     1.007825032230
         H           -0.765591570512    -3.290836123275     2.348513892300     1.007825032230
         H           -0.763866462012    -0.385808603075     4.022917185700     1.007825032230

  Charge       = 0
  Multiplicity = 2
  Basis Set: ANONYMOUSD6B3C95C
    Blend: 6-31G_2DFP_
  Basis Set: (ANONYMOUSD6B3C95C AUX)
    Blend: DEF2-UNIVERSAL-JKFIT

    Orbital Energies [Eh]
    ---------------------

    Alpha Occupied:

       1Ap   -10.180342     2Ap   -10.167094     1App  -10.166993
       3Ap   -10.166959     4Ap    -0.797767     5Ap    -0.686194
       2App   -0.686181     6Ap    -0.530776     7Ap    -0.441125
       8Ap    -0.434839     3App   -0.434505     9Ap    -0.382733
       4App   -0.382463     5App   -0.363612    10Ap    -0.338361
       6App   -0.337636    11Ap    -0.168961

    Alpha Virtual:

      12Ap     0.076073     7App    0.134124    13Ap     0.134184
       8App    0.142359    14Ap     0.142898    15Ap     0.154880
       9App    0.178725    16Ap     0.178826    17Ap     0.203548
      10App    0.214802    11App    0.275738    18Ap     0.276234
      19Ap     0.399108    12App    0.399347    20Ap     0.403347
      21Ap     0.424039    13App    0.424157    22Ap     0.456592
      14App    0.495379    23Ap     0.495396    15App    0.512161
      24Ap     0.513984    25Ap     0.578719    16App    0.578911
      17App    0.591438    26Ap     0.591807    27Ap     0.602596
      28Ap     0.624763    18App    0.631721    19App    0.635917
      29Ap     0.636636    20App    0.663391    30Ap     0.663434
      31Ap     0.683717    21App    0.683987    32Ap     0.734993
      22App    0.825401    33Ap     0.825412    23App    0.853915
      24App    0.914689    34Ap     0.915359    25App    0.944108
      35Ap     0.944615    26App    0.961261    36Ap     0.961347
      37Ap     1.003448    38Ap     1.127760    27App    1.128449
      39Ap     1.142225    28App    1.163145    40Ap     1.163392
      41Ap     1.223327    29App    1.274290    42Ap     1.274701
      43Ap     1.279351    30App    1.324216    44Ap     1.324493
      45Ap     1.355965    31App    1.365901    46Ap     1.366225
      32App    1.392444    33App    1.403752    47Ap     1.404370
      34App    1.416594    48Ap     1.417599    35App    1.427910
      36App    1.491499    49Ap     1.499058    37App    1.542758
      50Ap     1.542922    38App    1.573775    51Ap     1.575126
      52Ap     1.669827    53Ap     1.739350    39App    1.739471
      54Ap     1.768334    55Ap     1.830482    40App    1.832332
      41App    1.971728    56Ap     2.018271    42App    2.018431
      57Ap     2.019706    43App    2.051499    58Ap     2.053780
      59Ap     2.738377    44App    2.738594    60Ap     2.790924
      45App    2.811432    61Ap     2.889861    46App    2.890047
      62Ap     2.894951    47App    2.929129    63Ap     2.929861
      48App    2.958978    64Ap     2.964262    49App    2.964505
      65Ap     3.034007    50App    3.070767    66Ap     3.071799
      51App    3.084359    67Ap     3.168722    52App    3.168827
      68Ap     3.180599    69Ap     3.285204    53App    3.285420
      70Ap     3.326470    54App    3.327853    71Ap     3.375615
      55App    3.488758    72Ap     3.491558    56App    3.514006
      73Ap     3.525334    57App    3.568268    74Ap     3.568399
      58App    3.575257    75Ap     3.666023    59App    3.666649
      76Ap     3.679750    60App    3.693582    77Ap     3.694619
      61App    3.776682    78Ap     3.776906    79Ap     3.789186
      62App    3.911613    80Ap     3.912851    81Ap     4.034450
      63App    4.111083    82Ap     4.111650    64App    4.147792
      83Ap     4.148447    84Ap     4.173255    85Ap     4.201869
      65App    4.203003    86Ap     4.203927    66App    4.210864
      67App    4.315022    87Ap     4.316871    68App    4.359007
      69App    4.423359    88Ap     4.425467    70App    4.443476
      71App    4.515611    89Ap     4.518063    72App    4.578269
      90Ap     4.578272    91Ap     4.617602    92Ap     4.709390
      73App    4.774252    93Ap     4.774908    74App    4.836954
      94Ap     4.962853    95Ap     5.002815    75App    5.003115
      96Ap     5.228061    76App    5.246068    97Ap     5.247563
      77App    5.355497    98Ap     5.355528    78App    5.479339

    Beta Occupied:

       1Ap   -10.167851     1App  -10.167746     2Ap   -10.167728
       3Ap   -10.166519     4Ap    -0.781092     2App   -0.683994
       5Ap    -0.683986     6Ap    -0.511748     7Ap    -0.431224
       3App   -0.430863     8Ap    -0.421822     9Ap    -0.376804
       4App   -0.376562     5App   -0.362596    10Ap    -0.333473
       6App   -0.332770

    Beta Virtual:

      11Ap    -0.025743    12Ap     0.077082     7App    0.134999
      13Ap     0.135087     8App    0.144269    14Ap     0.144731
      15Ap     0.163339     9App    0.182380    16Ap     0.182516
      10App    0.215032    17Ap     0.218929    11App    0.282090
      18Ap     0.282578    19Ap     0.400280    12App    0.400515
      20Ap     0.419793    21Ap     0.426850    13App    0.426968
      22Ap     0.468499    14App    0.497634    23Ap     0.497667
      15App    0.513896    24Ap     0.556325    25Ap     0.584269
      16App    0.584461    17App    0.597613    26Ap     0.597996
      27Ap     0.610016    28Ap     0.628138    18App    0.631902
      19App    0.639184    29Ap     0.639916    20App    0.666958
      30Ap     0.666995    31Ap     0.686380    21App    0.686594
      32Ap     0.757516    33Ap     0.830572    22App    0.830577
      23App    0.855269    24App    0.922684    34Ap     0.923308
      25App    0.945946    35Ap     0.953541    26App    0.966575
      36Ap     0.966644    37Ap     1.008689    38Ap     1.131835
      27App    1.132435    39Ap     1.155597    28App    1.168233
      40Ap     1.168451    41Ap     1.232300    29App    1.279871
      42Ap     1.280315    43Ap     1.285105    30App    1.329214
      44Ap     1.329473    45Ap     1.365362    31App    1.371189
      46Ap     1.371443    32App    1.393502    33App    1.407159
      47Ap     1.407891    34App    1.421665    48Ap     1.422628
      35App    1.428181    36App    1.492547    49Ap     1.509499
      50Ap     1.547241    37App    1.547262    38App    1.581548
      51Ap     1.583092    52Ap     1.674674    53Ap     1.745107
      39App    1.745239    54Ap     1.779113    55Ap     1.834352
      40App    1.836173    41App    1.972588    42App    2.024846
      56Ap     2.026057    57Ap     2.039686    43App    2.058199
      58Ap     2.060507    59Ap     2.746747    44App    2.746894
      45App    2.811844    60Ap     2.816059    61Ap     2.902510
      46App    2.902781    62Ap     2.924656    47App    2.931636
      63Ap     2.932314    48App    2.960048    64Ap     2.968822
      49App    2.969026    65Ap     3.041942    50App    3.080622
      66Ap     3.081758    51App    3.086182    67Ap     3.184445
      52App    3.184568    68Ap     3.188318    69Ap     3.289938
      53App    3.290282    70Ap     3.330278    54App    3.331654
      71Ap     3.383434    55App    3.491488    72Ap     3.494288
      56App    3.512374    73Ap     3.528380    57App    3.574919
      58App    3.581571    74Ap     3.581968    75Ap     3.670757
      59App    3.671436    76Ap     3.693007    60App    3.725477
      77Ap     3.726011    61App    3.781137    78Ap     3.781510
      79Ap     3.817716    62App    3.921486    80Ap     3.922610
      81Ap     4.045337    63App    4.117824    82Ap     4.118542
      64App    4.155013    83Ap     4.155641    84Ap     4.187318
      85Ap     4.208579    65App    4.208927    86Ap     4.211130
      66App    4.215341    67App    4.322463    87Ap     4.324311
      68App    4.362367    69App    4.431567    88Ap     4.433661
      70App    4.446394    71App    4.523410    89Ap     4.525842
      72App    4.588869    90Ap     4.588872    91Ap     4.624797
      92Ap     4.719731    73App    4.781153    93Ap     4.781915
      74App    4.839874    94Ap     4.967649    95Ap     5.006854
      75App    5.007155    96Ap     5.233776    76App    5.247861
      97Ap     5.249338    77App    5.361949    98Ap     5.362036
      78App    5.481660

    Final Occupation by Irrep:
             Ap   App
    DOCC [    10,    6 ]
    SOCC [     1,    0 ]

  @DF-UKS Final Energy:  -157.81306447013489

   => Energetics <=

    Nuclear Repulsion Energy =            125.3946260089335709
    One-Electron Energy =                -458.7488991950842774
    Two-Electron Energy =                 195.8483524259147828
    DFT Exchange-Correlation Energy =     -20.3071437098989875
    Empirical Dispersion Energy =           0.0000000000000000
    VV10 Nonlocal Energy =                  0.0000000000000000
    Total Energy =                       -157.8130644701348899

  UHF NO Occupations:
  HONO-2 :    9 Ap 1.9996009
  HONO-1 :   10 Ap 1.9989805
  HONO-0 :   11 Ap 1.0000000
  LUNO+0 :   12 Ap 0.0010195
  LUNO+1 :   13 Ap 0.0003991
  LUNO+2 :    7App 0.0001981
  LUNO+3 :   14 Ap 0.0001970

Computation Completed

Properties will be evaluated at   0.000000,   0.000000,   0.000000 [a0]

Properties computed using the SCF density matrix

  Nuclear Dipole Moment: [e a0]
     X:     0.8272      Y:     0.0030      Z:     0.0000

  Electronic Dipole Moment: [e a0]
     X:    -0.7493      Y:    -0.0023      Z:     0.0000

  Dipole Moment: [e a0]
     X:     0.0779      Y:     0.0007      Z:     0.0000     Total:     0.0779

  Dipole Moment: [D]
     X:     0.1980      Y:     0.0018      Z:     0.0000     Total:     0.1980

*** tstop() called on n089 at Fri Nov  5 13:01:43 2021
Module time:
	user time   =     514.75 seconds =       8.58 minutes
	system time =       4.74 seconds =       0.08 minutes
	total time  =        131 seconds =       2.18 minutes
Total time:
	user time   =     514.75 seconds =       8.58 minutes
	system time =       4.74 seconds =       0.08 minutes
	total time  =        131 seconds =       2.18 minutes
Grab this energy -157.8130644701349
    Psi4 stopped on: Friday, 05 November 2021 01:01PM
    Psi4 wall time for execution: 0:02:10.69

*** Psi4 exiting successfully. Buy a developer a beer!
