                               Psi4 1.4a2.dev629

  ==> Input File <==

--------------------------------------------------------------------------
import os
memory 14 GB

molecule {
 C   -0.3233367623   -0.0000020513   -0.0000017594
 C    0.0611431971   -1.4000811037   -2.4268397126
 C    0.0610238973    2.8017594985    0.0009179562
 C    0.0611441982   -1.4016741177    2.4259218013
 H    2.0869373147   -1.6458782601   -2.8464160724
 H   -0.7590349594   -0.3876587580   -4.0249528840
 H   -0.7719473310   -3.2921535119   -2.3497424176
 H    2.0867999110    3.2881052137   -0.0020507147
 H   -0.7592795178    3.6795136188    1.6767196436
 H   -0.7720196129    3.6809892169   -1.6762600849
 H    2.0869403371   -1.6423194404    2.8484696986
 H   -0.7591963178   -3.2918253935    2.3482389875
 H   -0.7717822310   -0.3887992248    4.0259955587
units bohr
0 2
}

basis {

assign 6-31g_2dfp_

[ 6-31g_2dfp_ ]

spherical

!----------------------------------------------------------------------
! Basis Set Exchange
! Version v0.8.13
! https://www.basissetexchange.org
!----------------------------------------------------------------------
!   Basis set: 6-31G(2df,p)
! Description: 6-31G(2df,p)
!        Role: orbital
!     Version: 0  (Data from the original Basis Set Exchange)
!----------------------------------------------------------------------

****
H     0
S    3   1.00
     18.7311370              0.03349460
      2.8253937              0.23472695
      0.6401217              0.81375733
S    1   1.00
      0.1612778              1.00000000
P    1   1.00
      1.5000000              1.0000000
P    1   1.00
      0.3750000              1.0000000
****
B     0
S    6   1.00
   2068.8823000              0.0018663
    310.6495700              0.0142515
     70.6830330              0.0695516
     19.8610800              0.2325729
      6.2993048              0.4670787
      2.1270270              0.3634314
SP   3   1.00
      4.7279710             -0.1303938              0.0745976
      1.1903377             -0.1307889              0.3078467
      0.3594117              1.1309444              0.7434568
SP   1   1.00
      0.1267512              1.0000000              1.0000000
D    1   1.00
      0.8020000              1.0000000
D    1   1.00
      0.2005000              1.0000000
F    1   1.00
      0.5000000              1.0000000
****
C     0
S    6   1.00
   3047.5249000              0.0018347
    457.3695100              0.0140373
    103.9486900              0.0688426
     29.2101550              0.2321844
      9.2866630              0.4679413
      3.1639270              0.3623120
SP   3   1.00
      7.8682724             -0.1193324              0.0689991
      1.8812885             -0.1608542              0.3164240
      0.5442493              1.1434564              0.7443083
SP   1   1.00
      0.1687144              1.0000000              1.0000000
D    1   1.00
      1.2520000              1.0000000
D    1   1.00
      0.3130000              1.0000000
F    1   1.00
      0.8000000              1.0000000
****
N     0
S    6   1.00
   4173.5110000              0.0018348
    627.4579000              0.0139950
    142.9021000              0.0685870
     40.2343300              0.2322410
     12.8202100              0.4690700
      4.3904370              0.3604550
SP   3   1.00
     11.6263580             -0.1149610              0.0675800
      2.7162800             -0.1691180              0.3239070
      0.7722180              1.1458520              0.7408950
SP   1   1.00
      0.2120313              1.0000000              1.0000000
D    1   1.00
      1.8260000              1.0000000
D    1   1.00
      0.4565000              1.0000000
F    1   1.00
      1.0000000              1.0000000
****
O     0
S    6   1.00
   5484.6717000              0.0018311
    825.2349500              0.0139501
    188.0469600              0.0684451
     52.9645000              0.2327143
     16.8975700              0.4701930
      5.7996353              0.3585209
SP   3   1.00
     15.5396160             -0.1107775              0.0708743
      3.5999336             -0.1480263              0.3397528
      1.0137618              1.1307670              0.7271586
SP   1   1.00
      0.2700058              1.0000000              1.0000000
D    1   1.00
      2.5840000              1.0000000
D    1   1.00
      0.6460000              1.0000000
F    1   1.00
      1.4000000              1.0000000
****
F     0
S    6   1.00
   7001.7130900              0.0018196169
   1051.3660900              0.0139160796
    239.2856900              0.0684053245
     67.3974453              0.233185760
     21.5199573              0.471267439
      7.40310130             0.356618546
SP   3   1.00
     20.8479528             -0.108506975            0.0716287243
      4.80830834            -0.146451658            0.3459121030
      1.34406986             1.128688580            0.7224699570
SP   1   1.00
      0.358151393            1.0000000              1.0000000
D    1   1.00
      3.5000000              1.0000000
D    1   1.00
      0.8750000              1.0000000
F    1   1.00
      1.8500000              1.0000000
****
Al     0
S    6   1.00
  13983.1000000              0.00194267
   2098.7500000              0.0148599
    477.7050000              0.0728494
    134.3600000              0.2468300
     42.8709000              0.4872580
     14.5189000              0.3234960
SP   6   1.00
    239.6680000             -0.00292619             0.00460285
     57.4419000             -0.0374080              0.0331990
     18.2859000             -0.1144870              0.1362820
      6.5991400              0.1156350              0.3304760
      2.4904900              0.6125950              0.4491460
      0.9445400              0.3937990              0.2657040
SP   3   1.00
      1.2779000             -0.2276060             -0.0175130
      0.3975900              0.00144583             0.2445330
      0.1600950              1.0927900              0.8049340
SP   1   1.00
      0.0556577              1.0000000              1.0000000
D    1   1.00
      0.6500000              1.0000000
D    1   1.00
      0.1625000              1.0000000
F    1   1.00
      0.2500000              1.0000000
****
Si     0
S    6   1.00
  16115.9000000              0.00195948
   2425.5800000              0.01492880
    553.8670000              0.07284780
    156.3400000              0.24613000
     50.0683000              0.48591400
     17.0178000              0.32500200
SP   6   1.00
    292.7180000             -0.00278094             0.00443826
     69.8731000             -0.03571460             0.03266790
     22.3363000             -0.11498500             0.13472100
      8.1503900              0.09356340             0.32867800
      3.1345800              0.60301700             0.44964000
      1.2254300              0.41895900             0.26137200
SP   3   1.00
      1.7273800             -0.24463000            -0.01779510
      0.5729220              0.00431572             0.25353900
      0.2221920              1.09818000             0.80066900
SP   1   1.00
      0.0778369              1.00000000             1.00000000
D    1   1.00
      0.9000000              1.0000000
D    1   1.00
      0.2250000              1.0000000
F    1   1.00
      0.3200000              1.0000000
****
P     0
S    6   1.00
  19413.3000000              0.0018516
   2909.4200000              0.0142062
    661.3640000              0.0699995
    185.7590000              0.2400790
     59.1943000              0.4847620
     20.0310000              0.3352000
SP   6   1.00
    339.4780000             -0.00278217             0.00456462
     81.0101000             -0.0360499              0.03369360
     25.8780000             -0.1166310              0.13975500
      9.4522100              0.0968328              0.33936200
      3.6656600              0.6144180              0.45092100
      1.4674600              0.4037980              0.23858600
SP   3   1.00
      2.1562300             -0.2529230             -0.01776530
      0.7489970              0.0328517              0.27405800
      0.2831450              1.0812500              0.78542100
SP   1   1.00
      0.0998317              1.0000000              1.00000000
D    1   1.00
      1.1000000              1.0000000
D    1   1.00
      0.2750000              1.0000000
F    1   1.00
      0.4500000              1.0000000
****
S     0
S    6   1.00
  21917.1000000              0.0018690
   3301.4900000              0.0142300
    754.1460000              0.0696960
    212.7110000              0.2384870
     67.9896000              0.4833070
     23.0515000              0.3380740
SP   6   1.00
    423.7350000             -0.0023767              0.0040610
    100.7100000             -0.0316930              0.0306810
     32.1599000             -0.1133170              0.1304520
     11.8079000              0.0560900              0.3272050
      4.6311000              0.5922550              0.4528510
      1.8702500              0.4550060              0.2560420
SP   3   1.00
      2.6158400             -0.2503740             -0.0145110
      0.9221670              0.0669570              0.3102630
      0.3412870              1.0545100              0.7544830
SP   1   1.00
      0.1171670              1.0000000              1.0000000
D    1   1.00
      1.3000000              1.0000000
D    1   1.00
      0.3250000              1.0000000
F    1   1.00
      0.5500000              1.0000000
****
Cl     0
S    6   1.00
  25180.1000000              0.0018330
   3780.3500000              0.0140340
    860.4740000              0.0690970
    242.1450000              0.2374520
     77.3349000              0.4830340
     26.2470000              0.3398560
SP   6   1.00
    491.7650000             -0.0022974              0.0039894
    116.9840000             -0.0307140              0.0303180
     37.4153000             -0.1125280              0.1298800
     13.7834000              0.0450160              0.3279510
      5.4521500              0.5893530              0.4535270
      2.2258800              0.4652060              0.2521540
SP   3   1.00
      3.1864900             -0.2518300             -0.0142990
      1.1442700              0.0615890              0.3235720
      0.4203770              1.0601800              0.7435070
SP   1   1.00
      0.1426570              1.0000000              1.0000000
D    1   1.00
      1.5000000              1.0000000
D    1   1.00
      0.3750000              1.0000000
F    1   1.00
      0.7000000              1.0000000
****
}

set {
reference uhf
freeze_core true
e_convergence 10
d_convergence 10
dft_spherical_points 1202
dft_radial_points 99
}

e = energy('b3lyp')

print_out('Grab this energy {0}'.format(e))
--------------------------------------------------------------------------

    Molecular point group: c1

    Geometry (in Bohr), charge = 0, multiplicity = 2:

       Center              X                  Y                   Z               Mass
    ------------   -----------------  -----------------  -----------------  -----------------
         C           -0.323339558020    -0.000002050645    -0.000001429180    12.000000000000
         C            0.061140401380    -1.400081103045    -2.426839382380    12.000000000000
         C            0.061021101580     2.801759499155     0.000918286420    12.000000000000
         C            0.061141402480    -1.401674117045     2.425922131520    12.000000000000
         H            2.086934518980    -1.645878259445    -2.846415742180     1.007825032230
         H           -0.759037755120    -0.387658757345    -4.024952553780     1.007825032230
         H           -0.771950126720    -3.292153511245    -2.349742087380     1.007825032230
         H            2.086797115280     3.288105214355    -0.002050384480     1.007825032230
         H           -0.759282313520     3.679513619455     1.676719973820     1.007825032230
         H           -0.772022408620     3.680989217555    -1.676259754680     1.007825032230
         H            2.086937541380    -1.642319439745     2.848470028820     1.007825032230
         H           -0.759199113520    -3.291825392845     2.348239317720     1.007825032230
         H           -0.771785026720    -0.388799224145     4.025995888920     1.007825032230

  Charge       = 0
  Multiplicity = 2
  Basis Set: ANONYMOUSC6EBE07E
    Blend: 6-31G_2DFP_
  Basis Set: (ANONYMOUSC6EBE07E AUX)
    Blend: DEF2-UNIVERSAL-JKFIT

    Orbital Energies [Eh]
    ---------------------

    Alpha Occupied:

       1A    -10.180342     2A    -10.167030     3A    -10.167030
       4A    -10.166984     5A     -0.797766     6A     -0.686188
       7A     -0.686187     8A     -0.530778     9A     -0.441123
      10A     -0.434672    11A     -0.434671    12A     -0.382599
      13A     -0.382598    14A     -0.363610    15A     -0.337999
      16A     -0.337999    17A     -0.168961

    Alpha Virtual:

      18A      0.076072    19A      0.134144    20A      0.134145
      21A      0.142636    22A      0.142636    23A      0.154880
      24A      0.178781    25A      0.178781    26A      0.203546
      27A      0.214800    28A      0.275985    29A      0.275987
      30A      0.399227    31A      0.399231    32A      0.403344
      33A      0.424096    34A      0.424097    35A      0.456592
      36A      0.495388    37A      0.495389    38A      0.512153
      39A      0.513984    40A      0.578813    41A      0.578822
      42A      0.591634    43A      0.591635    44A      0.602570
      45A      0.624728    46A      0.631818    47A      0.636237
      48A      0.636241    49A      0.663413    50A      0.663413
      51A      0.683861    52A      0.683862    53A      0.734995
      54A      0.825406    55A      0.825409    56A      0.853915
      57A      0.915022    58A      0.915028    59A      0.944068
      60A      0.944649    61A      0.961285    62A      0.961302
      63A      1.003475    64A      1.128106    65A      1.128118
      66A      1.142222    67A      1.163261    68A      1.163273
      69A      1.223323    70A      1.274489    71A      1.274492
      72A      1.279347    73A      1.324347    74A      1.324349
      75A      1.355990    76A      1.366047    77A      1.366051
      78A      1.392464    79A      1.404049    80A      1.404051
      81A      1.417117    82A      1.417123    83A      1.427909
      84A      1.491481    85A      1.499078    86A      1.542819
      87A      1.542821    88A      1.574451    89A      1.574453
      90A      1.669837    91A      1.739401    92A      1.739413
      93A      1.768306    94A      1.831408    95A      1.831409
      96A      1.971675    97A      2.018366    98A      2.019044
      99A      2.019047   100A      2.052637   101A      2.052639
     102A      2.738481   103A      2.738482   104A      2.790919
     105A      2.811427   106A      2.889952   107A      2.889958
     108A      2.894941   109A      2.929495   110A      2.929503
     111A      2.958993   112A      2.964376   113A      2.964390
     114A      3.033979   115A      3.071284   116A      3.071298
     117A      3.084370   118A      3.168778   119A      3.168785
     120A      3.180594   121A      3.285300   122A      3.285300
     123A      3.327176   124A      3.327181   125A      3.375619
     126A      3.490162   127A      3.490182   128A      3.514014
     129A      3.525314   130A      3.568382   131A      3.568403
     132A      3.575144   133A      3.666373   134A      3.666381
     135A      3.679684   136A      3.694109   137A      3.694125
     138A      3.776788   139A      3.776814   140A      3.789116
     141A      3.912225   142A      3.912231   143A      4.034451
     144A      4.111293   145A      4.111297   146A      4.148186
     147A      4.148194   148A      4.173135   149A      4.202608
     150A      4.203092   151A      4.203096   152A      4.211001
     153A      4.315943   154A      4.315963   155A      4.358965
     156A      4.424467   157A      4.424470   158A      4.443436
     159A      4.516846   160A      4.516847   161A      4.578265
     162A      4.578278   163A      4.617528   164A      4.709439
     165A      4.774592   166A      4.774600   167A      4.836912
     168A      4.962875   169A      5.002947   170A      5.002960
     171A      5.228027   172A      5.246735   173A      5.246736
     174A      5.355580   175A      5.355593   176A      5.479385

    Beta Occupied:

       1A    -10.167783     2A    -10.167783     3A    -10.167758
       4A    -10.166519     5A     -0.781091     6A     -0.683991
       7A     -0.683990     8A     -0.511749     9A     -0.431043
      10A     -0.431042    11A     -0.421821    12A     -0.376684
      13A     -0.376683    14A     -0.362594    15A     -0.333122
      16A     -0.333121

    Beta Virtual:

      17A     -0.025742    18A      0.077081    19A      0.135034
      20A      0.135034    21A      0.144507    22A      0.144507
      23A      0.163339    24A      0.182451    25A      0.182452
      26A      0.215027    27A      0.218932    28A      0.282332
      29A      0.282335    30A      0.400396    31A      0.400400
      32A      0.419792    33A      0.426907    34A      0.426908
      35A      0.468500    36A      0.497649    37A      0.497650
      38A      0.513894    39A      0.556324    40A      0.584363
      41A      0.584371    42A      0.597814    43A      0.597815
      44A      0.609995    45A      0.628073    46A      0.632002
      47A      0.639523    48A      0.639527    49A      0.666978
      50A      0.666978    51A      0.686495    52A      0.686496
      53A      0.757518    54A      0.830575    55A      0.830577
      56A      0.855268    57A      0.922993    58A      0.923000
      59A      0.945938    60A      0.953547    61A      0.966591
      62A      0.966607    63A      1.008714    64A      1.132134
      65A      1.132146    66A      1.155602    67A      1.168334
      68A      1.168347    69A      1.232295    70A      1.280085
      71A      1.280089    72A      1.285100    73A      1.329335
      74A      1.329337    75A      1.365406    76A      1.371292
      77A      1.371296    78A      1.393523    79A      1.407514
      80A      1.407517    81A      1.422168    82A      1.422174
      83A      1.428177    84A      1.492529    85A      1.509521
      86A      1.547229    87A      1.547230    88A      1.582322
      89A      1.582323    90A      1.674683    91A      1.745162
      92A      1.745174    93A      1.779087    94A      1.835264
      95A      1.835265    96A      1.972554    97A      2.025447
      98A      2.025450    99A      2.039722   100A      2.059350
     101A      2.059352   102A      2.746817   103A      2.746818
     104A      2.811816   105A      2.816078   106A      2.902639
     107A      2.902645   108A      2.924651   109A      2.931974
     110A      2.931983   111A      2.960055   112A      2.968920
     113A      2.968934   114A      3.041908   115A      3.081197
     116A      3.081208   117A      3.086194   118A      3.184533
     119A      3.184537   120A      3.188265   121A      3.290097
     122A      3.290098   123A      3.330982   124A      3.330988
     125A      3.383437   126A      3.492892   127A      3.492912
     128A      3.512380   129A      3.528356   130A      3.575014
     131A      3.581721   132A      3.581743   133A      3.671116
     134A      3.671127   135A      3.692973   136A      3.725744
     137A      3.725760   138A      3.781314   139A      3.781340
     140A      3.817662   141A      3.922041   142A      3.922049
     143A      4.045339   144A      4.118102   145A      4.118104
     146A      4.155404   147A      4.155413   148A      4.187158
     149A      4.209027   150A      4.209030   151A      4.210541
     152A      4.215547   153A      4.323385   154A      4.323405
     155A      4.362328   156A      4.432683   157A      4.432686
     158A      4.446315   159A      4.524636   160A      4.524638
     161A      4.588867   162A      4.588879   163A      4.624720
     164A      4.719783   165A      4.781545   166A      4.781553
     167A      4.839829   168A      4.967670   169A      5.006986
     170A      5.006999   171A      5.233743   172A      5.248524
     173A      5.248525   174A      5.362055   175A      5.362069
     176A      5.481706

    Final Occupation by Irrep:
              A
    DOCC [    16 ]
    SOCC [     1 ]

  @DF-UKS Final Energy:  -157.81306132230640

   => Energetics <=

    Nuclear Repulsion Energy =            125.3946132372977758
    One-Electron Energy =                -458.7488688720145547
    Two-Electron Energy =                 195.8483396423569900
    DFT Exchange-Correlation Energy =     -20.3071453299466107
    Empirical Dispersion Energy =           0.0000000000000000
    VV10 Nonlocal Energy =                  0.0000000000000000
    Total Energy =                       -157.8130613223063961

  UHF NO Occupations:
  HONO-2 :   15  A 1.9996009
  HONO-1 :   16  A 1.9989805
  HONO-0 :   17  A 1.0000000
  LUNO+0 :   18  A 0.0010195
  LUNO+1 :   19  A 0.0003991
  LUNO+2 :   20  A 0.0001975
  LUNO+3 :   21  A 0.0001975

Computation Completed

Properties will be evaluated at   0.000000,   0.000000,   0.000000 [a0]

Properties computed using the SCF density matrix

  Nuclear Dipole Moment: [e a0]
     X:     0.8272      Y:    -0.0000      Z:     0.0000

  Electronic Dipole Moment: [e a0]
     X:    -0.7493      Y:     0.0000      Z:    -0.0000

  Dipole Moment: [e a0]
     X:     0.0779      Y:     0.0000      Z:     0.0000     Total:     0.0779

  Dipole Moment: [D]
     X:     0.1981      Y:     0.0000      Z:     0.0000     Total:     0.1981

*** tstop() called on n036 at Fri Nov  5 14:44:30 2021
Module time:
	user time   =     634.66 seconds =      10.58 minutes
	system time =      12.21 seconds =       0.20 minutes
	total time  =        162 seconds =       2.70 minutes
Total time:
	user time   =     634.66 seconds =      10.58 minutes
	system time =      12.21 seconds =       0.20 minutes
	total time  =        162 seconds =       2.70 minutes
Grab this energy -157.8130613223064
    Psi4 stopped on: Friday, 05 November 2021 02:44PM
    Psi4 wall time for execution: 0:02:42.66

*** Psi4 exiting successfully. Buy a developer a beer!
