                               Psi4 1.4a2.dev629

  ==> Input File <==

--------------------------------------------------------------------------
import os
memory 14 GB

molecule {
 C   -0.3233404544   -0.0002744550   -0.0000000000
 C    0.0605355956   -1.4013941571   -2.4274477429
 C    0.0622276028    2.7993929045   -0.0000000000
 C    0.0605355956   -1.4013941571    2.4274477429
 H    2.0890398061   -1.6440788824   -2.8467718100
 H   -0.7675146982   -0.3894056871   -4.0249224780
 H   -0.7654964112   -3.2901962583   -2.3492012726
 H    2.0825885686    3.2892683006   -0.0000000000
 H   -0.7636060892    3.6808694530    1.6794711160
 H   -0.7636060892    3.6808694530   -1.6794711160
 H    2.0890398061   -1.6440788824    2.8467718100
 H   -0.7654964112   -3.2901962583    2.3492012726
 H   -0.7675146982   -0.3894056871    4.0249224780
units bohr
0 2
}

basis {

assign 6-31g_2dfp_

[ 6-31g_2dfp_ ]

spherical

!----------------------------------------------------------------------
! Basis Set Exchange
! Version v0.8.13
! https://www.basissetexchange.org
!----------------------------------------------------------------------
!   Basis set: 6-31G(2df,p)
! Description: 6-31G(2df,p)
!        Role: orbital
!     Version: 0  (Data from the original Basis Set Exchange)
!----------------------------------------------------------------------

****
H     0
S    3   1.00
     18.7311370              0.03349460
      2.8253937              0.23472695
      0.6401217              0.81375733
S    1   1.00
      0.1612778              1.00000000
P    1   1.00
      1.5000000              1.0000000
P    1   1.00
      0.3750000              1.0000000
****
B     0
S    6   1.00
   2068.8823000              0.0018663
    310.6495700              0.0142515
     70.6830330              0.0695516
     19.8610800              0.2325729
      6.2993048              0.4670787
      2.1270270              0.3634314
SP   3   1.00
      4.7279710             -0.1303938              0.0745976
      1.1903377             -0.1307889              0.3078467
      0.3594117              1.1309444              0.7434568
SP   1   1.00
      0.1267512              1.0000000              1.0000000
D    1   1.00
      0.8020000              1.0000000
D    1   1.00
      0.2005000              1.0000000
F    1   1.00
      0.5000000              1.0000000
****
C     0
S    6   1.00
   3047.5249000              0.0018347
    457.3695100              0.0140373
    103.9486900              0.0688426
     29.2101550              0.2321844
      9.2866630              0.4679413
      3.1639270              0.3623120
SP   3   1.00
      7.8682724             -0.1193324              0.0689991
      1.8812885             -0.1608542              0.3164240
      0.5442493              1.1434564              0.7443083
SP   1   1.00
      0.1687144              1.0000000              1.0000000
D    1   1.00
      1.2520000              1.0000000
D    1   1.00
      0.3130000              1.0000000
F    1   1.00
      0.8000000              1.0000000
****
N     0
S    6   1.00
   4173.5110000              0.0018348
    627.4579000              0.0139950
    142.9021000              0.0685870
     40.2343300              0.2322410
     12.8202100              0.4690700
      4.3904370              0.3604550
SP   3   1.00
     11.6263580             -0.1149610              0.0675800
      2.7162800             -0.1691180              0.3239070
      0.7722180              1.1458520              0.7408950
SP   1   1.00
      0.2120313              1.0000000              1.0000000
D    1   1.00
      1.8260000              1.0000000
D    1   1.00
      0.4565000              1.0000000
F    1   1.00
      1.0000000              1.0000000
****
O     0
S    6   1.00
   5484.6717000              0.0018311
    825.2349500              0.0139501
    188.0469600              0.0684451
     52.9645000              0.2327143
     16.8975700              0.4701930
      5.7996353              0.3585209
SP   3   1.00
     15.5396160             -0.1107775              0.0708743
      3.5999336             -0.1480263              0.3397528
      1.0137618              1.1307670              0.7271586
SP   1   1.00
      0.2700058              1.0000000              1.0000000
D    1   1.00
      2.5840000              1.0000000
D    1   1.00
      0.6460000              1.0000000
F    1   1.00
      1.4000000              1.0000000
****
F     0
S    6   1.00
   7001.7130900              0.0018196169
   1051.3660900              0.0139160796
    239.2856900              0.0684053245
     67.3974453              0.233185760
     21.5199573              0.471267439
      7.40310130             0.356618546
SP   3   1.00
     20.8479528             -0.108506975            0.0716287243
      4.80830834            -0.146451658            0.3459121030
      1.34406986             1.128688580            0.7224699570
SP   1   1.00
      0.358151393            1.0000000              1.0000000
D    1   1.00
      3.5000000              1.0000000
D    1   1.00
      0.8750000              1.0000000
F    1   1.00
      1.8500000              1.0000000
****
Al     0
S    6   1.00
  13983.1000000              0.00194267
   2098.7500000              0.0148599
    477.7050000              0.0728494
    134.3600000              0.2468300
     42.8709000              0.4872580
     14.5189000              0.3234960
SP   6   1.00
    239.6680000             -0.00292619             0.00460285
     57.4419000             -0.0374080              0.0331990
     18.2859000             -0.1144870              0.1362820
      6.5991400              0.1156350              0.3304760
      2.4904900              0.6125950              0.4491460
      0.9445400              0.3937990              0.2657040
SP   3   1.00
      1.2779000             -0.2276060             -0.0175130
      0.3975900              0.00144583             0.2445330
      0.1600950              1.0927900              0.8049340
SP   1   1.00
      0.0556577              1.0000000              1.0000000
D    1   1.00
      0.6500000              1.0000000
D    1   1.00
      0.1625000              1.0000000
F    1   1.00
      0.2500000              1.0000000
****
Si     0
S    6   1.00
  16115.9000000              0.00195948
   2425.5800000              0.01492880
    553.8670000              0.07284780
    156.3400000              0.24613000
     50.0683000              0.48591400
     17.0178000              0.32500200
SP   6   1.00
    292.7180000             -0.00278094             0.00443826
     69.8731000             -0.03571460             0.03266790
     22.3363000             -0.11498500             0.13472100
      8.1503900              0.09356340             0.32867800
      3.1345800              0.60301700             0.44964000
      1.2254300              0.41895900             0.26137200
SP   3   1.00
      1.7273800             -0.24463000            -0.01779510
      0.5729220              0.00431572             0.25353900
      0.2221920              1.09818000             0.80066900
SP   1   1.00
      0.0778369              1.00000000             1.00000000
D    1   1.00
      0.9000000              1.0000000
D    1   1.00
      0.2250000              1.0000000
F    1   1.00
      0.3200000              1.0000000
****
P     0
S    6   1.00
  19413.3000000              0.0018516
   2909.4200000              0.0142062
    661.3640000              0.0699995
    185.7590000              0.2400790
     59.1943000              0.4847620
     20.0310000              0.3352000
SP   6   1.00
    339.4780000             -0.00278217             0.00456462
     81.0101000             -0.0360499              0.03369360
     25.8780000             -0.1166310              0.13975500
      9.4522100              0.0968328              0.33936200
      3.6656600              0.6144180              0.45092100
      1.4674600              0.4037980              0.23858600
SP   3   1.00
      2.1562300             -0.2529230             -0.01776530
      0.7489970              0.0328517              0.27405800
      0.2831450              1.0812500              0.78542100
SP   1   1.00
      0.0998317              1.0000000              1.00000000
D    1   1.00
      1.1000000              1.0000000
D    1   1.00
      0.2750000              1.0000000
F    1   1.00
      0.4500000              1.0000000
****
S     0
S    6   1.00
  21917.1000000              0.0018690
   3301.4900000              0.0142300
    754.1460000              0.0696960
    212.7110000              0.2384870
     67.9896000              0.4833070
     23.0515000              0.3380740
SP   6   1.00
    423.7350000             -0.0023767              0.0040610
    100.7100000             -0.0316930              0.0306810
     32.1599000             -0.1133170              0.1304520
     11.8079000              0.0560900              0.3272050
      4.6311000              0.5922550              0.4528510
      1.8702500              0.4550060              0.2560420
SP   3   1.00
      2.6158400             -0.2503740             -0.0145110
      0.9221670              0.0669570              0.3102630
      0.3412870              1.0545100              0.7544830
SP   1   1.00
      0.1171670              1.0000000              1.0000000
D    1   1.00
      1.3000000              1.0000000
D    1   1.00
      0.3250000              1.0000000
F    1   1.00
      0.5500000              1.0000000
****
Cl     0
S    6   1.00
  25180.1000000              0.0018330
   3780.3500000              0.0140340
    860.4740000              0.0690970
    242.1450000              0.2374520
     77.3349000              0.4830340
     26.2470000              0.3398560
SP   6   1.00
    491.7650000             -0.0022974              0.0039894
    116.9840000             -0.0307140              0.0303180
     37.4153000             -0.1125280              0.1298800
     13.7834000              0.0450160              0.3279510
      5.4521500              0.5893530              0.4535270
      2.2258800              0.4652060              0.2521540
SP   3   1.00
      3.1864900             -0.2518300             -0.0142990
      1.1442700              0.0615890              0.3235720
      0.4203770              1.0601800              0.7435070
SP   1   1.00
      0.1426570              1.0000000              1.0000000
D    1   1.00
      1.5000000              1.0000000
D    1   1.00
      0.3750000              1.0000000
F    1   1.00
      0.7000000              1.0000000
****
}

set {
reference uhf
freeze_core true
e_convergence 10
d_convergence 10
dft_spherical_points 1202
dft_radial_points 99
}

e = energy('b3lyp')

print_out('Grab this energy {0}'.format(e))
--------------------------------------------------------------------------

    Molecular point group: cs

    Geometry (in Bohr), charge = 0, multiplicity = 2:

       Center              X                  Y                   Z               Mass
    ------------   -----------------  -----------------  -----------------  -----------------
         C           -0.323340131674     0.000432816737     0.000000000000    12.000000000000
         C            0.060535918326    -1.400686885363    -2.427447742900    12.000000000000
         C            0.062227925526     2.800100176237     0.000000000000    12.000000000000
         C            0.060535918326    -1.400686885363     2.427447742900    12.000000000000
         H            2.089040128826    -1.643371610663    -2.846771810000     1.007825032230
         H           -0.767514375474    -0.388698415363    -4.024922478000     1.007825032230
         H           -0.765496088474    -3.289488986563    -2.349201272600     1.007825032230
         H            2.082588891326     3.289975572337     0.000000000000     1.007825032230
         H           -0.763605766474     3.681576724737     1.679471116000     1.007825032230
         H           -0.763605766474     3.681576724737    -1.679471116000     1.007825032230
         H            2.089040128826    -1.643371610663     2.846771810000     1.007825032230
         H           -0.765496088474    -3.289488986563     2.349201272600     1.007825032230
         H           -0.767514375474    -0.388698415363     4.024922478000     1.007825032230

  Charge       = 0
  Multiplicity = 2
  Basis Set: ANONYMOUS28FCB6EB
    Blend: 6-31G_2DFP_
  Basis Set: (ANONYMOUS28FCB6EB AUX)
    Blend: DEF2-UNIVERSAL-JKFIT

    Orbital Energies [Eh]
    ---------------------

    Alpha Occupied:

       1Ap   -10.180342     2Ap   -10.167041     1App  -10.167022
       3Ap   -10.166982     4Ap    -0.797766     2App   -0.686209
       5Ap    -0.686166     6Ap    -0.530778     7Ap    -0.441127
       8Ap    -0.434770     3App   -0.434569     4App   -0.382665
       9Ap    -0.382531     5App   -0.363612    10Ap    -0.338175
       6App   -0.337822    11Ap    -0.168961

    Alpha Virtual:

      12Ap     0.076071     7App    0.134006    13Ap     0.134300
       8App    0.142502    14Ap     0.142751    15Ap     0.154881
       9App    0.178775    16Ap     0.178783    17Ap     0.203546
      10App    0.214803    11App    0.275836    18Ap     0.276137
      19Ap     0.399200    12App    0.399254    20Ap     0.403347
      13App    0.423968    21Ap     0.424226    22Ap     0.456593
      23Ap     0.495266    14App    0.495512    15App    0.512160
      24Ap     0.513979    16App    0.578611    25Ap     0.579024
      17App    0.591545    26Ap     0.591710    27Ap     0.602580
      28Ap     0.624764    18App    0.631733    19App    0.636020
      29Ap     0.636517    20App    0.662979    30Ap     0.663852
      31Ap     0.683662    21App    0.684049    32Ap     0.734995
      33Ap     0.825334    22App    0.825474    23App    0.853921
      24App    0.914794    34Ap     0.915256    25App    0.944124
      35Ap     0.944615    26App    0.961192    36Ap     0.961398
      37Ap     1.003452    27App    1.127993    38Ap     1.128220
      39Ap     1.142206    28App    1.162862    40Ap     1.163694
      41Ap     1.223325    29App    1.274041    42Ap     1.274864
      43Ap     1.279435    30App    1.324242    44Ap     1.324472
      45Ap     1.355971    31App    1.365871    46Ap     1.366230
      32App    1.392452    33App    1.403775    47Ap     1.404364
      48Ap     1.416729    34App    1.417474    35App    1.427913
      36App    1.491485    49Ap     1.499075    37App    1.542297
      50Ap     1.543378    38App    1.574412    51Ap     1.574477
      52Ap     1.669810    53Ap     1.739372    39App    1.739418
      54Ap     1.768360    55Ap     1.830107    40App    1.832706
      41App    1.971725    42App    2.018077    56Ap     2.018112
      57Ap     2.020215    43App    2.051021    58Ap     2.054271
      44App    2.738196    59Ap     2.738771    60Ap     2.790926
      45App    2.811427    46App    2.889890    61Ap     2.890014
      62Ap     2.894946    47App    2.929431    63Ap     2.929562
      48App    2.958995    49App    2.963979    64Ap     2.964771
      65Ap     3.034016    66Ap     3.071176    50App    3.071392
      51App    3.084359    67Ap     3.168682    52App    3.168822
      68Ap     3.180648    69Ap     3.285001    53App    3.285630
      70Ap     3.327136    54App    3.327182    71Ap     3.375623
      55App    3.489964    72Ap     3.490340    56App    3.514013
      73Ap     3.525319    74Ap     3.568388    57App    3.568415
      58App    3.575168    59App    3.666362    75Ap     3.666413
      76Ap     3.679593    77Ap     3.693913    60App    3.694378
      61App    3.776654    78Ap     3.776955    79Ap     3.789132
      62App    3.911587    80Ap     3.912874    81Ap     4.034451
      63App    4.110754    82Ap     4.111950    83Ap     4.147801
      64App    4.148372    84Ap     4.173227    85Ap     4.201526
      65App    4.203284    86Ap     4.203895    66App    4.210995
      67App    4.314399    87Ap     4.317563    68App    4.358979
      69App    4.423793    88Ap     4.425073    70App    4.443506
      71App    4.515499    89Ap     4.518190    90Ap     4.578184
      72App    4.578378    91Ap     4.617538    92Ap     4.709452
      73App    4.774448    93Ap     4.774732    74App    4.836893
      94Ap     4.962839    75App    5.002909    95Ap     5.003009
      96Ap     5.228013    76App    5.244537    97Ap     5.249079
      77App    5.354231    98Ap     5.356831    78App    5.479373

    Beta Occupied:

       1Ap   -10.167796     1App  -10.167774     2Ap   -10.167754
       3Ap   -10.166519     4Ap    -0.781091     2App   -0.684023
       5Ap    -0.683958     6Ap    -0.511750     7Ap    -0.431144
       3App   -0.430944     8Ap    -0.421818     4App   -0.376748
       9Ap    -0.376618     5App   -0.362596    10Ap    -0.333306
       6App   -0.332937

    Beta Virtual:

      11Ap    -0.025743    12Ap     0.077080     7App    0.134885
      13Ap     0.135202     8App    0.144415    14Ap     0.144580
      15Ap     0.163337     9App    0.182416    16Ap     0.182486
      10App    0.215033    17Ap     0.218929    11App    0.282195
      18Ap     0.282473    19Ap     0.400370    12App    0.400425
      20Ap     0.419791    13App    0.426779    21Ap     0.427038
      22Ap     0.468500    23Ap     0.497526    14App    0.497774
      15App    0.513895    24Ap     0.556324    16App    0.584170
      25Ap     0.584564    17App    0.597702    26Ap     0.597915
      27Ap     0.610002    28Ap     0.628139    18App    0.631910
      19App    0.639288    29Ap     0.639800    20App    0.666569
      30Ap     0.667391    31Ap     0.686327    21App    0.686654
      32Ap     0.757518    33Ap     0.830495    22App    0.830649
      23App    0.855275    24App    0.922776    34Ap     0.923215
      25App    0.945961    35Ap     0.953545    26App    0.966465
      36Ap     0.966735    37Ap     1.008691    27App    1.132085
      38Ap     1.132190    39Ap     1.155566    28App    1.167880
      40Ap     1.168834    41Ap     1.232298    29App    1.279623
      42Ap     1.280471    43Ap     1.285194    30App    1.329247
      44Ap     1.329446    45Ap     1.365385    31App    1.371189
      46Ap     1.371397    32App    1.393511    33App    1.407147
      47Ap     1.407927    48Ap     1.421744    34App    1.422555
      35App    1.428185    36App    1.492533    49Ap     1.509519
      37App    1.546712    50Ap     1.547777    38App    1.582262
      51Ap     1.582372    52Ap     1.674657    53Ap     1.745136
      39App    1.745183    54Ap     1.779134    55Ap     1.833966
      40App    1.836559    41App    1.972586    42App    2.024435
      56Ap     2.026440    57Ap     2.039709    43App    2.057777
      58Ap     2.060943    44App    2.746518    59Ap     2.747121
      45App    2.811838    60Ap     2.816061    61Ap     2.902633
      46App    2.902652    62Ap     2.924647    47App    2.931894
      63Ap     2.932057    48App    2.960058    49App    2.968495
      64Ap     2.969348    65Ap     3.041950    66Ap     3.081186
      50App    3.081197    51App    3.086181    67Ap     3.184223
      52App    3.184669    68Ap     3.188441    69Ap     3.289762
      53App    3.290465    70Ap     3.330910    54App    3.331018
      71Ap     3.383441    55App    3.492631    72Ap     3.493132
      56App    3.512384    73Ap     3.528365    57App    3.574978
      74Ap     3.581701    58App    3.581823    59App    3.671087
      75Ap     3.671175    76Ap     3.692920    77Ap     3.725496
      60App    3.726036    61App    3.781072    78Ap     3.781593
      79Ap     3.817673    62App    3.921476    80Ap     3.922617
      81Ap     4.045338    63App    4.117487    82Ap     4.118844
      83Ap     4.154984    64App    4.155623    84Ap     4.187263
      85Ap     4.208109    65App    4.209256    86Ap     4.211185
      66App    4.215482    67App    4.321811    87Ap     4.325030
      68App    4.362342    69App    4.432019    88Ap     4.433255
      70App    4.446409    71App    4.523292    89Ap     4.525977
      90Ap     4.588790    72App    4.588975    91Ap     4.624731
      92Ap     4.719796    73App    4.781380    93Ap     4.781707
      74App    4.839811    94Ap     4.967634    75App    5.006952
      95Ap     5.007046    96Ap     5.233727    76App    5.246339
      97Ap     5.250845    77App    5.360681    98Ap     5.363343
      78App    5.481694

    Final Occupation by Irrep:
             Ap   App
    DOCC [    10,    6 ]
    SOCC [     1,    0 ]

  @DF-UKS Final Energy:  -157.81306123400779

   => Energetics <=

    Nuclear Repulsion Energy =            125.3946350125181937
    One-Electron Energy =                -458.7489096521275087
    Two-Electron Energy =                 195.8483585856926936
    DFT Exchange-Correlation Energy =     -20.3071451800911404
    Empirical Dispersion Energy =           0.0000000000000000
    VV10 Nonlocal Energy =                  0.0000000000000000
    Total Energy =                       -157.8130612340077903

  UHF NO Occupations:
  HONO-2 :    9 Ap 1.9996009
  HONO-1 :   10 Ap 1.9989805
  HONO-0 :   11 Ap 1.0000000
  LUNO+0 :   12 Ap 0.0010195
  LUNO+1 :   13 Ap 0.0003991
  LUNO+2 :    7App 0.0001979
  LUNO+3 :   14 Ap 0.0001972

Computation Completed

Properties will be evaluated at   0.000000,   0.000000,   0.000000 [a0]

Properties computed using the SCF density matrix

  Nuclear Dipole Moment: [e a0]
     X:     0.8272      Y:     0.0050      Z:     0.0000

  Electronic Dipole Moment: [e a0]
     X:    -0.7493      Y:    -0.0057      Z:     0.0000

  Dipole Moment: [e a0]
     X:     0.0779      Y:    -0.0007      Z:     0.0000     Total:     0.0779

  Dipole Moment: [D]
     X:     0.1980      Y:    -0.0018      Z:     0.0000     Total:     0.1981

*** tstop() called on n079 at Fri Nov  5 12:57:08 2021
Module time:
	user time   =     494.90 seconds =       8.25 minutes
	system time =       4.59 seconds =       0.08 minutes
	total time  =        126 seconds =       2.10 minutes
Total time:
	user time   =     494.90 seconds =       8.25 minutes
	system time =       4.59 seconds =       0.08 minutes
	total time  =        126 seconds =       2.10 minutes
Grab this energy -157.8130612340078
    Psi4 stopped on: Friday, 05 November 2021 12:57PM
    Psi4 wall time for execution: 0:02:05.61

*** Psi4 exiting successfully. Buy a developer a beer!
