                               Psi4 1.4a2.dev629

  ==> Input File <==

--------------------------------------------------------------------------
import os
memory 14 GB

molecule {
 C   -0.3215609078   -0.0000023246    0.0002559088
 C    0.0634755109   -1.4004125776   -2.4263442965
 C    0.0615786451    2.8015010744   -0.0007695912
 C    0.0599229316   -1.4010851986    2.4259696617
 H    2.0864286792   -1.6472148955   -2.8526087143
 H   -0.7664386780   -0.3863540779   -4.0228376426
 H   -0.7664658806   -3.2907638936   -2.3459280809
 H    2.0864631869    3.2941340884    0.0002328613
 H   -0.7659180307    3.6769816255    1.6772233623
 H   -0.7661910326    3.6770686266   -1.6768968989
 H    2.0867780997   -1.6470104372    2.8527205664
 H   -0.7654903696   -3.2909736379    2.3458931689
 H   -0.7651900309   -0.3858926856    4.0230896950
units bohr
0 2
}

basis {

assign 6-31g_2dfp_

[ 6-31g_2dfp_ ]

spherical

!----------------------------------------------------------------------
! Basis Set Exchange
! Version v0.8.13
! https://www.basissetexchange.org
!----------------------------------------------------------------------
!   Basis set: 6-31G(2df,p)
! Description: 6-31G(2df,p)
!        Role: orbital
!     Version: 0  (Data from the original Basis Set Exchange)
!----------------------------------------------------------------------

****
H     0
S    3   1.00
     18.7311370              0.03349460
      2.8253937              0.23472695
      0.6401217              0.81375733
S    1   1.00
      0.1612778              1.00000000
P    1   1.00
      1.5000000              1.0000000
P    1   1.00
      0.3750000              1.0000000
****
B     0
S    6   1.00
   2068.8823000              0.0018663
    310.6495700              0.0142515
     70.6830330              0.0695516
     19.8610800              0.2325729
      6.2993048              0.4670787
      2.1270270              0.3634314
SP   3   1.00
      4.7279710             -0.1303938              0.0745976
      1.1903377             -0.1307889              0.3078467
      0.3594117              1.1309444              0.7434568
SP   1   1.00
      0.1267512              1.0000000              1.0000000
D    1   1.00
      0.8020000              1.0000000
D    1   1.00
      0.2005000              1.0000000
F    1   1.00
      0.5000000              1.0000000
****
C     0
S    6   1.00
   3047.5249000              0.0018347
    457.3695100              0.0140373
    103.9486900              0.0688426
     29.2101550              0.2321844
      9.2866630              0.4679413
      3.1639270              0.3623120
SP   3   1.00
      7.8682724             -0.1193324              0.0689991
      1.8812885             -0.1608542              0.3164240
      0.5442493              1.1434564              0.7443083
SP   1   1.00
      0.1687144              1.0000000              1.0000000
D    1   1.00
      1.2520000              1.0000000
D    1   1.00
      0.3130000              1.0000000
F    1   1.00
      0.8000000              1.0000000
****
N     0
S    6   1.00
   4173.5110000              0.0018348
    627.4579000              0.0139950
    142.9021000              0.0685870
     40.2343300              0.2322410
     12.8202100              0.4690700
      4.3904370              0.3604550
SP   3   1.00
     11.6263580             -0.1149610              0.0675800
      2.7162800             -0.1691180              0.3239070
      0.7722180              1.1458520              0.7408950
SP   1   1.00
      0.2120313              1.0000000              1.0000000
D    1   1.00
      1.8260000              1.0000000
D    1   1.00
      0.4565000              1.0000000
F    1   1.00
      1.0000000              1.0000000
****
O     0
S    6   1.00
   5484.6717000              0.0018311
    825.2349500              0.0139501
    188.0469600              0.0684451
     52.9645000              0.2327143
     16.8975700              0.4701930
      5.7996353              0.3585209
SP   3   1.00
     15.5396160             -0.1107775              0.0708743
      3.5999336             -0.1480263              0.3397528
      1.0137618              1.1307670              0.7271586
SP   1   1.00
      0.2700058              1.0000000              1.0000000
D    1   1.00
      2.5840000              1.0000000
D    1   1.00
      0.6460000              1.0000000
F    1   1.00
      1.4000000              1.0000000
****
F     0
S    6   1.00
   7001.7130900              0.0018196169
   1051.3660900              0.0139160796
    239.2856900              0.0684053245
     67.3974453              0.233185760
     21.5199573              0.471267439
      7.40310130             0.356618546
SP   3   1.00
     20.8479528             -0.108506975            0.0716287243
      4.80830834            -0.146451658            0.3459121030
      1.34406986             1.128688580            0.7224699570
SP   1   1.00
      0.358151393            1.0000000              1.0000000
D    1   1.00
      3.5000000              1.0000000
D    1   1.00
      0.8750000              1.0000000
F    1   1.00
      1.8500000              1.0000000
****
Al     0
S    6   1.00
  13983.1000000              0.00194267
   2098.7500000              0.0148599
    477.7050000              0.0728494
    134.3600000              0.2468300
     42.8709000              0.4872580
     14.5189000              0.3234960
SP   6   1.00
    239.6680000             -0.00292619             0.00460285
     57.4419000             -0.0374080              0.0331990
     18.2859000             -0.1144870              0.1362820
      6.5991400              0.1156350              0.3304760
      2.4904900              0.6125950              0.4491460
      0.9445400              0.3937990              0.2657040
SP   3   1.00
      1.2779000             -0.2276060             -0.0175130
      0.3975900              0.00144583             0.2445330
      0.1600950              1.0927900              0.8049340
SP   1   1.00
      0.0556577              1.0000000              1.0000000
D    1   1.00
      0.6500000              1.0000000
D    1   1.00
      0.1625000              1.0000000
F    1   1.00
      0.2500000              1.0000000
****
Si     0
S    6   1.00
  16115.9000000              0.00195948
   2425.5800000              0.01492880
    553.8670000              0.07284780
    156.3400000              0.24613000
     50.0683000              0.48591400
     17.0178000              0.32500200
SP   6   1.00
    292.7180000             -0.00278094             0.00443826
     69.8731000             -0.03571460             0.03266790
     22.3363000             -0.11498500             0.13472100
      8.1503900              0.09356340             0.32867800
      3.1345800              0.60301700             0.44964000
      1.2254300              0.41895900             0.26137200
SP   3   1.00
      1.7273800             -0.24463000            -0.01779510
      0.5729220              0.00431572             0.25353900
      0.2221920              1.09818000             0.80066900
SP   1   1.00
      0.0778369              1.00000000             1.00000000
D    1   1.00
      0.9000000              1.0000000
D    1   1.00
      0.2250000              1.0000000
F    1   1.00
      0.3200000              1.0000000
****
P     0
S    6   1.00
  19413.3000000              0.0018516
   2909.4200000              0.0142062
    661.3640000              0.0699995
    185.7590000              0.2400790
     59.1943000              0.4847620
     20.0310000              0.3352000
SP   6   1.00
    339.4780000             -0.00278217             0.00456462
     81.0101000             -0.0360499              0.03369360
     25.8780000             -0.1166310              0.13975500
      9.4522100              0.0968328              0.33936200
      3.6656600              0.6144180              0.45092100
      1.4674600              0.4037980              0.23858600
SP   3   1.00
      2.1562300             -0.2529230             -0.01776530
      0.7489970              0.0328517              0.27405800
      0.2831450              1.0812500              0.78542100
SP   1   1.00
      0.0998317              1.0000000              1.00000000
D    1   1.00
      1.1000000              1.0000000
D    1   1.00
      0.2750000              1.0000000
F    1   1.00
      0.4500000              1.0000000
****
S     0
S    6   1.00
  21917.1000000              0.0018690
   3301.4900000              0.0142300
    754.1460000              0.0696960
    212.7110000              0.2384870
     67.9896000              0.4833070
     23.0515000              0.3380740
SP   6   1.00
    423.7350000             -0.0023767              0.0040610
    100.7100000             -0.0316930              0.0306810
     32.1599000             -0.1133170              0.1304520
     11.8079000              0.0560900              0.3272050
      4.6311000              0.5922550              0.4528510
      1.8702500              0.4550060              0.2560420
SP   3   1.00
      2.6158400             -0.2503740             -0.0145110
      0.9221670              0.0669570              0.3102630
      0.3412870              1.0545100              0.7544830
SP   1   1.00
      0.1171670              1.0000000              1.0000000
D    1   1.00
      1.3000000              1.0000000
D    1   1.00
      0.3250000              1.0000000
F    1   1.00
      0.5500000              1.0000000
****
Cl     0
S    6   1.00
  25180.1000000              0.0018330
   3780.3500000              0.0140340
    860.4740000              0.0690970
    242.1450000              0.2374520
     77.3349000              0.4830340
     26.2470000              0.3398560
SP   6   1.00
    491.7650000             -0.0022974              0.0039894
    116.9840000             -0.0307140              0.0303180
     37.4153000             -0.1125280              0.1298800
     13.7834000              0.0450160              0.3279510
      5.4521500              0.5893530              0.4535270
      2.2258800              0.4652060              0.2521540
SP   3   1.00
      3.1864900             -0.2518300             -0.0142990
      1.1442700              0.0615890              0.3235720
      0.4203770              1.0601800              0.7435070
SP   1   1.00
      0.1426570              1.0000000              1.0000000
D    1   1.00
      1.5000000              1.0000000
D    1   1.00
      0.3750000              1.0000000
F    1   1.00
      0.7000000              1.0000000
****
}

set {
reference uhf
freeze_core true
e_convergence 10
d_convergence 10
dft_spherical_points 1202
dft_radial_points 99
}

e = energy('b3lyp')

print_out('Grab this energy {0}'.format(e))
--------------------------------------------------------------------------

    Molecular point group: c1

    Geometry (in Bohr), charge = 0, multiplicity = 2:

       Center              X                  Y                   Z               Mass
    ------------   -----------------  -----------------  -----------------  -----------------
         C           -0.322226590002    -0.000002082761     0.000427005091    12.000000000000
         C            0.062809828698    -1.400412335761    -2.426173200209    12.000000000000
         C            0.060912962898     2.801501316239    -0.000598494909    12.000000000000
         C            0.059257249398    -1.401084956761     2.426140757991    12.000000000000
         H            2.085762996998    -1.647214653661    -2.852437618009     1.007825032230
         H           -0.767104360202    -0.386353836061    -4.022666546309     1.007825032230
         H           -0.767131562802    -3.290763651761    -2.345756984609     1.007825032230
         H            2.085797504698     3.294134330239     0.000403957591     1.007825032230
         H           -0.766583712902     3.676981867339     1.677394458591     1.007825032230
         H           -0.766856714802     3.677068868439    -1.676725802609     1.007825032230
         H            2.086112417498    -1.647010195361     2.852891662691     1.007825032230
         H           -0.766156051802    -3.290973396061     2.346064265191     1.007825032230
         H           -0.765855713102    -0.385892443761     4.023260791291     1.007825032230

  Charge       = 0
  Multiplicity = 2
  Basis Set: ANONYMOUSC8392E38
    Blend: 6-31G_2DFP_
  Basis Set: (ANONYMOUSC8392E38 AUX)
    Blend: DEF2-UNIVERSAL-JKFIT

    Orbital Energies [Eh]
    ---------------------

    Alpha Occupied:

       1A    -10.180329     2A    -10.167004     3A    -10.166974
       4A    -10.166928     5A     -0.797831     6A     -0.686257
       7A     -0.686191     8A     -0.530788     9A     -0.440956
      10A     -0.434983    11A     -0.434781    12A     -0.382598
      13A     -0.382296    14A     -0.363750    15A     -0.338106
      16A     -0.337935    17A     -0.169050

    Alpha Virtual:

      18A      0.076108    19A      0.134073    20A      0.134140
      21A      0.142633    22A      0.142758    23A      0.155084
      24A      0.178630    25A      0.178856    26A      0.203679
      27A      0.215024    28A      0.275970    29A      0.276079
      30A      0.399296    31A      0.399611    32A      0.403273
      33A      0.423897    34A      0.423992    35A      0.456829
      36A      0.495336    37A      0.495394    38A      0.511972
      39A      0.514037    40A      0.578874    41A      0.579054
      42A      0.591334    43A      0.591567    44A      0.602340
      45A      0.624825    46A      0.632027    47A      0.636231
      48A      0.636447    49A      0.663521    50A      0.663859
      51A      0.683619    52A      0.683916    53A      0.735077
      54A      0.825292    55A      0.825319    56A      0.854261
      57A      0.915154    58A      0.915195    59A      0.943815
      60A      0.944350    61A      0.960930    62A      0.961087
      63A      1.004178    64A      1.128462    65A      1.128673
      66A      1.141614    67A      1.163723    68A      1.163912
      69A      1.223254    70A      1.274323    71A      1.274606
      72A      1.279587    73A      1.324374    74A      1.324878
      75A      1.355570    76A      1.366082    77A      1.366687
      78A      1.392258    79A      1.403653    80A      1.403881
      81A      1.416669    82A      1.417275    83A      1.428525
      84A      1.492093    85A      1.498763    86A      1.542849
      87A      1.542931    88A      1.573682    89A      1.573987
      90A      1.669896    91A      1.738879    92A      1.739686
      93A      1.768180    94A      1.831474    95A      1.831872
      96A      1.971834    97A      2.018054    98A      2.019304
      99A      2.020524   100A      2.052739   101A      2.053482
     102A      2.738031   103A      2.738110   104A      2.791153
     105A      2.811942   106A      2.889840   107A      2.890387
     108A      2.895193   109A      2.929921   110A      2.929982
     111A      2.959058   112A      2.964324   113A      2.964535
     114A      3.034476   115A      3.070679   116A      3.070922
     117A      3.084007   118A      3.168592   119A      3.168837
     120A      3.180749   121A      3.284879   122A      3.284950
     123A      3.328106   124A      3.328423   125A      3.375326
     126A      3.489361   127A      3.489988   128A      3.514232
     129A      3.525491   130A      3.568815   131A      3.569035
     132A      3.576011   133A      3.666050   134A      3.666637
     135A      3.680734   136A      3.693591   137A      3.693612
     138A      3.777916   139A      3.778008   140A      3.787806
     141A      3.912255   142A      3.912415   143A      4.033349
     144A      4.111383   145A      4.111587   146A      4.147852
     147A      4.147950   148A      4.173175   149A      4.202224
     150A      4.203705   151A      4.204053   152A      4.211344
     153A      4.315864   154A      4.316704   155A      4.360128
     156A      4.423821   157A      4.424075   158A      4.444433
     159A      4.516612   160A      4.518711   161A      4.579057
     162A      4.579468   163A      4.618007   164A      4.709767
     165A      4.774439   166A      4.775460   167A      4.835903
     168A      4.963381   169A      5.002379   170A      5.003286
     171A      5.228415   172A      5.246729   173A      5.246766
     174A      5.355809   175A      5.356355   176A      5.479608

    Beta Occupied:

       1A    -10.167761     2A    -10.167731     3A    -10.167696
       4A    -10.166512     5A     -0.781159     6A     -0.684058
       7A     -0.683992     8A     -0.511756     9A     -0.431352
      10A     -0.431139    11A     -0.421657    12A     -0.376682
      13A     -0.376362    14A     -0.362728    15A     -0.333234
      16A     -0.333060

    Beta Virtual:

      17A     -0.025908    18A      0.077113    19A      0.134987
      20A      0.135036    21A      0.144518    22A      0.144635
      23A      0.163593    24A      0.182292    25A      0.182523
      26A      0.215255    27A      0.219023    28A      0.282310
      29A      0.282413    30A      0.400471    31A      0.400789
      32A      0.419737    33A      0.426700    34A      0.426801
      35A      0.468816    36A      0.497615    37A      0.497666
      38A      0.513712    39A      0.556297    40A      0.584452
      41A      0.584622    42A      0.597480    43A      0.597724
      44A      0.609784    45A      0.628203    46A      0.632187
      47A      0.639509    48A      0.639727    49A      0.667124
      50A      0.667431    51A      0.686233    52A      0.686535
      53A      0.757564    54A      0.830479    55A      0.830501
      56A      0.855617    57A      0.923172    58A      0.923211
      59A      0.946186    60A      0.952825    61A      0.966202
      62A      0.966373    63A      1.009447    64A      1.132455
      65A      1.132740    66A      1.154779    67A      1.168835
      68A      1.168930    69A      1.232325    70A      1.279934
      71A      1.280227    72A      1.285408    73A      1.329393
      74A      1.329917    75A      1.364926    76A      1.371317
      77A      1.371924    78A      1.393330    79A      1.407120
      80A      1.407375    81A      1.421683    82A      1.422257
      83A      1.428797    84A      1.493130    85A      1.509184
      86A      1.547262    87A      1.547322    88A      1.581620
      89A      1.581814    90A      1.674745    91A      1.744650
      92A      1.745443    93A      1.778975    94A      1.835327
      95A      1.835725    96A      1.972701    97A      2.025692
      98A      2.026962    99A      2.039486   100A      2.059464
     101A      2.060154   102A      2.746383   103A      2.746452
     104A      2.812359   105A      2.816293   106A      2.902471
     107A      2.902999   108A      2.924890   109A      2.932418
     110A      2.932474   111A      2.960123   112A      2.968911
     113A      2.969113   114A      3.042403   115A      3.080578
     116A      3.080808   117A      3.085835   118A      3.184355
     119A      3.184556   120A      3.188451   121A      3.289663
     122A      3.289717   123A      3.331873   124A      3.332216
     125A      3.383118   126A      3.492159   127A      3.492783
     128A      3.512605   129A      3.528500   130A      3.575855
     131A      3.582160   132A      3.582252   133A      3.670763
     134A      3.671238   135A      3.693974   136A      3.725243
     137A      3.725545   138A      3.782519   139A      3.782586
     140A      3.816376   141A      3.922008   142A      3.922200
     143A      4.044289   144A      4.118344   145A      4.118441
     146A      4.154933   147A      4.155123   148A      4.187204
     149A      4.209518   150A      4.209853   151A      4.210427
     152A      4.215847   153A      4.323297   154A      4.324185
     155A      4.363514   156A      4.432051   157A      4.432285
     158A      4.447292   159A      4.524394   160A      4.526484
     161A      4.589696   162A      4.590077   163A      4.625123
     164A      4.720217   165A      4.781397   166A      4.782381
     167A      4.838823   168A      4.968173   169A      5.006452
     170A      5.007323   171A      5.234116   172A      5.248516
     173A      5.248554   174A      5.362292   175A      5.362835
     176A      5.481934

    Final Occupation by Irrep:
              A
    DOCC [    16 ]
    SOCC [     1 ]

  @DF-UKS Final Energy:  -157.81307677813783

   => Energetics <=

    Nuclear Repulsion Energy =            125.4062177940499652
    One-Electron Energy =                -458.7715526168281031
    Two-Electron Energy =                 195.8597441673477988
    DFT Exchange-Correlation Energy =     -20.3074861227074877
    Empirical Dispersion Energy =           0.0000000000000000
    VV10 Nonlocal Energy =                  0.0000000000000000
    Total Energy =                       -157.8130767781378268

  UHF NO Occupations:
  HONO-2 :   15  A 1.9995995
  HONO-1 :   16  A 1.9989824
  HONO-0 :   17  A 1.0000000
  LUNO+0 :   18  A 0.0010176
  LUNO+1 :   19  A 0.0004005
  LUNO+2 :   20  A 0.0001974
  LUNO+3 :   21  A 0.0001971

Computation Completed

Properties will be evaluated at   0.000000,   0.000000,   0.000000 [a0]

Properties computed using the SCF density matrix

  Nuclear Dipole Moment: [e a0]
     X:     0.8225      Y:    -0.0000      Z:     0.0012

  Electronic Dipole Moment: [e a0]
     X:    -0.7450      Y:     0.0000      Z:    -0.0011

  Dipole Moment: [e a0]
     X:     0.0775      Y:     0.0000      Z:     0.0001     Total:     0.0775

  Dipole Moment: [D]
     X:     0.1970      Y:     0.0000      Z:     0.0003     Total:     0.1970

*** tstop() called on n080 at Fri Nov  5 12:23:38 2021
Module time:
	user time   =     496.35 seconds =       8.27 minutes
	system time =       4.55 seconds =       0.08 minutes
	total time  =        126 seconds =       2.10 minutes
Total time:
	user time   =     496.35 seconds =       8.27 minutes
	system time =       4.55 seconds =       0.08 minutes
	total time  =        126 seconds =       2.10 minutes
Grab this energy -157.81307677813783
    Psi4 stopped on: Friday, 05 November 2021 12:23PM
    Psi4 wall time for execution: 0:02:06.03

*** Psi4 exiting successfully. Buy a developer a beer!
