                               Psi4 1.4a2.dev629

  ==> Input File <==

--------------------------------------------------------------------------
import os
memory 14 GB

molecule {
 C   -0.3201728452    0.0004920712    0.0000000000
 C    0.0624183882   -1.4005423775   -2.4258706701
 C    0.0624413967    2.8024369331    0.0000000000
 C    0.0624183882   -1.4005423775    2.4258706701
 H    2.0886981084   -1.6438601915   -2.8469836184
 H   -0.7675988593   -0.3871036802   -4.0262107998
 H   -0.7676032923   -3.2941111708   -2.3488424266
 H    2.0822840390    3.2883327325   -0.0000000000
 H   -0.7644945787    3.6799743947    1.6720577627
 H   -0.7644945787    3.6799743947   -1.6720577627
 H    2.0886981084   -1.6438601915    2.8469836184
 H   -0.7676032923   -3.2941111708    2.3488424266
 H   -0.7675988593   -0.3871036802    4.0262107998
units bohr
0 2
}

basis {

assign 6-31g_2dfp_

[ 6-31g_2dfp_ ]

spherical

!----------------------------------------------------------------------
! Basis Set Exchange
! Version v0.8.13
! https://www.basissetexchange.org
!----------------------------------------------------------------------
!   Basis set: 6-31G(2df,p)
! Description: 6-31G(2df,p)
!        Role: orbital
!     Version: 0  (Data from the original Basis Set Exchange)
!----------------------------------------------------------------------

****
H     0
S    3   1.00
     18.7311370              0.03349460
      2.8253937              0.23472695
      0.6401217              0.81375733
S    1   1.00
      0.1612778              1.00000000
P    1   1.00
      1.5000000              1.0000000
P    1   1.00
      0.3750000              1.0000000
****
B     0
S    6   1.00
   2068.8823000              0.0018663
    310.6495700              0.0142515
     70.6830330              0.0695516
     19.8610800              0.2325729
      6.2993048              0.4670787
      2.1270270              0.3634314
SP   3   1.00
      4.7279710             -0.1303938              0.0745976
      1.1903377             -0.1307889              0.3078467
      0.3594117              1.1309444              0.7434568
SP   1   1.00
      0.1267512              1.0000000              1.0000000
D    1   1.00
      0.8020000              1.0000000
D    1   1.00
      0.2005000              1.0000000
F    1   1.00
      0.5000000              1.0000000
****
C     0
S    6   1.00
   3047.5249000              0.0018347
    457.3695100              0.0140373
    103.9486900              0.0688426
     29.2101550              0.2321844
      9.2866630              0.4679413
      3.1639270              0.3623120
SP   3   1.00
      7.8682724             -0.1193324              0.0689991
      1.8812885             -0.1608542              0.3164240
      0.5442493              1.1434564              0.7443083
SP   1   1.00
      0.1687144              1.0000000              1.0000000
D    1   1.00
      1.2520000              1.0000000
D    1   1.00
      0.3130000              1.0000000
F    1   1.00
      0.8000000              1.0000000
****
N     0
S    6   1.00
   4173.5110000              0.0018348
    627.4579000              0.0139950
    142.9021000              0.0685870
     40.2343300              0.2322410
     12.8202100              0.4690700
      4.3904370              0.3604550
SP   3   1.00
     11.6263580             -0.1149610              0.0675800
      2.7162800             -0.1691180              0.3239070
      0.7722180              1.1458520              0.7408950
SP   1   1.00
      0.2120313              1.0000000              1.0000000
D    1   1.00
      1.8260000              1.0000000
D    1   1.00
      0.4565000              1.0000000
F    1   1.00
      1.0000000              1.0000000
****
O     0
S    6   1.00
   5484.6717000              0.0018311
    825.2349500              0.0139501
    188.0469600              0.0684451
     52.9645000              0.2327143
     16.8975700              0.4701930
      5.7996353              0.3585209
SP   3   1.00
     15.5396160             -0.1107775              0.0708743
      3.5999336             -0.1480263              0.3397528
      1.0137618              1.1307670              0.7271586
SP   1   1.00
      0.2700058              1.0000000              1.0000000
D    1   1.00
      2.5840000              1.0000000
D    1   1.00
      0.6460000              1.0000000
F    1   1.00
      1.4000000              1.0000000
****
F     0
S    6   1.00
   7001.7130900              0.0018196169
   1051.3660900              0.0139160796
    239.2856900              0.0684053245
     67.3974453              0.233185760
     21.5199573              0.471267439
      7.40310130             0.356618546
SP   3   1.00
     20.8479528             -0.108506975            0.0716287243
      4.80830834            -0.146451658            0.3459121030
      1.34406986             1.128688580            0.7224699570
SP   1   1.00
      0.358151393            1.0000000              1.0000000
D    1   1.00
      3.5000000              1.0000000
D    1   1.00
      0.8750000              1.0000000
F    1   1.00
      1.8500000              1.0000000
****
Al     0
S    6   1.00
  13983.1000000              0.00194267
   2098.7500000              0.0148599
    477.7050000              0.0728494
    134.3600000              0.2468300
     42.8709000              0.4872580
     14.5189000              0.3234960
SP   6   1.00
    239.6680000             -0.00292619             0.00460285
     57.4419000             -0.0374080              0.0331990
     18.2859000             -0.1144870              0.1362820
      6.5991400              0.1156350              0.3304760
      2.4904900              0.6125950              0.4491460
      0.9445400              0.3937990              0.2657040
SP   3   1.00
      1.2779000             -0.2276060             -0.0175130
      0.3975900              0.00144583             0.2445330
      0.1600950              1.0927900              0.8049340
SP   1   1.00
      0.0556577              1.0000000              1.0000000
D    1   1.00
      0.6500000              1.0000000
D    1   1.00
      0.1625000              1.0000000
F    1   1.00
      0.2500000              1.0000000
****
Si     0
S    6   1.00
  16115.9000000              0.00195948
   2425.5800000              0.01492880
    553.8670000              0.07284780
    156.3400000              0.24613000
     50.0683000              0.48591400
     17.0178000              0.32500200
SP   6   1.00
    292.7180000             -0.00278094             0.00443826
     69.8731000             -0.03571460             0.03266790
     22.3363000             -0.11498500             0.13472100
      8.1503900              0.09356340             0.32867800
      3.1345800              0.60301700             0.44964000
      1.2254300              0.41895900             0.26137200
SP   3   1.00
      1.7273800             -0.24463000            -0.01779510
      0.5729220              0.00431572             0.25353900
      0.2221920              1.09818000             0.80066900
SP   1   1.00
      0.0778369              1.00000000             1.00000000
D    1   1.00
      0.9000000              1.0000000
D    1   1.00
      0.2250000              1.0000000
F    1   1.00
      0.3200000              1.0000000
****
P     0
S    6   1.00
  19413.3000000              0.0018516
   2909.4200000              0.0142062
    661.3640000              0.0699995
    185.7590000              0.2400790
     59.1943000              0.4847620
     20.0310000              0.3352000
SP   6   1.00
    339.4780000             -0.00278217             0.00456462
     81.0101000             -0.0360499              0.03369360
     25.8780000             -0.1166310              0.13975500
      9.4522100              0.0968328              0.33936200
      3.6656600              0.6144180              0.45092100
      1.4674600              0.4037980              0.23858600
SP   3   1.00
      2.1562300             -0.2529230             -0.01776530
      0.7489970              0.0328517              0.27405800
      0.2831450              1.0812500              0.78542100
SP   1   1.00
      0.0998317              1.0000000              1.00000000
D    1   1.00
      1.1000000              1.0000000
D    1   1.00
      0.2750000              1.0000000
F    1   1.00
      0.4500000              1.0000000
****
S     0
S    6   1.00
  21917.1000000              0.0018690
   3301.4900000              0.0142300
    754.1460000              0.0696960
    212.7110000              0.2384870
     67.9896000              0.4833070
     23.0515000              0.3380740
SP   6   1.00
    423.7350000             -0.0023767              0.0040610
    100.7100000             -0.0316930              0.0306810
     32.1599000             -0.1133170              0.1304520
     11.8079000              0.0560900              0.3272050
      4.6311000              0.5922550              0.4528510
      1.8702500              0.4550060              0.2560420
SP   3   1.00
      2.6158400             -0.2503740             -0.0145110
      0.9221670              0.0669570              0.3102630
      0.3412870              1.0545100              0.7544830
SP   1   1.00
      0.1171670              1.0000000              1.0000000
D    1   1.00
      1.3000000              1.0000000
D    1   1.00
      0.3250000              1.0000000
F    1   1.00
      0.5500000              1.0000000
****
Cl     0
S    6   1.00
  25180.1000000              0.0018330
   3780.3500000              0.0140340
    860.4740000              0.0690970
    242.1450000              0.2374520
     77.3349000              0.4830340
     26.2470000              0.3398560
SP   6   1.00
    491.7650000             -0.0022974              0.0039894
    116.9840000             -0.0307140              0.0303180
     37.4153000             -0.1125280              0.1298800
     13.7834000              0.0450160              0.3279510
      5.4521500              0.5893530              0.4535270
      2.2258800              0.4652060              0.2521540
SP   3   1.00
      3.1864900             -0.2518300             -0.0142990
      1.1442700              0.0615890              0.3235720
      0.4203770              1.0601800              0.7435070
SP   1   1.00
      0.1426570              1.0000000              1.0000000
D    1   1.00
      1.5000000              1.0000000
D    1   1.00
      0.3750000              1.0000000
F    1   1.00
      0.7000000              1.0000000
****
}

set {
reference uhf
freeze_core true
e_convergence 10
d_convergence 10
dft_spherical_points 1202
dft_radial_points 99
}

e = energy('b3lyp')

print_out('Grab this energy {0}'.format(e))
--------------------------------------------------------------------------

    Molecular point group: cs

    Geometry (in Bohr), charge = 0, multiplicity = 2:

       Center              X                  Y                   Z               Mass
    ------------   -----------------  -----------------  -----------------  -----------------
         C           -0.321549083896     0.000137284867     0.000000000000    12.000000000000
         C            0.061042149504    -1.400897163833    -2.425870670100    12.000000000000
         C            0.061065158004     2.802082146767     0.000000000000    12.000000000000
         C            0.061042149504    -1.400897163833     2.425870670100    12.000000000000
         H            2.087321869704    -1.644214977833    -2.846983618400     1.007825032230
         H           -0.768975097996    -0.387458466533    -4.026210799800     1.007825032230
         H           -0.768979530996    -3.294465957133    -2.348842426600     1.007825032230
         H            2.080907800304     3.287977946167     0.000000000000     1.007825032230
         H           -0.765870817396     3.679619608367     1.672057762700     1.007825032230
         H           -0.765870817396     3.679619608367    -1.672057762700     1.007825032230
         H            2.087321869704    -1.644214977833     2.846983618400     1.007825032230
         H           -0.768979530996    -3.294465957133     2.348842426600     1.007825032230
         H           -0.768975097996    -0.387458466533     4.026210799800     1.007825032230

  Charge       = 0
  Multiplicity = 2
  Basis Set: ANONYMOUS16AEA096
    Blend: 6-31G_2DFP_
  Basis Set: (ANONYMOUS16AEA096 AUX)
    Blend: DEF2-UNIVERSAL-JKFIT

    Orbital Energies [Eh]
    ---------------------

    Alpha Occupied:

       1Ap   -10.180229     1App  -10.167341     2Ap   -10.167311
       3Ap   -10.166320     4Ap    -0.797821     5Ap    -0.686523
       2App   -0.685877     6Ap    -0.530753     7Ap    -0.441360
       3App   -0.434614     8Ap    -0.434439     9Ap    -0.383070
       4App   -0.382624     5App   -0.363330     6App   -0.337980
      10Ap    -0.337918    11Ap    -0.168846

    Alpha Virtual:

      12Ap     0.076054    13Ap     0.134131     7App    0.134149
      14Ap     0.142458     8App    0.142649    15Ap     0.154939
       9App    0.178560    16Ap     0.179211    17Ap     0.203593
      10App    0.214673    18Ap     0.276080    11App    0.276168
      12App    0.399169    19Ap     0.399323    20Ap     0.403384
      21Ap     0.424007    13App    0.424198    22Ap     0.456596
      14App    0.495268    23Ap     0.495409    15App    0.512266
      24Ap     0.513975    16App    0.578609    25Ap     0.578840
      17App    0.591637    26Ap     0.592220    27Ap     0.602902
      28Ap     0.624624    18App    0.631561    29Ap     0.635736
      19App    0.636573    20App    0.663398    30Ap     0.663774
      21App    0.683520    31Ap     0.684152    32Ap     0.735123
      33Ap     0.825181    22App    0.825971    23App    0.853870
      34Ap     0.915186    24App    0.915200    25App    0.944234
      35Ap     0.944628    36Ap     0.960963    26App    0.961445
      37Ap     1.002574    27App    1.127554    38Ap     1.128186
      39Ap     1.142593    40Ap     1.163335    28App    1.163515
      41Ap     1.223742    29App    1.274596    42Ap     1.274954
      43Ap     1.279500    44Ap     1.323885    30App    1.324590
      45Ap     1.357013    31App    1.365438    46Ap     1.365975
      32App    1.392376    33App    1.404288    47Ap     1.405048
      34App    1.417389    48Ap     1.418042    35App    1.428098
      36App    1.491027    49Ap     1.499589    50Ap     1.542365
      37App    1.542492    51Ap     1.574102    38App    1.574654
      52Ap     1.669265    53Ap     1.739521    39App    1.739708
      54Ap     1.768537    40App    1.829487    55Ap     1.832727
      41App    1.971142    56Ap     2.018346    57Ap     2.019430
      42App    2.019467    58Ap     2.053004    43App    2.053084
      59Ap     2.738370    44App    2.739264    60Ap     2.791145
      45App    2.811152    46App    2.889853    61Ap     2.890356
      62Ap     2.894947    63Ap     2.929244    47App    2.929448
      48App    2.958842    49App    2.963900    64Ap     2.964928
      65Ap     3.034063    50App    3.071655    66Ap     3.072145
      51App    3.084321    67Ap     3.168660    52App    3.168940
      68Ap     3.180396    69Ap     3.284901    53App    3.285032
      70Ap     3.326197    54App    3.326271    71Ap     3.375907
      72Ap     3.489523    55App    3.491180    56App    3.514475
      73Ap     3.525184    57App    3.568712    74Ap     3.568865
      58App    3.575649    59App    3.665674    75Ap     3.667026
      76Ap     3.678635    60App    3.693930    77Ap     3.694931
      61App    3.777122    78Ap     3.778268    79Ap     3.790440
      62App    3.911674    80Ap     3.912552    81Ap     4.035612
      63App    4.110218    82Ap     4.111658    83Ap     4.145922
      64App    4.149766    84Ap     4.173448    85Ap     4.201467
      65App    4.202652    86Ap     4.205614    66App    4.211274
      67App    4.315448    87Ap     4.316881    68App    4.358830
      88Ap     4.424837    69App    4.425178    70App    4.442700
      71App    4.516477    89Ap     4.516919    90Ap     4.577756
      72App    4.578644    91Ap     4.618361    92Ap     4.709930
      73App    4.774739    93Ap     4.774949    74App    4.837106
      94Ap     4.962799    75App    5.003090    95Ap     5.004265
      96Ap     5.227916    97Ap     5.243156    76App    5.250410
      77App    5.352058    98Ap     5.358255    78App    5.479946

    Beta Occupied:

       1App  -10.168098     1Ap   -10.168078     2Ap   -10.167082
       3Ap   -10.166401     4Ap    -0.781130     5Ap    -0.684321
       2App   -0.683677     6Ap    -0.511720     3App   -0.430984
       7Ap    -0.430788     8Ap    -0.422065     9Ap    -0.377175
       4App   -0.376712     5App   -0.362312     6App   -0.333099
      10Ap    -0.333051

    Beta Virtual:

      11Ap    -0.025595    12Ap     0.077062    13Ap     0.134934
       7App    0.135062    14Ap     0.144384     8App    0.144481
      15Ap     0.163367     9App    0.182251    16Ap     0.182883
      10App    0.214906    17Ap     0.218997    18Ap     0.282414
      11App    0.282506    12App    0.400330    19Ap     0.400493
      20Ap     0.419771    21Ap     0.426819    13App    0.427016
      22Ap     0.468568    14App    0.497528    23Ap     0.497669
      15App    0.513997    24Ap     0.556367    16App    0.584160
      25Ap     0.584407    17App    0.597822    26Ap     0.598365
      27Ap     0.610295    28Ap     0.628033    18App    0.631750
      29Ap     0.639062    19App    0.639821    20App    0.666921
      30Ap     0.667324    21App    0.686192    31Ap     0.686754
      32Ap     0.757640    33Ap     0.830304    22App    0.831144
      23App    0.855222    34Ap     0.923154    24App    0.923165
      25App    0.946071    35Ap     0.953592    36Ap     0.966317
      26App    0.966740    37Ap     1.007766    27App    1.131670
      38Ap     1.132338    39Ap     1.155959    40Ap     1.168334
      28App    1.168541    41Ap     1.232722    29App    1.280175
      42Ap     1.280536    43Ap     1.285261    44Ap     1.328771
      30App    1.329568    45Ap     1.366437    31App    1.370689
      46Ap     1.371212    32App    1.393423    33App    1.407754
      47Ap     1.408551    34App    1.422408    48Ap     1.423151
      35App    1.428385    36App    1.492072    49Ap     1.510052
      50Ap     1.546623    37App    1.546842    51Ap     1.582081
      38App    1.582615    52Ap     1.674126    53Ap     1.745297
      39App    1.745443    54Ap     1.779307    40App    1.833378
      55Ap     1.836560    41App    1.972007    56Ap     2.025706
      42App    2.025839    57Ap     2.039919    58Ap     2.059641
      43App    2.059835    59Ap     2.746689    44App    2.747610
      45App    2.811564    60Ap     2.816333    46App    2.902608
      61Ap     2.902980    62Ap     2.924706    63Ap     2.931804
      47App    2.931904    48App    2.959906    49App    2.968387
      64Ap     2.969498    65Ap     3.041957    50App    3.081444
      66Ap     3.082087    51App    3.086174    67Ap     3.184429
      52App    3.184807    68Ap     3.188032    69Ap     3.289718
      53App    3.289901    70Ap     3.330005    54App    3.330038
      71Ap     3.383764    72Ap     3.492277    55App    3.493870
      56App    3.512837    73Ap     3.528266    57App    3.575415
      74Ap     3.582102    58App    3.582113    59App    3.670432
      75Ap     3.671920    76Ap     3.691965    60App    3.725546
      77Ap     3.726489    61App    3.781638    78Ap     3.782730
      79Ap     3.818960    62App    3.921502    80Ap     3.922354
      81Ap     4.046482    63App    4.117252    82Ap     4.118279
      83Ap     4.153338    64App    4.156766    84Ap     4.187471
      85Ap     4.208465    65App    4.208534    86Ap     4.212596
      66App    4.215721    67App    4.323023    87Ap     4.324206
      68App    4.362181    88Ap     4.433051    69App    4.433218
      70App    4.445672    71App    4.524326    89Ap     4.524650
      90Ap     4.588426    72App    4.589222    91Ap     4.625628
      92Ap     4.720183    73App    4.781683    93Ap     4.781957
      74App    4.840025    94Ap     4.967578    75App    5.007134
      95Ap     5.008274    96Ap     5.233651    97Ap     5.244966
      76App    5.252205    77App    5.358569    98Ap     5.364734
      78App    5.482268

    Final Occupation by Irrep:
             Ap   App
    DOCC [    10,    6 ]
    SOCC [     1,    0 ]

  @DF-UKS Final Energy:  -157.81305992576785

   => Energetics <=

    Nuclear Repulsion Energy =            125.4034044700021298
    One-Electron Energy =                -458.7665374577580906
    Two-Electron Energy =                 195.8574760670740602
    DFT Exchange-Correlation Energy =     -20.3074030050859200
    Empirical Dispersion Energy =           0.0000000000000000
    VV10 Nonlocal Energy =                  0.0000000000000000
    Total Energy =                       -157.8130599257678455

  UHF NO Occupations:
  HONO-2 :    9 Ap 1.9996018
  HONO-1 :   10 Ap 1.9989796
  HONO-0 :   11 Ap 1.0000000
  LUNO+0 :   12 Ap 0.0010204
  LUNO+1 :   13 Ap 0.0003982
  LUNO+2 :    7App 0.0001975
  LUNO+3 :   14 Ap 0.0001974

Computation Completed

Properties will be evaluated at   0.000000,   0.000000,   0.000000 [a0]

Properties computed using the SCF density matrix

  Nuclear Dipole Moment: [e a0]
     X:     0.8175      Y:    -0.0025      Z:    -0.0000

  Electronic Dipole Moment: [e a0]
     X:    -0.7395      Y:     0.0050      Z:     0.0000

  Dipole Moment: [e a0]
     X:     0.0780      Y:     0.0024      Z:    -0.0000     Total:     0.0781

  Dipole Moment: [D]
     X:     0.1983      Y:     0.0062      Z:    -0.0000     Total:     0.1984

*** tstop() called on n065 at Fri Nov  5 13:35:51 2021
Module time:
	user time   =     540.38 seconds =       9.01 minutes
	system time =      11.96 seconds =       0.20 minutes
	total time  =        139 seconds =       2.32 minutes
Total time:
	user time   =     540.38 seconds =       9.01 minutes
	system time =      11.96 seconds =       0.20 minutes
	total time  =        139 seconds =       2.32 minutes
Grab this energy -157.81305992576785
    Psi4 stopped on: Friday, 05 November 2021 01:35PM
    Psi4 wall time for execution: 0:02:18.92

*** Psi4 exiting successfully. Buy a developer a beer!
