                               Psi4 1.4a2.dev629

  ==> Input File <==

--------------------------------------------------------------------------
import os
memory 14 GB

molecule {
 C   -0.3233391868    0.0017720345   -0.0000000000
 C    0.0611343935   -1.4000174111   -2.4260562364
 C    0.0610352307    2.8031840325   -0.0000000000
 C    0.0611343935   -1.4000174111    2.4260562364
 H    2.0867792162   -1.6422109729   -2.8515777867
 H   -0.7667271634   -0.3910322241   -4.0297278072
 H   -0.7646193552   -3.2904671683   -2.3445135108
 H    2.0870964458    3.2828360597   -0.0000000000
 H   -0.7652672743    3.6798195562    1.6758863162
 H   -0.7652672743    3.6798195562   -1.6758863162
 H    2.0867792162   -1.6422109729    2.8515777867
 H   -0.7646193552   -3.2904671683    2.3445135108
 H   -0.7667271634   -0.3910322241    4.0297278072
units bohr
0 2
}

basis {

assign 6-31g_2dfp_

[ 6-31g_2dfp_ ]

spherical

!----------------------------------------------------------------------
! Basis Set Exchange
! Version v0.8.13
! https://www.basissetexchange.org
!----------------------------------------------------------------------
!   Basis set: 6-31G(2df,p)
! Description: 6-31G(2df,p)
!        Role: orbital
!     Version: 0  (Data from the original Basis Set Exchange)
!----------------------------------------------------------------------

****
H     0
S    3   1.00
     18.7311370              0.03349460
      2.8253937              0.23472695
      0.6401217              0.81375733
S    1   1.00
      0.1612778              1.00000000
P    1   1.00
      1.5000000              1.0000000
P    1   1.00
      0.3750000              1.0000000
****
B     0
S    6   1.00
   2068.8823000              0.0018663
    310.6495700              0.0142515
     70.6830330              0.0695516
     19.8610800              0.2325729
      6.2993048              0.4670787
      2.1270270              0.3634314
SP   3   1.00
      4.7279710             -0.1303938              0.0745976
      1.1903377             -0.1307889              0.3078467
      0.3594117              1.1309444              0.7434568
SP   1   1.00
      0.1267512              1.0000000              1.0000000
D    1   1.00
      0.8020000              1.0000000
D    1   1.00
      0.2005000              1.0000000
F    1   1.00
      0.5000000              1.0000000
****
C     0
S    6   1.00
   3047.5249000              0.0018347
    457.3695100              0.0140373
    103.9486900              0.0688426
     29.2101550              0.2321844
      9.2866630              0.4679413
      3.1639270              0.3623120
SP   3   1.00
      7.8682724             -0.1193324              0.0689991
      1.8812885             -0.1608542              0.3164240
      0.5442493              1.1434564              0.7443083
SP   1   1.00
      0.1687144              1.0000000              1.0000000
D    1   1.00
      1.2520000              1.0000000
D    1   1.00
      0.3130000              1.0000000
F    1   1.00
      0.8000000              1.0000000
****
N     0
S    6   1.00
   4173.5110000              0.0018348
    627.4579000              0.0139950
    142.9021000              0.0685870
     40.2343300              0.2322410
     12.8202100              0.4690700
      4.3904370              0.3604550
SP   3   1.00
     11.6263580             -0.1149610              0.0675800
      2.7162800             -0.1691180              0.3239070
      0.7722180              1.1458520              0.7408950
SP   1   1.00
      0.2120313              1.0000000              1.0000000
D    1   1.00
      1.8260000              1.0000000
D    1   1.00
      0.4565000              1.0000000
F    1   1.00
      1.0000000              1.0000000
****
O     0
S    6   1.00
   5484.6717000              0.0018311
    825.2349500              0.0139501
    188.0469600              0.0684451
     52.9645000              0.2327143
     16.8975700              0.4701930
      5.7996353              0.3585209
SP   3   1.00
     15.5396160             -0.1107775              0.0708743
      3.5999336             -0.1480263              0.3397528
      1.0137618              1.1307670              0.7271586
SP   1   1.00
      0.2700058              1.0000000              1.0000000
D    1   1.00
      2.5840000              1.0000000
D    1   1.00
      0.6460000              1.0000000
F    1   1.00
      1.4000000              1.0000000
****
F     0
S    6   1.00
   7001.7130900              0.0018196169
   1051.3660900              0.0139160796
    239.2856900              0.0684053245
     67.3974453              0.233185760
     21.5199573              0.471267439
      7.40310130             0.356618546
SP   3   1.00
     20.8479528             -0.108506975            0.0716287243
      4.80830834            -0.146451658            0.3459121030
      1.34406986             1.128688580            0.7224699570
SP   1   1.00
      0.358151393            1.0000000              1.0000000
D    1   1.00
      3.5000000              1.0000000
D    1   1.00
      0.8750000              1.0000000
F    1   1.00
      1.8500000              1.0000000
****
Al     0
S    6   1.00
  13983.1000000              0.00194267
   2098.7500000              0.0148599
    477.7050000              0.0728494
    134.3600000              0.2468300
     42.8709000              0.4872580
     14.5189000              0.3234960
SP   6   1.00
    239.6680000             -0.00292619             0.00460285
     57.4419000             -0.0374080              0.0331990
     18.2859000             -0.1144870              0.1362820
      6.5991400              0.1156350              0.3304760
      2.4904900              0.6125950              0.4491460
      0.9445400              0.3937990              0.2657040
SP   3   1.00
      1.2779000             -0.2276060             -0.0175130
      0.3975900              0.00144583             0.2445330
      0.1600950              1.0927900              0.8049340
SP   1   1.00
      0.0556577              1.0000000              1.0000000
D    1   1.00
      0.6500000              1.0000000
D    1   1.00
      0.1625000              1.0000000
F    1   1.00
      0.2500000              1.0000000
****
Si     0
S    6   1.00
  16115.9000000              0.00195948
   2425.5800000              0.01492880
    553.8670000              0.07284780
    156.3400000              0.24613000
     50.0683000              0.48591400
     17.0178000              0.32500200
SP   6   1.00
    292.7180000             -0.00278094             0.00443826
     69.8731000             -0.03571460             0.03266790
     22.3363000             -0.11498500             0.13472100
      8.1503900              0.09356340             0.32867800
      3.1345800              0.60301700             0.44964000
      1.2254300              0.41895900             0.26137200
SP   3   1.00
      1.7273800             -0.24463000            -0.01779510
      0.5729220              0.00431572             0.25353900
      0.2221920              1.09818000             0.80066900
SP   1   1.00
      0.0778369              1.00000000             1.00000000
D    1   1.00
      0.9000000              1.0000000
D    1   1.00
      0.2250000              1.0000000
F    1   1.00
      0.3200000              1.0000000
****
P     0
S    6   1.00
  19413.3000000              0.0018516
   2909.4200000              0.0142062
    661.3640000              0.0699995
    185.7590000              0.2400790
     59.1943000              0.4847620
     20.0310000              0.3352000
SP   6   1.00
    339.4780000             -0.00278217             0.00456462
     81.0101000             -0.0360499              0.03369360
     25.8780000             -0.1166310              0.13975500
      9.4522100              0.0968328              0.33936200
      3.6656600              0.6144180              0.45092100
      1.4674600              0.4037980              0.23858600
SP   3   1.00
      2.1562300             -0.2529230             -0.01776530
      0.7489970              0.0328517              0.27405800
      0.2831450              1.0812500              0.78542100
SP   1   1.00
      0.0998317              1.0000000              1.00000000
D    1   1.00
      1.1000000              1.0000000
D    1   1.00
      0.2750000              1.0000000
F    1   1.00
      0.4500000              1.0000000
****
S     0
S    6   1.00
  21917.1000000              0.0018690
   3301.4900000              0.0142300
    754.1460000              0.0696960
    212.7110000              0.2384870
     67.9896000              0.4833070
     23.0515000              0.3380740
SP   6   1.00
    423.7350000             -0.0023767              0.0040610
    100.7100000             -0.0316930              0.0306810
     32.1599000             -0.1133170              0.1304520
     11.8079000              0.0560900              0.3272050
      4.6311000              0.5922550              0.4528510
      1.8702500              0.4550060              0.2560420
SP   3   1.00
      2.6158400             -0.2503740             -0.0145110
      0.9221670              0.0669570              0.3102630
      0.3412870              1.0545100              0.7544830
SP   1   1.00
      0.1171670              1.0000000              1.0000000
D    1   1.00
      1.3000000              1.0000000
D    1   1.00
      0.3250000              1.0000000
F    1   1.00
      0.5500000              1.0000000
****
Cl     0
S    6   1.00
  25180.1000000              0.0018330
   3780.3500000              0.0140340
    860.4740000              0.0690970
    242.1450000              0.2374520
     77.3349000              0.4830340
     26.2470000              0.3398560
SP   6   1.00
    491.7650000             -0.0022974              0.0039894
    116.9840000             -0.0307140              0.0303180
     37.4153000             -0.1125280              0.1298800
     13.7834000              0.0450160              0.3279510
      5.4521500              0.5893530              0.4535270
      2.2258800              0.4652060              0.2521540
SP   3   1.00
      3.1864900             -0.2518300             -0.0142990
      1.1442700              0.0615890              0.3235720
      0.4203770              1.0601800              0.7435070
SP   1   1.00
      0.1426570              1.0000000              1.0000000
D    1   1.00
      1.5000000              1.0000000
D    1   1.00
      0.3750000              1.0000000
F    1   1.00
      0.7000000              1.0000000
****
}

set {
reference uhf
freeze_core true
e_convergence 10
d_convergence 10
dft_spherical_points 1202
dft_radial_points 99
}

e = energy('b3lyp')

print_out('Grab this energy {0}'.format(e))
--------------------------------------------------------------------------

    Molecular point group: cs

    Geometry (in Bohr), charge = 0, multiplicity = 2:

       Center              X                  Y                   Z               Mass
    ------------   -----------------  -----------------  -----------------  -----------------
         C           -0.323340114347     0.000824596669     0.000000000000    12.000000000000
         C            0.061133465953    -1.400964848931    -2.426056236400    12.000000000000
         C            0.061034303153     2.802236594669     0.000000000000    12.000000000000
         C            0.061133465953    -1.400964848931     2.426056236400    12.000000000000
         H            2.086778288653    -1.643158410731    -2.851577786700     1.007825032230
         H           -0.766728090947    -0.391979661931    -4.029727807200     1.007825032230
         H           -0.764620282747    -3.291414606131    -2.344513510800     1.007825032230
         H            2.087095518253     3.281888621869     0.000000000000     1.007825032230
         H           -0.765268201847     3.678872118369     1.675886316200     1.007825032230
         H           -0.765268201847     3.678872118369    -1.675886316200     1.007825032230
         H            2.086778288653    -1.643158410731     2.851577786700     1.007825032230
         H           -0.764620282747    -3.291414606131     2.344513510800     1.007825032230
         H           -0.766728090947    -0.391979661931     4.029727807200     1.007825032230

  Charge       = 0
  Multiplicity = 2
  Basis Set: ANONYMOUS61B57BAA
    Blend: 6-31G_2DFP_
  Basis Set: (ANONYMOUS61B57BAA AUX)
    Blend: DEF2-UNIVERSAL-JKFIT

    Orbital Energies [Eh]
    ---------------------

    Alpha Occupied:

       1Ap   -10.180342     1App  -10.167142     2Ap   -10.167113
       3Ap   -10.166790     4Ap    -0.797766     5Ap    -0.686332
       2App   -0.686041     6Ap    -0.530776     7Ap    -0.441131
       3App   -0.434685     8Ap    -0.434653     9Ap    -0.382724
       4App   -0.382474     5App   -0.363609     6App   -0.338141
      10Ap    -0.337857    11Ap    -0.168961

    Alpha Virtual:

      12Ap     0.076073     7App    0.134106    13Ap     0.134203
      14Ap     0.142502     8App    0.142755    15Ap     0.154879
       9App    0.178736    16Ap     0.178821    17Ap     0.203547
      10App    0.214803    11App    0.275941    18Ap     0.276029
      12App    0.399206    19Ap     0.399251    20Ap     0.403345
      21Ap     0.423999    13App    0.424196    22Ap     0.456593
      23Ap     0.495308    14App    0.495471    15App    0.512159
      24Ap     0.513980    16App    0.578571    25Ap     0.579063
      17App    0.591280    26Ap     0.591985    27Ap     0.602578
      28Ap     0.624753    18App    0.631766    29Ap     0.636132
      19App    0.636381    30Ap     0.663317    20App    0.663505
      21App    0.683805    31Ap     0.683901    32Ap     0.734992
      33Ap     0.825247    22App    0.825567    23App    0.853916
      24App    0.914900    34Ap     0.915138    25App    0.944124
      35Ap     0.944621    36Ap     0.960642    26App    0.961944
      37Ap     1.003462    38Ap     1.127799    27App    1.128402
      39Ap     1.142225    40Ap     1.162879    28App    1.163674
      41Ap     1.223325    42Ap     1.274321    29App    1.274634
      43Ap     1.279374    44Ap     1.324292    30App    1.324422
      45Ap     1.355998    31App    1.366040    46Ap     1.366073
      32App    1.392430    33App    1.403582    47Ap     1.404532
      34App    1.416869    48Ap     1.417365    35App    1.427917
      36App    1.491488    49Ap     1.499080    50Ap     1.542477
      37App    1.543174    51Ap     1.574241    38App    1.574646
      52Ap     1.669824    39App    1.738917    53Ap     1.739928
      54Ap     1.768309    40App    1.830400    55Ap     1.832407
      41App    1.971731    56Ap     2.018059    57Ap     2.018704
      42App    2.019637    43App    2.052518    58Ap     2.052765
      59Ap     2.738326    44App    2.738643    60Ap     2.790927
      45App    2.811421    46App    2.889778    61Ap     2.890126
      62Ap     2.894957    63Ap     2.929451    47App    2.929542
      48App    2.958992    64Ap     2.964138    49App    2.964616
      65Ap     3.034008    50App    3.071268    66Ap     3.071296
      51App    3.084356    52App    3.168773    67Ap     3.168777
      68Ap     3.180596    53App    3.285279    69Ap     3.285344
      54App    3.327023    70Ap     3.327295    71Ap     3.375623
      72Ap     3.489991    55App    3.490287    56App    3.514048
      73Ap     3.525322    57App    3.568034    74Ap     3.568635
      58App    3.575262    59App    3.665866    75Ap     3.666772
      76Ap     3.679734    60App    3.693591    77Ap     3.694705
      78Ap     3.775390    61App    3.778237    79Ap     3.789133
      80Ap     3.911739    62App    3.912713    81Ap     4.034453
      63App    4.110238    82Ap     4.112465    64App    4.147562
      83Ap     4.148636    84Ap     4.173313    85Ap     4.202170
      86Ap     4.203211    65App    4.203416    66App    4.210847
      67App    4.315809    87Ap     4.316016    68App    4.359063
      88Ap     4.423279    69App    4.425500    70App    4.443596
      89Ap     4.516587    71App    4.517090    72App    4.577958
      90Ap     4.578585    91Ap     4.617501    92Ap     4.709447
      93Ap     4.773853    73App    4.775344    74App    4.836900
      94Ap     4.962807    75App    5.001878    95Ap     5.004095
      96Ap     5.228031    97Ap     5.246160    76App    5.247473
      77App    5.354848    98Ap     5.356150    78App    5.479354

    Beta Occupied:

       1App  -10.167897     1Ap   -10.167879     2Ap   -10.167548
       3Ap   -10.166519     4Ap    -0.781091     5Ap    -0.684133
       2App   -0.683846     6Ap    -0.511747     3App   -0.431066
       7Ap    -0.431024     8Ap    -0.421817     9Ap    -0.376823
       4App   -0.376545     5App   -0.362592     6App   -0.333269
      10Ap    -0.332975

    Beta Virtual:

      11Ap    -0.025743    12Ap     0.077082     7App    0.135024
      13Ap     0.135064    14Ap     0.144388     8App    0.144610
      15Ap     0.163339     9App    0.182401    16Ap     0.182499
      10App    0.215033    17Ap     0.218930    11App    0.282290
      18Ap     0.282376    12App    0.400372    19Ap     0.400425
      20Ap     0.419788    21Ap     0.426811    13App    0.427010
      22Ap     0.468501    23Ap     0.497565    14App    0.497735
      15App    0.513894    24Ap     0.556325    16App    0.584124
      25Ap     0.584610    17App    0.597475    26Ap     0.598151
      27Ap     0.610000    28Ap     0.628130    18App    0.631925
      29Ap     0.639441    19App    0.639640    30Ap     0.666873
      20App    0.667076    21App    0.686431    31Ap     0.686545
      32Ap     0.757516    33Ap     0.830399    22App    0.830752
      23App    0.855269    24App    0.922907    34Ap     0.923073
      25App    0.945961    35Ap     0.953547    36Ap     0.966002
      26App    0.967198    37Ap     1.008702    38Ap     1.131763
      27App    1.132500    39Ap     1.155597    40Ap     1.168019
      28App    1.168683    41Ap     1.232297    42Ap     1.279912
      29App    1.280237    43Ap     1.285129    44Ap     1.329311
      30App    1.329381    45Ap     1.365416    31App    1.371282
      46Ap     1.371314    32App    1.393495    33App    1.407071
      47Ap     1.407975    34App    1.421897    48Ap     1.422426
      35App    1.428191    36App    1.492536    49Ap     1.509524
      50Ap     1.546875    37App    1.547592    51Ap     1.582110
      38App    1.582520    52Ap     1.674671    39App    1.744666
      53Ap     1.745702    54Ap     1.779088    40App    1.834267
      55Ap     1.836251    41App    1.972590    56Ap     2.024838
      42App    2.026061    57Ap     2.039680    43App    2.059205
      58Ap     2.059507    59Ap     2.746656    44App    2.746985
      45App    2.811834    60Ap     2.816061    46App    2.902502
      61Ap     2.902789    62Ap     2.924654    63Ap     2.931934
      47App    2.932020    48App    2.960055    64Ap     2.968686
      49App    2.969156    65Ap     3.041943    50App    3.081168
      66Ap     3.081209    51App    3.086179    52App    3.184506
      67Ap     3.184514    68Ap     3.188309    53App    3.290026
      69Ap     3.290195    54App    3.330835    70Ap     3.331091
      71Ap     3.383441    72Ap     3.492683    55App    3.493049
      56App    3.512420    73Ap     3.528372    57App    3.574864
      58App    3.581606    74Ap     3.581991    59App    3.670371
      75Ap     3.671839    76Ap     3.692984    60App    3.725515
      77Ap     3.726020    78Ap     3.779918    61App    3.782759
      79Ap     3.817679    80Ap     3.921588    62App    3.922496
      81Ap     4.045340    63App    4.117266    82Ap     4.119069
      64App    4.154649    83Ap     4.155984    84Ap     4.187355
      85Ap     4.208545    65App    4.209346    86Ap     4.210749
      66App    4.215319    67App    4.323242    87Ap     4.323451
      68App    4.362435    88Ap     4.431577    69App    4.433570
      70App    4.446547    89Ap     4.524371    71App    4.524883
      72App    4.588579    90Ap     4.589167    91Ap     4.624694
      92Ap     4.719792    93Ap     4.780831    73App    4.782274
      74App    4.839817    94Ap     4.967601    75App    5.005923
      95Ap     5.008129    96Ap     5.233745    97Ap     5.247945
      76App    5.249258    77App    5.361328    98Ap     5.362630
      78App    5.481675

    Final Occupation by Irrep:
             Ap   App
    DOCC [    10,    6 ]
    SOCC [     1,    0 ]

  @DF-UKS Final Energy:  -157.81306818670461

   => Energetics <=

    Nuclear Repulsion Energy =            125.3945793503614539
    One-Electron Energy =                -458.7488194052203880
    Two-Electron Energy =                 195.8483137471311011
    DFT Exchange-Correlation Energy =     -20.3071418789768110
    Empirical Dispersion Energy =           0.0000000000000000
    VV10 Nonlocal Energy =                  0.0000000000000000
    Total Energy =                       -157.8130681867046121

  UHF NO Occupations:
  HONO-2 :    9 Ap 1.9996009
  HONO-1 :   10 Ap 1.9989805
  HONO-0 :   11 Ap 1.0000000
  LUNO+0 :   12 Ap 0.0010195
  LUNO+1 :   13 Ap 0.0003991
  LUNO+2 :   14 Ap 0.0001976
  LUNO+3 :    7App 0.0001975

Computation Completed

Properties will be evaluated at   0.000000,   0.000000,   0.000000 [a0]

Properties computed using the SCF density matrix

  Nuclear Dipole Moment: [e a0]
     X:     0.8272      Y:    -0.0067      Z:     0.0000

  Electronic Dipole Moment: [e a0]
     X:    -0.7493      Y:     0.0068      Z:     0.0000

  Dipole Moment: [e a0]
     X:     0.0779      Y:     0.0001      Z:     0.0000     Total:     0.0779

  Dipole Moment: [D]
     X:     0.1980      Y:     0.0002      Z:     0.0000     Total:     0.1980

*** tstop() called on n056 at Fri Nov  5 13:03:08 2021
Module time:
	user time   =     661.65 seconds =      11.03 minutes
	system time =      16.42 seconds =       0.27 minutes
	total time  =        171 seconds =       2.85 minutes
Total time:
	user time   =     661.65 seconds =      11.03 minutes
	system time =      16.42 seconds =       0.27 minutes
	total time  =        171 seconds =       2.85 minutes
Grab this energy -157.8130681867046
    Psi4 stopped on: Friday, 05 November 2021 01:03PM
    Psi4 wall time for execution: 0:02:50.49

*** Psi4 exiting successfully. Buy a developer a beer!
