                               Psi4 1.4a2.dev629

  ==> Input File <==

--------------------------------------------------------------------------
import os
memory 14 GB

molecule {
 C   -0.3230387985   -0.0000020444   -0.0000017722
 C    0.0610009792   -1.3981953704   -2.4216414444
 C    0.0608819060    2.7963147336   -0.0000481734
 C    0.0610019682   -1.3981150982    2.4216896160
 H    2.0866384603   -1.6448334829   -2.8394041084
 H   -0.7612277270   -0.3837157806   -4.0208887720
 H   -0.7694131641   -3.2870467839   -2.3451768429
 H    2.0865016602    3.2815101811   -0.0046520648
 H   -0.7614723244    3.6740224273    1.6781020981
 H   -0.7694852041    3.6744819287   -1.6741200140
 H    2.0866421236   -1.6367691919    2.8440589286
 H   -0.7613893416   -3.2902768049    2.3427925715
 H   -0.7692484144   -0.3873990270    4.0192899779
units bohr
0 2
}

basis {

assign 6-31g_2dfp_

[ 6-31g_2dfp_ ]

spherical

!----------------------------------------------------------------------
! Basis Set Exchange
! Version v0.8.13
! https://www.basissetexchange.org
!----------------------------------------------------------------------
!   Basis set: 6-31G(2df,p)
! Description: 6-31G(2df,p)
!        Role: orbital
!     Version: 0  (Data from the original Basis Set Exchange)
!----------------------------------------------------------------------

****
H     0
S    3   1.00
     18.7311370              0.03349460
      2.8253937              0.23472695
      0.6401217              0.81375733
S    1   1.00
      0.1612778              1.00000000
P    1   1.00
      1.5000000              1.0000000
P    1   1.00
      0.3750000              1.0000000
****
B     0
S    6   1.00
   2068.8823000              0.0018663
    310.6495700              0.0142515
     70.6830330              0.0695516
     19.8610800              0.2325729
      6.2993048              0.4670787
      2.1270270              0.3634314
SP   3   1.00
      4.7279710             -0.1303938              0.0745976
      1.1903377             -0.1307889              0.3078467
      0.3594117              1.1309444              0.7434568
SP   1   1.00
      0.1267512              1.0000000              1.0000000
D    1   1.00
      0.8020000              1.0000000
D    1   1.00
      0.2005000              1.0000000
F    1   1.00
      0.5000000              1.0000000
****
C     0
S    6   1.00
   3047.5249000              0.0018347
    457.3695100              0.0140373
    103.9486900              0.0688426
     29.2101550              0.2321844
      9.2866630              0.4679413
      3.1639270              0.3623120
SP   3   1.00
      7.8682724             -0.1193324              0.0689991
      1.8812885             -0.1608542              0.3164240
      0.5442493              1.1434564              0.7443083
SP   1   1.00
      0.1687144              1.0000000              1.0000000
D    1   1.00
      1.2520000              1.0000000
D    1   1.00
      0.3130000              1.0000000
F    1   1.00
      0.8000000              1.0000000
****
N     0
S    6   1.00
   4173.5110000              0.0018348
    627.4579000              0.0139950
    142.9021000              0.0685870
     40.2343300              0.2322410
     12.8202100              0.4690700
      4.3904370              0.3604550
SP   3   1.00
     11.6263580             -0.1149610              0.0675800
      2.7162800             -0.1691180              0.3239070
      0.7722180              1.1458520              0.7408950
SP   1   1.00
      0.2120313              1.0000000              1.0000000
D    1   1.00
      1.8260000              1.0000000
D    1   1.00
      0.4565000              1.0000000
F    1   1.00
      1.0000000              1.0000000
****
O     0
S    6   1.00
   5484.6717000              0.0018311
    825.2349500              0.0139501
    188.0469600              0.0684451
     52.9645000              0.2327143
     16.8975700              0.4701930
      5.7996353              0.3585209
SP   3   1.00
     15.5396160             -0.1107775              0.0708743
      3.5999336             -0.1480263              0.3397528
      1.0137618              1.1307670              0.7271586
SP   1   1.00
      0.2700058              1.0000000              1.0000000
D    1   1.00
      2.5840000              1.0000000
D    1   1.00
      0.6460000              1.0000000
F    1   1.00
      1.4000000              1.0000000
****
F     0
S    6   1.00
   7001.7130900              0.0018196169
   1051.3660900              0.0139160796
    239.2856900              0.0684053245
     67.3974453              0.233185760
     21.5199573              0.471267439
      7.40310130             0.356618546
SP   3   1.00
     20.8479528             -0.108506975            0.0716287243
      4.80830834            -0.146451658            0.3459121030
      1.34406986             1.128688580            0.7224699570
SP   1   1.00
      0.358151393            1.0000000              1.0000000
D    1   1.00
      3.5000000              1.0000000
D    1   1.00
      0.8750000              1.0000000
F    1   1.00
      1.8500000              1.0000000
****
Al     0
S    6   1.00
  13983.1000000              0.00194267
   2098.7500000              0.0148599
    477.7050000              0.0728494
    134.3600000              0.2468300
     42.8709000              0.4872580
     14.5189000              0.3234960
SP   6   1.00
    239.6680000             -0.00292619             0.00460285
     57.4419000             -0.0374080              0.0331990
     18.2859000             -0.1144870              0.1362820
      6.5991400              0.1156350              0.3304760
      2.4904900              0.6125950              0.4491460
      0.9445400              0.3937990              0.2657040
SP   3   1.00
      1.2779000             -0.2276060             -0.0175130
      0.3975900              0.00144583             0.2445330
      0.1600950              1.0927900              0.8049340
SP   1   1.00
      0.0556577              1.0000000              1.0000000
D    1   1.00
      0.6500000              1.0000000
D    1   1.00
      0.1625000              1.0000000
F    1   1.00
      0.2500000              1.0000000
****
Si     0
S    6   1.00
  16115.9000000              0.00195948
   2425.5800000              0.01492880
    553.8670000              0.07284780
    156.3400000              0.24613000
     50.0683000              0.48591400
     17.0178000              0.32500200
SP   6   1.00
    292.7180000             -0.00278094             0.00443826
     69.8731000             -0.03571460             0.03266790
     22.3363000             -0.11498500             0.13472100
      8.1503900              0.09356340             0.32867800
      3.1345800              0.60301700             0.44964000
      1.2254300              0.41895900             0.26137200
SP   3   1.00
      1.7273800             -0.24463000            -0.01779510
      0.5729220              0.00431572             0.25353900
      0.2221920              1.09818000             0.80066900
SP   1   1.00
      0.0778369              1.00000000             1.00000000
D    1   1.00
      0.9000000              1.0000000
D    1   1.00
      0.2250000              1.0000000
F    1   1.00
      0.3200000              1.0000000
****
P     0
S    6   1.00
  19413.3000000              0.0018516
   2909.4200000              0.0142062
    661.3640000              0.0699995
    185.7590000              0.2400790
     59.1943000              0.4847620
     20.0310000              0.3352000
SP   6   1.00
    339.4780000             -0.00278217             0.00456462
     81.0101000             -0.0360499              0.03369360
     25.8780000             -0.1166310              0.13975500
      9.4522100              0.0968328              0.33936200
      3.6656600              0.6144180              0.45092100
      1.4674600              0.4037980              0.23858600
SP   3   1.00
      2.1562300             -0.2529230             -0.01776530
      0.7489970              0.0328517              0.27405800
      0.2831450              1.0812500              0.78542100
SP   1   1.00
      0.0998317              1.0000000              1.00000000
D    1   1.00
      1.1000000              1.0000000
D    1   1.00
      0.2750000              1.0000000
F    1   1.00
      0.4500000              1.0000000
****
S     0
S    6   1.00
  21917.1000000              0.0018690
   3301.4900000              0.0142300
    754.1460000              0.0696960
    212.7110000              0.2384870
     67.9896000              0.4833070
     23.0515000              0.3380740
SP   6   1.00
    423.7350000             -0.0023767              0.0040610
    100.7100000             -0.0316930              0.0306810
     32.1599000             -0.1133170              0.1304520
     11.8079000              0.0560900              0.3272050
      4.6311000              0.5922550              0.4528510
      1.8702500              0.4550060              0.2560420
SP   3   1.00
      2.6158400             -0.2503740             -0.0145110
      0.9221670              0.0669570              0.3102630
      0.3412870              1.0545100              0.7544830
SP   1   1.00
      0.1171670              1.0000000              1.0000000
D    1   1.00
      1.3000000              1.0000000
D    1   1.00
      0.3250000              1.0000000
F    1   1.00
      0.5500000              1.0000000
****
Cl     0
S    6   1.00
  25180.1000000              0.0018330
   3780.3500000              0.0140340
    860.4740000              0.0690970
    242.1450000              0.2374520
     77.3349000              0.4830340
     26.2470000              0.3398560
SP   6   1.00
    491.7650000             -0.0022974              0.0039894
    116.9840000             -0.0307140              0.0303180
     37.4153000             -0.1125280              0.1298800
     13.7834000              0.0450160              0.3279510
      5.4521500              0.5893530              0.4535270
      2.2258800              0.4652060              0.2521540
SP   3   1.00
      3.1864900             -0.2518300             -0.0142990
      1.1442700              0.0615890              0.3235720
      0.4203770              1.0601800              0.7435070
SP   1   1.00
      0.1426570              1.0000000              1.0000000
D    1   1.00
      1.5000000              1.0000000
D    1   1.00
      0.3750000              1.0000000
F    1   1.00
      0.7000000              1.0000000
****
}

set {
reference uhf
freeze_core true
e_convergence 10
d_convergence 10
dft_spherical_points 1202
dft_radial_points 99
}

e = energy('b3lyp')

print_out('Grab this energy {0}'.format(e))
--------------------------------------------------------------------------

    Molecular point group: c1

    Geometry (in Bohr), charge = 0, multiplicity = 2:

       Center              X                  Y                   Z               Mass
    ------------   -----------------  -----------------  -----------------  -----------------
         C           -0.323016848936    -0.000002042744    -0.000001430515    12.000000000000
         C            0.061022928764    -1.398195368744    -2.421641102715    12.000000000000
         C            0.060903855564     2.796314735256    -0.000047831715    12.000000000000
         C            0.061023917764    -1.398115096544     2.421689957685    12.000000000000
         H            2.086660409864    -1.644833481244    -2.839403766715     1.007825032230
         H           -0.761205777436    -0.383715778944    -4.020888430315     1.007825032230
         H           -0.769391214536    -3.287046782244    -2.345176501215     1.007825032230
         H            2.086523609764     3.281510182756    -0.004651723115     1.007825032230
         H           -0.761450374836     3.674022428956     1.678102439785     1.007825032230
         H           -0.769463254536     3.674481930356    -1.674119672315     1.007825032230
         H            2.086664073164    -1.636769190244     2.844059270285     1.007825032230
         H           -0.761367392036    -3.290276803244     2.342792913185     1.007825032230
         H           -0.769226464836    -0.387399025344     4.019290319585     1.007825032230

  Charge       = 0
  Multiplicity = 2
  Basis Set: ANONYMOUSA95E1546
    Blend: 6-31G_2DFP_
  Basis Set: (ANONYMOUSA95E1546 AUX)
    Blend: DEF2-UNIVERSAL-JKFIT

    Orbital Energies [Eh]
    ---------------------

    Alpha Occupied:

       1A    -10.179568     2A    -10.166669     3A    -10.166668
       4A    -10.166623     5A     -0.798816     6A     -0.686489
       7A     -0.686488     8A     -0.530774     9A     -0.441720
      10A     -0.435152    11A     -0.435151    12A     -0.382674
      13A     -0.382673    14A     -0.363492    15A     -0.338187
      16A     -0.338187    17A     -0.168636

    Alpha Virtual:

      18A      0.076043    19A      0.134195    20A      0.134196
      21A      0.142832    22A      0.142832    23A      0.154942
      24A      0.178953    25A      0.178953    26A      0.204640
      27A      0.215148    28A      0.276505    29A      0.276507
      30A      0.399201    31A      0.399205    32A      0.403136
      33A      0.423825    34A      0.423825    35A      0.457176
      36A      0.495617    37A      0.495618    38A      0.512485
      39A      0.514394    40A      0.579493    41A      0.579501
      42A      0.592179    43A      0.592181    44A      0.603032
      45A      0.625167    46A      0.632132    47A      0.637064
      48A      0.637067    49A      0.663886    50A      0.663886
      51A      0.684306    52A      0.684307    53A      0.734788
      54A      0.825251    55A      0.825254    56A      0.854915
      57A      0.915751    58A      0.915756    59A      0.943981
      60A      0.945499    61A      0.962252    62A      0.962268
      63A      1.004595    64A      1.128999    65A      1.129012
      66A      1.142574    67A      1.164029    68A      1.164041
      69A      1.224232    70A      1.275392    71A      1.275395
      72A      1.279866    73A      1.324691    74A      1.324694
      75A      1.356149    76A      1.367881    77A      1.367886
      78A      1.393979    79A      1.403760    80A      1.403763
      81A      1.417486    82A      1.417492    83A      1.429315
      84A      1.492686    85A      1.499685    86A      1.543560
      87A      1.543562    88A      1.575598    89A      1.575600
      90A      1.669765    91A      1.740039    92A      1.740050
      93A      1.769837    94A      1.832587    95A      1.832588
      96A      1.973113    97A      2.020165    98A      2.020168
      99A      2.020615   100A      2.057141   101A      2.057143
     102A      2.739081   103A      2.739081   104A      2.792070
     105A      2.814156   106A      2.891084   107A      2.891089
     108A      2.896457   109A      2.929678   110A      2.929687
     111A      2.959232   112A      2.964061   113A      2.964075
     114A      3.033966   115A      3.072241   116A      3.072255
     117A      3.085937   118A      3.169628   119A      3.169636
     120A      3.182484   121A      3.285811   122A      3.285811
     123A      3.327593   124A      3.327599   125A      3.374231
     126A      3.491932   127A      3.491952   128A      3.514773
     129A      3.527655   130A      3.568330   131A      3.568350
     132A      3.577288   133A      3.666342   134A      3.666350
     135A      3.681628   136A      3.695575   137A      3.695592
     138A      3.781274   139A      3.781300   140A      3.789796
     141A      3.914304   142A      3.914311   143A      4.036306
     144A      4.114196   145A      4.114200   146A      4.148897
     147A      4.148906   148A      4.174458   149A      4.204083
     150A      4.205428   151A      4.205431   152A      4.212421
     153A      4.317499   154A      4.317519   155A      4.361492
     156A      4.426528   157A      4.426531   158A      4.445863
     159A      4.519841   160A      4.519843   161A      4.581836
     162A      4.581849   163A      4.624890   164A      4.714230
     165A      4.781020   166A      4.781028   167A      4.840843
     168A      4.965930   169A      5.004560   170A      5.004573
     171A      5.229063   172A      5.248226   173A      5.248226
     174A      5.358116   175A      5.358129   176A      5.485112

    Beta Occupied:

       1A    -10.167424     2A    -10.167423     3A    -10.167394
       4A    -10.165773     5A     -0.782118     6A     -0.684271
       7A     -0.684270     8A     -0.511845     9A     -0.431504
      10A     -0.431503    11A     -0.422322    12A     -0.376722
      13A     -0.376721    14A     -0.362465    15A     -0.333314
      16A     -0.333314

    Beta Virtual:

      17A     -0.025711    18A      0.077064    19A      0.135079
      20A      0.135080    21A      0.144730    22A      0.144731
      23A      0.163446    24A      0.182650    25A      0.182651
      26A      0.215383    27A      0.219843    28A      0.282783
      29A      0.282786    30A      0.400403    31A      0.400407
      32A      0.419486    33A      0.426626    34A      0.426627
      35A      0.469439    36A      0.497892    37A      0.497893
      38A      0.514247    39A      0.556649    40A      0.585051
      41A      0.585059    42A      0.598297    43A      0.598298
      44A      0.610498    45A      0.628603    46A      0.632297
      47A      0.640423    48A      0.640427    49A      0.667407
      50A      0.667408    51A      0.687022    52A      0.687023
      53A      0.757132    54A      0.830437    55A      0.830440
      56A      0.856306    57A      0.923735    58A      0.923742
      59A      0.947283    60A      0.952874    61A      0.967582
      62A      0.967598    63A      1.009761    64A      1.133027
      65A      1.133039    66A      1.155967    67A      1.169103
      68A      1.169116    69A      1.233342    70A      1.281026
      71A      1.281030    72A      1.285553    73A      1.329680
      74A      1.329681    75A      1.365591    76A      1.373114
      77A      1.373119    78A      1.395050    79A      1.407201
      80A      1.407204    81A      1.422588    82A      1.422594
      83A      1.429617    84A      1.493748    85A      1.510178
      86A      1.547912    87A      1.547913    88A      1.583538
      89A      1.583539    90A      1.674618    91A      1.745804
      92A      1.745815    93A      1.780642    94A      1.836460
      95A      1.836461    96A      1.973977    97A      2.026580
      98A      2.026584    99A      2.042055   100A      2.063880
     101A      2.063882   102A      2.747320   103A      2.747321
     104A      2.814501   105A      2.817258   106A      2.903539
     107A      2.903544   108A      2.926230   109A      2.932333
     110A      2.932342   111A      2.960306   112A      2.968665
     113A      2.968680   114A      3.041988   115A      3.082238
     116A      3.082250   117A      3.087771   118A      3.185274
     119A      3.185279   120A      3.190106   121A      3.290785
     122A      3.290786   123A      3.331324   124A      3.331329
     125A      3.382033   126A      3.494656   127A      3.494677
     128A      3.513131   129A      3.530648   130A      3.577171
     131A      3.581670   132A      3.581692   133A      3.670986
     134A      3.670997   135A      3.694902   136A      3.727032
     137A      3.727048   138A      3.785837   139A      3.785863
     140A      3.818209   141A      3.924127   142A      3.924134
     143A      4.047128   144A      4.120730   145A      4.120731
     146A      4.156300   147A      4.156310   148A      4.188634
     149A      4.211365   150A      4.211368   151A      4.212110
     152A      4.216967   153A      4.324971   154A      4.324991
     155A      4.364833   156A      4.434851   157A      4.434853
     158A      4.448757   159A      4.527759   160A      4.527761
     161A      4.592457   162A      4.592469   163A      4.632063
     164A      4.724659   165A      4.787976   166A      4.787983
     167A      4.843758   168A      4.970748   169A      5.008639
     170A      5.008651   171A      5.234818   172A      5.250021
     173A      5.250022   174A      5.364651   175A      5.364665
     176A      5.487456

    Final Occupation by Irrep:
              A
    DOCC [    16 ]
    SOCC [     1 ]

  @DF-UKS Final Energy:  -157.81304357010316

   => Energetics <=

    Nuclear Repulsion Energy =            125.5761177591706570
    One-Electron Energy =                -459.1062119094971194
    Two-Electron Energy =                 196.0280007055525857
    DFT Exchange-Correlation Energy =     -20.3109501253292812
    Empirical Dispersion Energy =           0.0000000000000000
    VV10 Nonlocal Energy =                  0.0000000000000000
    Total Energy =                       -157.8130435701031615

  UHF NO Occupations:
  HONO-2 :   15  A 1.9995992
  HONO-1 :   16  A 1.9989874
  HONO-0 :   17  A 1.0000000
  LUNO+0 :   18  A 0.0010126
  LUNO+1 :   19  A 0.0004008
  LUNO+2 :   20  A 0.0001954
  LUNO+3 :   21  A 0.0001954

Computation Completed

Properties will be evaluated at   0.000000,   0.000000,   0.000000 [a0]

Properties computed using the SCF density matrix

  Nuclear Dipole Moment: [e a0]
     X:     0.8273      Y:    -0.0000      Z:     0.0000

  Electronic Dipole Moment: [e a0]
     X:    -0.7503      Y:     0.0000      Z:    -0.0000

  Dipole Moment: [e a0]
     X:     0.0770      Y:     0.0000      Z:     0.0000     Total:     0.0770

  Dipole Moment: [D]
     X:     0.1958      Y:     0.0000      Z:     0.0000     Total:     0.1958

*** tstop() called on n065 at Fri Nov  5 15:43:06 2021
Module time:
	user time   =     541.25 seconds =       9.02 minutes
	system time =      11.83 seconds =       0.20 minutes
	total time  =        139 seconds =       2.32 minutes
Total time:
	user time   =     541.25 seconds =       9.02 minutes
	system time =      11.83 seconds =       0.20 minutes
	total time  =        139 seconds =       2.32 minutes
Grab this energy -157.81304357010316
    Psi4 stopped on: Friday, 05 November 2021 03:43PM
    Psi4 wall time for execution: 0:02:19.08

*** Psi4 exiting successfully. Buy a developer a beer!
