                               Psi4 1.4a2.dev629

  ==> Input File <==

--------------------------------------------------------------------------
import os
memory 14 GB

molecule {
 C   -0.3230396279   -0.0000024818    0.0004970261
 C    0.0621919577   -1.3982802070   -2.4214965363
 C    0.0608818117    2.7963141934    0.0003843002
 C    0.0598090588   -1.3980312628    2.4218339636
 H    2.0830738232   -1.6410918472   -2.8420490436
 H   -0.7641850306   -0.3831715380   -4.0216846471
 H   -0.7631518699   -3.2907428305   -2.3424647647
 H    2.0865070820    3.2815084134    0.0001838137
 H   -0.7642840386    3.6737874095    1.6758133727
 H   -0.7666783665    3.6747167693   -1.6764176863
 H    2.0902162990   -1.6405083020    2.8414045821
 H   -0.7676545102   -3.2865888998    2.3454982841
 H   -0.7662944654   -0.3879337302    4.0184973354
units bohr
0 2
}

basis {

assign 6-31g_2dfp_

[ 6-31g_2dfp_ ]

spherical

!----------------------------------------------------------------------
! Basis Set Exchange
! Version v0.8.13
! https://www.basissetexchange.org
!----------------------------------------------------------------------
!   Basis set: 6-31G(2df,p)
! Description: 6-31G(2df,p)
!        Role: orbital
!     Version: 0  (Data from the original Basis Set Exchange)
!----------------------------------------------------------------------

****
H     0
S    3   1.00
     18.7311370              0.03349460
      2.8253937              0.23472695
      0.6401217              0.81375733
S    1   1.00
      0.1612778              1.00000000
P    1   1.00
      1.5000000              1.0000000
P    1   1.00
      0.3750000              1.0000000
****
B     0
S    6   1.00
   2068.8823000              0.0018663
    310.6495700              0.0142515
     70.6830330              0.0695516
     19.8610800              0.2325729
      6.2993048              0.4670787
      2.1270270              0.3634314
SP   3   1.00
      4.7279710             -0.1303938              0.0745976
      1.1903377             -0.1307889              0.3078467
      0.3594117              1.1309444              0.7434568
SP   1   1.00
      0.1267512              1.0000000              1.0000000
D    1   1.00
      0.8020000              1.0000000
D    1   1.00
      0.2005000              1.0000000
F    1   1.00
      0.5000000              1.0000000
****
C     0
S    6   1.00
   3047.5249000              0.0018347
    457.3695100              0.0140373
    103.9486900              0.0688426
     29.2101550              0.2321844
      9.2866630              0.4679413
      3.1639270              0.3623120
SP   3   1.00
      7.8682724             -0.1193324              0.0689991
      1.8812885             -0.1608542              0.3164240
      0.5442493              1.1434564              0.7443083
SP   1   1.00
      0.1687144              1.0000000              1.0000000
D    1   1.00
      1.2520000              1.0000000
D    1   1.00
      0.3130000              1.0000000
F    1   1.00
      0.8000000              1.0000000
****
N     0
S    6   1.00
   4173.5110000              0.0018348
    627.4579000              0.0139950
    142.9021000              0.0685870
     40.2343300              0.2322410
     12.8202100              0.4690700
      4.3904370              0.3604550
SP   3   1.00
     11.6263580             -0.1149610              0.0675800
      2.7162800             -0.1691180              0.3239070
      0.7722180              1.1458520              0.7408950
SP   1   1.00
      0.2120313              1.0000000              1.0000000
D    1   1.00
      1.8260000              1.0000000
D    1   1.00
      0.4565000              1.0000000
F    1   1.00
      1.0000000              1.0000000
****
O     0
S    6   1.00
   5484.6717000              0.0018311
    825.2349500              0.0139501
    188.0469600              0.0684451
     52.9645000              0.2327143
     16.8975700              0.4701930
      5.7996353              0.3585209
SP   3   1.00
     15.5396160             -0.1107775              0.0708743
      3.5999336             -0.1480263              0.3397528
      1.0137618              1.1307670              0.7271586
SP   1   1.00
      0.2700058              1.0000000              1.0000000
D    1   1.00
      2.5840000              1.0000000
D    1   1.00
      0.6460000              1.0000000
F    1   1.00
      1.4000000              1.0000000
****
F     0
S    6   1.00
   7001.7130900              0.0018196169
   1051.3660900              0.0139160796
    239.2856900              0.0684053245
     67.3974453              0.233185760
     21.5199573              0.471267439
      7.40310130             0.356618546
SP   3   1.00
     20.8479528             -0.108506975            0.0716287243
      4.80830834            -0.146451658            0.3459121030
      1.34406986             1.128688580            0.7224699570
SP   1   1.00
      0.358151393            1.0000000              1.0000000
D    1   1.00
      3.5000000              1.0000000
D    1   1.00
      0.8750000              1.0000000
F    1   1.00
      1.8500000              1.0000000
****
Al     0
S    6   1.00
  13983.1000000              0.00194267
   2098.7500000              0.0148599
    477.7050000              0.0728494
    134.3600000              0.2468300
     42.8709000              0.4872580
     14.5189000              0.3234960
SP   6   1.00
    239.6680000             -0.00292619             0.00460285
     57.4419000             -0.0374080              0.0331990
     18.2859000             -0.1144870              0.1362820
      6.5991400              0.1156350              0.3304760
      2.4904900              0.6125950              0.4491460
      0.9445400              0.3937990              0.2657040
SP   3   1.00
      1.2779000             -0.2276060             -0.0175130
      0.3975900              0.00144583             0.2445330
      0.1600950              1.0927900              0.8049340
SP   1   1.00
      0.0556577              1.0000000              1.0000000
D    1   1.00
      0.6500000              1.0000000
D    1   1.00
      0.1625000              1.0000000
F    1   1.00
      0.2500000              1.0000000
****
Si     0
S    6   1.00
  16115.9000000              0.00195948
   2425.5800000              0.01492880
    553.8670000              0.07284780
    156.3400000              0.24613000
     50.0683000              0.48591400
     17.0178000              0.32500200
SP   6   1.00
    292.7180000             -0.00278094             0.00443826
     69.8731000             -0.03571460             0.03266790
     22.3363000             -0.11498500             0.13472100
      8.1503900              0.09356340             0.32867800
      3.1345800              0.60301700             0.44964000
      1.2254300              0.41895900             0.26137200
SP   3   1.00
      1.7273800             -0.24463000            -0.01779510
      0.5729220              0.00431572             0.25353900
      0.2221920              1.09818000             0.80066900
SP   1   1.00
      0.0778369              1.00000000             1.00000000
D    1   1.00
      0.9000000              1.0000000
D    1   1.00
      0.2250000              1.0000000
F    1   1.00
      0.3200000              1.0000000
****
P     0
S    6   1.00
  19413.3000000              0.0018516
   2909.4200000              0.0142062
    661.3640000              0.0699995
    185.7590000              0.2400790
     59.1943000              0.4847620
     20.0310000              0.3352000
SP   6   1.00
    339.4780000             -0.00278217             0.00456462
     81.0101000             -0.0360499              0.03369360
     25.8780000             -0.1166310              0.13975500
      9.4522100              0.0968328              0.33936200
      3.6656600              0.6144180              0.45092100
      1.4674600              0.4037980              0.23858600
SP   3   1.00
      2.1562300             -0.2529230             -0.01776530
      0.7489970              0.0328517              0.27405800
      0.2831450              1.0812500              0.78542100
SP   1   1.00
      0.0998317              1.0000000              1.00000000
D    1   1.00
      1.1000000              1.0000000
D    1   1.00
      0.2750000              1.0000000
F    1   1.00
      0.4500000              1.0000000
****
S     0
S    6   1.00
  21917.1000000              0.0018690
   3301.4900000              0.0142300
    754.1460000              0.0696960
    212.7110000              0.2384870
     67.9896000              0.4833070
     23.0515000              0.3380740
SP   6   1.00
    423.7350000             -0.0023767              0.0040610
    100.7100000             -0.0316930              0.0306810
     32.1599000             -0.1133170              0.1304520
     11.8079000              0.0560900              0.3272050
      4.6311000              0.5922550              0.4528510
      1.8702500              0.4550060              0.2560420
SP   3   1.00
      2.6158400             -0.2503740             -0.0145110
      0.9221670              0.0669570              0.3102630
      0.3412870              1.0545100              0.7544830
SP   1   1.00
      0.1171670              1.0000000              1.0000000
D    1   1.00
      1.3000000              1.0000000
D    1   1.00
      0.3250000              1.0000000
F    1   1.00
      0.5500000              1.0000000
****
Cl     0
S    6   1.00
  25180.1000000              0.0018330
   3780.3500000              0.0140340
    860.4740000              0.0690970
    242.1450000              0.2374520
     77.3349000              0.4830340
     26.2470000              0.3398560
SP   6   1.00
    491.7650000             -0.0022974              0.0039894
    116.9840000             -0.0307140              0.0303180
     37.4153000             -0.1125280              0.1298800
     13.7834000              0.0450160              0.3279510
      5.4521500              0.5893530              0.4535270
      2.2258800              0.4652060              0.2521540
SP   3   1.00
      3.1864900             -0.2518300             -0.0142990
      1.1442700              0.0615890              0.3235720
      0.4203770              1.0601800              0.7435070
SP   1   1.00
      0.1426570              1.0000000              1.0000000
D    1   1.00
      1.5000000              1.0000000
D    1   1.00
      0.3750000              1.0000000
F    1   1.00
      0.7000000              1.0000000
****
}

set {
reference uhf
freeze_core true
e_convergence 10
d_convergence 10
dft_spherical_points 1202
dft_radial_points 99
}

e = energy('b3lyp')

print_out('Grab this energy {0}'.format(e))
--------------------------------------------------------------------------

    Molecular point group: c1

    Geometry (in Bohr), charge = 0, multiplicity = 2:

       Center              X                  Y                   Z               Mass
    ------------   -----------------  -----------------  -----------------  -----------------
         C           -0.323017128517    -0.000002099009     0.000262285380    12.000000000000
         C            0.062214457083    -1.398279824209    -2.421731277020    12.000000000000
         C            0.060904311083     2.796314576191     0.000149559480    12.000000000000
         C            0.059831558183    -1.398030880009     2.421599222880    12.000000000000
         H            2.083096322583    -1.641091464409    -2.842283784320     1.007825032230
         H           -0.764162531217    -0.383171155209    -4.021919387820     1.007825032230
         H           -0.763129370517    -3.290742447709    -2.342699505420     1.007825032230
         H            2.086529581383     3.281508796191    -0.000050927020     1.007825032230
         H           -0.764261539217     3.673787792291     1.675578631980     1.007825032230
         H           -0.766655867117     3.674717152091    -1.676652427020     1.007825032230
         H            2.090238798383    -1.640507919209     2.841169841380     1.007825032230
         H           -0.767632010817    -3.286588517009     2.345263543380     1.007825032230
         H           -0.766271966017    -0.387933347409     4.018262594680     1.007825032230

  Charge       = 0
  Multiplicity = 2
  Basis Set: ANONYMOUS653F0A8E
    Blend: 6-31G_2DFP_
  Basis Set: (ANONYMOUS653F0A8E AUX)
    Blend: DEF2-UNIVERSAL-JKFIT

    Orbital Energies [Eh]
    ---------------------

    Alpha Occupied:

       1A    -10.179568     2A    -10.166684     3A    -10.166660
       4A    -10.166616     5A     -0.798816     6A     -0.686490
       7A     -0.686489     8A     -0.530776     9A     -0.441723
      10A     -0.435173    11A     -0.435130    12A     -0.382696
      13A     -0.382649    14A     -0.363492    15A     -0.338219
      16A     -0.338154    17A     -0.168636

    Alpha Virtual:

      18A      0.076042    19A      0.134025    20A      0.134361
      21A      0.142768    22A      0.142891    23A      0.154943
      24A      0.178871    25A      0.179039    26A      0.204642
      27A      0.215149    28A      0.276430    29A      0.276582
      30A      0.399169    31A      0.399236    32A      0.403135
      33A      0.423739    34A      0.423911    35A      0.457175
      36A      0.495471    37A      0.495762    38A      0.512498
      39A      0.514383    40A      0.579318    41A      0.579673
      42A      0.592029    43A      0.592322    44A      0.603044
      45A      0.625168    46A      0.632112    47A      0.636969
      48A      0.637180    49A      0.663523    50A      0.664262
      51A      0.684136    52A      0.684484    53A      0.734789
      54A      0.825226    55A      0.825269    56A      0.854922
      57A      0.915542    58A      0.915967    59A      0.944021
      60A      0.945466    61A      0.962127    62A      0.962390
      63A      1.004583    64A      1.128955    65A      1.129052
      66A      1.142563    67A      1.163917    68A      1.164161
      69A      1.224233    70A      1.275235    71A      1.275539
      72A      1.279887    73A      1.324649    74A      1.324733
      75A      1.356131    76A      1.367857    77A      1.367907
      78A      1.393961    79A      1.403328    80A      1.404208
      81A      1.416980    82A      1.418006    83A      1.429319
      84A      1.492712    85A      1.499657    86A      1.543107
      87A      1.544036    88A      1.575444    89A      1.575757
      90A      1.669759    91A      1.739867    92A      1.740182
      93A      1.769873    94A      1.831790    95A      1.833388
      96A      1.973102    97A      2.019644    98A      2.020378
      99A      2.020934   100A      2.056226   101A      2.058092
     102A      2.738672   103A      2.739489   104A      2.792078
     105A      2.814154   106A      2.891050   107A      2.891097
     108A      2.896479   109A      2.929669   110A      2.929698
     111A      2.959237   112A      2.963741   113A      2.964397
     114A      3.033975   115A      3.072230   116A      3.072257
     117A      3.085951   118A      3.169409   119A      3.169854
     120A      3.182499   121A      3.285485   122A      3.286139
     123A      3.327392   124A      3.327797   125A      3.374236
     126A      3.491795   127A      3.492075   128A      3.514787
     129A      3.527647   130A      3.568216   131A      3.568466
     132A      3.577290   133A      3.665615   134A      3.667076
     135A      3.681620   136A      3.695437   137A      3.695748
     138A      3.781266   139A      3.781305   140A      3.789809
     141A      3.914211   142A      3.914414   143A      4.036286
     144A      4.113729   145A      4.114634   146A      4.148301
     147A      4.149443   148A      4.174446   149A      4.203675
     150A      4.204896   151A      4.206329   152A      4.212499
     153A      4.316679   154A      4.318391   155A      4.361497
     156A      4.426218   157A      4.426860   158A      4.445863
     159A      4.519162   160A      4.520541   161A      4.581715
     162A      4.581953   163A      4.624913   164A      4.714240
     165A      4.780583   166A      4.781478   167A      4.840840
     168A      4.965934   169A      5.003807   170A      5.005319
     171A      5.229029   172A      5.246156   173A      5.250287
     174A      5.356947   175A      5.359370   176A      5.485141

    Beta Occupied:

       1A    -10.167442     2A    -10.167416     3A    -10.167383
       4A    -10.165773     5A     -0.782119     6A     -0.684276
       7A     -0.684268     8A     -0.511847     9A     -0.431521
      10A     -0.431490    11A     -0.422320    12A     -0.376766
      13A     -0.376675    14A     -0.362465    15A     -0.333339
      16A     -0.333289

    Beta Virtual:

      17A     -0.025712    18A      0.077062    19A      0.134921
      20A      0.135235    21A      0.144693    22A      0.144764
      23A      0.163445    24A      0.182550    25A      0.182756
      26A      0.215385    27A      0.219843    28A      0.282706
      29A      0.282863    30A      0.400372    31A      0.400437
      32A      0.419484    33A      0.426541    34A      0.426713
      35A      0.469438    36A      0.497738    37A      0.498045
      38A      0.514248    39A      0.556649    40A      0.584892
      41A      0.585213    42A      0.598124    43A      0.598465
      44A      0.610507    45A      0.628605    46A      0.632285
      47A      0.640323    48A      0.640536    49A      0.667078
      50A      0.667751    51A      0.686871    52A      0.687180
      53A      0.757133    54A      0.830410    55A      0.830457
      56A      0.856313    57A      0.923541    58A      0.923937
      59A      0.947305    60A      0.952858    61A      0.967428
      62A      0.967749    63A      1.009748    64A      1.133018
      65A      1.133044    66A      1.155953    67A      1.168957
      68A      1.169274    69A      1.233344    70A      1.280857
      71A      1.281184    72A      1.285577    73A      1.329638
      74A      1.329720    75A      1.365572    76A      1.373089
      77A      1.373143    78A      1.395028    79A      1.406722
      80A      1.407697    81A      1.422063    82A      1.423127
      83A      1.429621    84A      1.493758    85A      1.510165
      86A      1.547473    87A      1.548372    88A      1.583399
      89A      1.583682    90A      1.674612    91A      1.745637
      92A      1.745950    93A      1.780670    94A      1.835656
      95A      1.837269    96A      1.973967    97A      2.026108
      98A      2.027058    99A      2.042053   100A      2.063009
     101A      2.064792   102A      2.746921   103A      2.747719
     104A      2.814571   105A      2.817194   106A      2.903466
     107A      2.903611   108A      2.926226   109A      2.932293
     110A      2.932385   111A      2.960311   112A      2.968335
     113A      2.969017   114A      3.041996   115A      3.082124
     116A      3.082339   117A      3.087803   118A      3.184940
     119A      3.185600   120A      3.190131   121A      3.290448
     122A      3.291125   123A      3.331100   124A      3.331550
     125A      3.382038   126A      3.494555   127A      3.494764
     128A      3.513143   129A      3.530644   130A      3.577148
     131A      3.581528   132A      3.581857   133A      3.670220
     134A      3.671770   135A      3.694897   136A      3.726882
     137A      3.727204   138A      3.785807   139A      3.785901
     140A      3.818213   141A      3.924011   142A      3.924260
     143A      4.047107   144A      4.120289   145A      4.121137
     146A      4.155769   147A      4.156790   148A      4.188613
     149A      4.210355   150A      4.211681   151A      4.212771
     152A      4.217047   153A      4.324150   154A      4.325861
     155A      4.364839   156A      4.434538   157A      4.435183
     158A      4.448758   159A      4.527077   160A      4.528462
     161A      4.592322   162A      4.592584   163A      4.632088
     164A      4.724668   165A      4.787538   166A      4.788435
     167A      4.843755   168A      4.970753   169A      5.007904
     170A      5.009379   171A      5.234781   172A      5.247964
     173A      5.252073   174A      5.363472   175A      5.365914
     176A      5.487485

    Final Occupation by Irrep:
              A
    DOCC [    16 ]
    SOCC [     1 ]

  @DF-UKS Final Energy:  -157.81303260869007

   => Energetics <=

    Nuclear Repulsion Energy =            125.5761686263312384
    One-Electron Energy =                -459.1062785573806195
    Two-Electron Energy =                 196.0280312494837744
    DFT Exchange-Correlation Energy =     -20.3109539271244621
    Empirical Dispersion Energy =           0.0000000000000000
    VV10 Nonlocal Energy =                  0.0000000000000000
    Total Energy =                       -157.8130326086900652

  UHF NO Occupations:
  HONO-2 :   15  A 1.9995992
  HONO-1 :   16  A 1.9989874
  HONO-0 :   17  A 1.0000000
  LUNO+0 :   18  A 0.0010126
  LUNO+1 :   19  A 0.0004008
  LUNO+2 :   20  A 0.0001954
  LUNO+3 :   21  A 0.0001954

Computation Completed

Properties will be evaluated at   0.000000,   0.000000,   0.000000 [a0]

Properties computed using the SCF density matrix

  Nuclear Dipole Moment: [e a0]
     X:     0.8274      Y:    -0.0000      Z:    -0.0017

  Electronic Dipole Moment: [e a0]
     X:    -0.7503      Y:     0.0000      Z:     0.0023

  Dipole Moment: [e a0]
     X:     0.0770      Y:     0.0000      Z:     0.0006     Total:     0.0770

  Dipole Moment: [D]
     X:     0.1958      Y:     0.0000      Z:     0.0016     Total:     0.1958

*** tstop() called on n061 at Fri Nov  5 14:11:28 2021
Module time:
	user time   =     507.25 seconds =       8.45 minutes
	system time =      11.30 seconds =       0.19 minutes
	total time  =        131 seconds =       2.18 minutes
Total time:
	user time   =     507.25 seconds =       8.45 minutes
	system time =      11.30 seconds =       0.19 minutes
	total time  =        131 seconds =       2.18 minutes
Grab this energy -157.81303260869007
    Psi4 stopped on: Friday, 05 November 2021 02:11PM
    Psi4 wall time for execution: 0:02:10.46

*** Psi4 exiting successfully. Buy a developer a beer!
