                               Psi4 1.4a2.dev629

  ==> Input File <==

--------------------------------------------------------------------------
import os
memory 14 GB

molecule {
 C   -0.3243663861   -0.0000020863    0.0000000190
 C    0.0600786681   -1.4016443321   -2.4261157925
 C    0.0599587650    2.8019133638   -0.0007964178
 C    0.0600785936   -1.4002649062    2.4269122237
 H    2.0902479562   -1.6456783421   -2.8470136171
 H   -0.7670305208   -0.3887922618   -4.0197455786
 H   -0.7658505731   -3.2929225160   -2.3532792687
 H    2.0901091276    3.2885228699   -0.0015821172
 H   -0.7672710228    3.6755719361    1.6731372690
 H   -0.7659290037    3.6844323235   -1.6751536832
 H    2.0902477680   -1.6429376596    2.8485948835
 H   -0.7671930874   -3.2867462814    2.3466147097
 H   -0.7656881613   -0.3914764215    4.0284273703
units bohr
0 2
}

basis {

assign 6-31g_2dfp_

[ 6-31g_2dfp_ ]

spherical

!----------------------------------------------------------------------
! Basis Set Exchange
! Version v0.8.13
! https://www.basissetexchange.org
!----------------------------------------------------------------------
!   Basis set: 6-31G(2df,p)
! Description: 6-31G(2df,p)
!        Role: orbital
!     Version: 0  (Data from the original Basis Set Exchange)
!----------------------------------------------------------------------

****
H     0
S    3   1.00
     18.7311370              0.03349460
      2.8253937              0.23472695
      0.6401217              0.81375733
S    1   1.00
      0.1612778              1.00000000
P    1   1.00
      1.5000000              1.0000000
P    1   1.00
      0.3750000              1.0000000
****
B     0
S    6   1.00
   2068.8823000              0.0018663
    310.6495700              0.0142515
     70.6830330              0.0695516
     19.8610800              0.2325729
      6.2993048              0.4670787
      2.1270270              0.3634314
SP   3   1.00
      4.7279710             -0.1303938              0.0745976
      1.1903377             -0.1307889              0.3078467
      0.3594117              1.1309444              0.7434568
SP   1   1.00
      0.1267512              1.0000000              1.0000000
D    1   1.00
      0.8020000              1.0000000
D    1   1.00
      0.2005000              1.0000000
F    1   1.00
      0.5000000              1.0000000
****
C     0
S    6   1.00
   3047.5249000              0.0018347
    457.3695100              0.0140373
    103.9486900              0.0688426
     29.2101550              0.2321844
      9.2866630              0.4679413
      3.1639270              0.3623120
SP   3   1.00
      7.8682724             -0.1193324              0.0689991
      1.8812885             -0.1608542              0.3164240
      0.5442493              1.1434564              0.7443083
SP   1   1.00
      0.1687144              1.0000000              1.0000000
D    1   1.00
      1.2520000              1.0000000
D    1   1.00
      0.3130000              1.0000000
F    1   1.00
      0.8000000              1.0000000
****
N     0
S    6   1.00
   4173.5110000              0.0018348
    627.4579000              0.0139950
    142.9021000              0.0685870
     40.2343300              0.2322410
     12.8202100              0.4690700
      4.3904370              0.3604550
SP   3   1.00
     11.6263580             -0.1149610              0.0675800
      2.7162800             -0.1691180              0.3239070
      0.7722180              1.1458520              0.7408950
SP   1   1.00
      0.2120313              1.0000000              1.0000000
D    1   1.00
      1.8260000              1.0000000
D    1   1.00
      0.4565000              1.0000000
F    1   1.00
      1.0000000              1.0000000
****
O     0
S    6   1.00
   5484.6717000              0.0018311
    825.2349500              0.0139501
    188.0469600              0.0684451
     52.9645000              0.2327143
     16.8975700              0.4701930
      5.7996353              0.3585209
SP   3   1.00
     15.5396160             -0.1107775              0.0708743
      3.5999336             -0.1480263              0.3397528
      1.0137618              1.1307670              0.7271586
SP   1   1.00
      0.2700058              1.0000000              1.0000000
D    1   1.00
      2.5840000              1.0000000
D    1   1.00
      0.6460000              1.0000000
F    1   1.00
      1.4000000              1.0000000
****
F     0
S    6   1.00
   7001.7130900              0.0018196169
   1051.3660900              0.0139160796
    239.2856900              0.0684053245
     67.3974453              0.233185760
     21.5199573              0.471267439
      7.40310130             0.356618546
SP   3   1.00
     20.8479528             -0.108506975            0.0716287243
      4.80830834            -0.146451658            0.3459121030
      1.34406986             1.128688580            0.7224699570
SP   1   1.00
      0.358151393            1.0000000              1.0000000
D    1   1.00
      3.5000000              1.0000000
D    1   1.00
      0.8750000              1.0000000
F    1   1.00
      1.8500000              1.0000000
****
Al     0
S    6   1.00
  13983.1000000              0.00194267
   2098.7500000              0.0148599
    477.7050000              0.0728494
    134.3600000              0.2468300
     42.8709000              0.4872580
     14.5189000              0.3234960
SP   6   1.00
    239.6680000             -0.00292619             0.00460285
     57.4419000             -0.0374080              0.0331990
     18.2859000             -0.1144870              0.1362820
      6.5991400              0.1156350              0.3304760
      2.4904900              0.6125950              0.4491460
      0.9445400              0.3937990              0.2657040
SP   3   1.00
      1.2779000             -0.2276060             -0.0175130
      0.3975900              0.00144583             0.2445330
      0.1600950              1.0927900              0.8049340
SP   1   1.00
      0.0556577              1.0000000              1.0000000
D    1   1.00
      0.6500000              1.0000000
D    1   1.00
      0.1625000              1.0000000
F    1   1.00
      0.2500000              1.0000000
****
Si     0
S    6   1.00
  16115.9000000              0.00195948
   2425.5800000              0.01492880
    553.8670000              0.07284780
    156.3400000              0.24613000
     50.0683000              0.48591400
     17.0178000              0.32500200
SP   6   1.00
    292.7180000             -0.00278094             0.00443826
     69.8731000             -0.03571460             0.03266790
     22.3363000             -0.11498500             0.13472100
      8.1503900              0.09356340             0.32867800
      3.1345800              0.60301700             0.44964000
      1.2254300              0.41895900             0.26137200
SP   3   1.00
      1.7273800             -0.24463000            -0.01779510
      0.5729220              0.00431572             0.25353900
      0.2221920              1.09818000             0.80066900
SP   1   1.00
      0.0778369              1.00000000             1.00000000
D    1   1.00
      0.9000000              1.0000000
D    1   1.00
      0.2250000              1.0000000
F    1   1.00
      0.3200000              1.0000000
****
P     0
S    6   1.00
  19413.3000000              0.0018516
   2909.4200000              0.0142062
    661.3640000              0.0699995
    185.7590000              0.2400790
     59.1943000              0.4847620
     20.0310000              0.3352000
SP   6   1.00
    339.4780000             -0.00278217             0.00456462
     81.0101000             -0.0360499              0.03369360
     25.8780000             -0.1166310              0.13975500
      9.4522100              0.0968328              0.33936200
      3.6656600              0.6144180              0.45092100
      1.4674600              0.4037980              0.23858600
SP   3   1.00
      2.1562300             -0.2529230             -0.01776530
      0.7489970              0.0328517              0.27405800
      0.2831450              1.0812500              0.78542100
SP   1   1.00
      0.0998317              1.0000000              1.00000000
D    1   1.00
      1.1000000              1.0000000
D    1   1.00
      0.2750000              1.0000000
F    1   1.00
      0.4500000              1.0000000
****
S     0
S    6   1.00
  21917.1000000              0.0018690
   3301.4900000              0.0142300
    754.1460000              0.0696960
    212.7110000              0.2384870
     67.9896000              0.4833070
     23.0515000              0.3380740
SP   6   1.00
    423.7350000             -0.0023767              0.0040610
    100.7100000             -0.0316930              0.0306810
     32.1599000             -0.1133170              0.1304520
     11.8079000              0.0560900              0.3272050
      4.6311000              0.5922550              0.4528510
      1.8702500              0.4550060              0.2560420
SP   3   1.00
      2.6158400             -0.2503740             -0.0145110
      0.9221670              0.0669570              0.3102630
      0.3412870              1.0545100              0.7544830
SP   1   1.00
      0.1171670              1.0000000              1.0000000
D    1   1.00
      1.3000000              1.0000000
D    1   1.00
      0.3250000              1.0000000
F    1   1.00
      0.5500000              1.0000000
****
Cl     0
S    6   1.00
  25180.1000000              0.0018330
   3780.3500000              0.0140340
    860.4740000              0.0690970
    242.1450000              0.2374520
     77.3349000              0.4830340
     26.2470000              0.3398560
SP   6   1.00
    491.7650000             -0.0022974              0.0039894
    116.9840000             -0.0307140              0.0303180
     37.4153000             -0.1125280              0.1298800
     13.7834000              0.0450160              0.3279510
      5.4521500              0.5893530              0.4535270
      2.2258800              0.4652060              0.2521540
SP   3   1.00
      3.1864900             -0.2518300             -0.0142990
      1.1442700              0.0615890              0.3235720
      0.4203770              1.0601800              0.7435070
SP   1   1.00
      0.1426570              1.0000000              1.0000000
D    1   1.00
      1.5000000              1.0000000
D    1   1.00
      0.3750000              1.0000000
F    1   1.00
      0.7000000              1.0000000
****
}

set {
reference uhf
freeze_core true
e_convergence 10
d_convergence 10
dft_spherical_points 1202
dft_radial_points 99
}

e = energy('b3lyp')

print_out('Grab this energy {0}'.format(e))
--------------------------------------------------------------------------

    Molecular point group: c1

    Geometry (in Bohr), charge = 0, multiplicity = 2:

       Center              X                  Y                   Z               Mass
    ------------   -----------------  -----------------  -----------------  -----------------
         C           -0.323555437635    -0.000002049701     0.000000012758    12.000000000000
         C            0.060889616565    -1.401644295501    -2.426115798742    12.000000000000
         C            0.060769713465     2.801913400399    -0.000796424042    12.000000000000
         C            0.060889542065    -1.400264869601     2.426912217458    12.000000000000
         H            2.091058904665    -1.645678305501    -2.847013623342     1.007825032230
         H           -0.766219572335    -0.388792225201    -4.019745584842     1.007825032230
         H           -0.765039624635    -3.292922479401    -2.353279274942     1.007825032230
         H            2.090920076065     3.288522906499    -0.001582123442     1.007825032230
         H           -0.766460074335     3.675571972699     1.673137262758     1.007825032230
         H           -0.765118055235     3.684432360099    -1.675153689442     1.007825032230
         H            2.091058716465    -1.642937623001     2.848594877258     1.007825032230
         H           -0.766382138935    -3.286746244801     2.346614703458     1.007825032230
         H           -0.764877212835    -0.391476384901     4.028427364058     1.007825032230

  Charge       = 0
  Multiplicity = 2
  Basis Set: ANONYMOUS168D98E9
    Blend: 6-31G_2DFP_
  Basis Set: (ANONYMOUS168D98E9 AUX)
    Blend: DEF2-UNIVERSAL-JKFIT

    Orbital Energies [Eh]
    ---------------------

    Alpha Occupied:

       1A    -10.180401     2A    -10.167033     3A    -10.167033
       4A    -10.166988     5A     -0.797730     6A     -0.686183
       7A     -0.686182     8A     -0.530769     9A     -0.441026
      10A     -0.434718    11A     -0.434717    12A     -0.382461
      13A     -0.382459    14A     -0.363789    15A     -0.338053
      16A     -0.338053    17A     -0.168999

    Alpha Virtual:

      18A      0.076158    19A      0.134145    20A      0.134146
      21A      0.142703    22A      0.142703    23A      0.154712
      24A      0.178605    25A      0.178605    26A      0.203488
      27A      0.215092    28A      0.275959    29A      0.275961
      30A      0.399107    31A      0.399111    32A      0.403255
      33A      0.424286    34A      0.424287    35A      0.456518
      36A      0.495569    37A      0.495570    38A      0.512042
      39A      0.513827    40A      0.578639    41A      0.578648
      42A      0.591369    43A      0.591371    44A      0.601817
      45A      0.625198    46A      0.632243    47A      0.636617
      48A      0.636621    49A      0.662925    50A      0.662926
      51A      0.684103    52A      0.684104    53A      0.735055
      54A      0.825372    55A      0.825375    56A      0.853637
      57A      0.914800    58A      0.914806    59A      0.944286
      60A      0.944865    61A      0.961188    62A      0.961204
      63A      1.003280    64A      1.128351    65A      1.128363
      66A      1.141497    67A      1.163529    68A      1.163542
      69A      1.223739    70A      1.274257    71A      1.274260
      72A      1.279187    73A      1.324138    74A      1.324140
      75A      1.356495    76A      1.365965    77A      1.365969
      78A      1.392411    79A      1.403002    80A      1.403004
      81A      1.418107    82A      1.418114    83A      1.427701
      84A      1.491483    85A      1.498157    86A      1.542464
      87A      1.542466    88A      1.574810    89A      1.574812
      90A      1.671095    91A      1.738575    92A      1.738586
      93A      1.766460    94A      1.832793    95A      1.832794
      96A      1.972744    97A      2.018222    98A      2.019023
      99A      2.019026   100A      2.051405   101A      2.051407
     102A      2.738804   103A      2.738805   104A      2.790530
     105A      2.811885   106A      2.889580   107A      2.889586
     108A      2.894595   109A      2.929701   110A      2.929709
     111A      2.958866   112A      2.963952   113A      2.963966
     114A      3.033324   115A      3.071248   116A      3.071262
     117A      3.085753   118A      3.168654   119A      3.168662
     120A      3.180539   121A      3.285208   122A      3.285209
     123A      3.327804   124A      3.327810   125A      3.375781
     126A      3.489918   127A      3.489938   128A      3.512731
     129A      3.526609   130A      3.567972   131A      3.567992
     132A      3.574322   133A      3.666007   134A      3.666016
     135A      3.680256   136A      3.694295   137A      3.694311
     138A      3.777227   139A      3.777253   140A      3.788330
     141A      3.912800   142A      3.912806   143A      4.034882
     144A      4.111316   145A      4.111321   146A      4.147506
     147A      4.147514   148A      4.171452   149A      4.202677
     150A      4.203910   151A      4.203913   152A      4.209663
     153A      4.315521   154A      4.315540   155A      4.360198
     156A      4.423728   157A      4.423730   158A      4.443690
     159A      4.516189   160A      4.516189   161A      4.578960
     162A      4.578973   163A      4.617406   164A      4.708915
     165A      4.774720   166A      4.774728   167A      4.838271
     168A      4.963198   169A      5.001640   170A      5.001652
     171A      5.225326   172A      5.249816   173A      5.249817
     174A      5.353548   175A      5.353561   176A      5.481309

    Beta Occupied:

       1A    -10.167788     2A    -10.167787     3A    -10.167763
       4A    -10.166585     5A     -0.781062     6A     -0.683998
       7A     -0.683998     8A     -0.511789     9A     -0.431113
      10A     -0.431112    11A     -0.421665    12A     -0.376521
      13A     -0.376520    14A     -0.362782    15A     -0.333172
      16A     -0.333172

    Beta Virtual:

      17A     -0.025873    18A      0.077184    19A      0.135107
      20A      0.135108    21A      0.144547    22A      0.144548
      23A      0.163191    24A      0.182247    25A      0.182248
      26A      0.215245    27A      0.218938    28A      0.282312
      29A      0.282314    30A      0.400278    31A      0.400283
      32A      0.419798    33A      0.427097    34A      0.427098
      35A      0.468326    36A      0.497839    37A      0.497840
      38A      0.513785    39A      0.556133    40A      0.584217
      41A      0.584225    42A      0.597541    43A      0.597542
      44A      0.609363    45A      0.628394    46A      0.632453
      47A      0.639865    48A      0.639869    49A      0.666519
      50A      0.666520    51A      0.686726    52A      0.686727
      53A      0.757574    54A      0.830562    55A      0.830564
      56A      0.854999    57A      0.922789    58A      0.922795
      59A      0.946217    60A      0.953741    61A      0.966460
      62A      0.966476    63A      1.008479    64A      1.132414
      65A      1.132425    66A      1.154956    67A      1.168580
      68A      1.168593    69A      1.232695    70A      1.279830
      71A      1.279834    72A      1.284883    73A      1.329175
      74A      1.329176    75A      1.365891    76A      1.371279
      77A      1.371284    78A      1.393486    79A      1.406413
      80A      1.406416    81A      1.423121    82A      1.423128
      83A      1.427976    84A      1.492506    85A      1.508608
      86A      1.546904    87A      1.546904    88A      1.582665
      89A      1.582666    90A      1.675993    91A      1.744331
      92A      1.744342    93A      1.777230    94A      1.836650
      95A      1.836651    96A      1.973592    97A      2.025281
      98A      2.025283    99A      2.039587   100A      2.058245
     101A      2.058247   102A      2.747148   103A      2.747149
     104A      2.812287   105A      2.815639   106A      2.902242
     107A      2.902248   108A      2.924102   109A      2.932181
     110A      2.932190   111A      2.959929   112A      2.968462
     113A      2.968476   114A      3.041474   115A      3.081147
     116A      3.081159   117A      3.087568   118A      3.184426
     119A      3.184430   120A      3.188198   121A      3.290037
     122A      3.290037   123A      3.331575   124A      3.331580
     125A      3.383573   126A      3.492609   127A      3.492629
     128A      3.511110   129A      3.529623   130A      3.574178
     131A      3.581479   132A      3.581500   133A      3.670663
     134A      3.670674   135A      3.693524   136A      3.725924
     137A      3.725940   138A      3.781691   139A      3.781717
     140A      3.816902   141A      3.922673   142A      3.922680
     143A      4.045832   144A      4.118137   145A      4.118139
     146A      4.154704   147A      4.154713   148A      4.185535
     149A      4.209968   150A      4.209971   151A      4.210579
     152A      4.214264   153A      4.322897   154A      4.322917
     155A      4.363517   156A      4.431942   157A      4.431945
     158A      4.446520   159A      4.524013   160A      4.524014
     161A      4.589521   162A      4.589533   163A      4.624505
     164A      4.719373   165A      4.781625   166A      4.781633
     167A      4.841180   168A      4.968005   169A      5.005705
     170A      5.005717   171A      5.231006   172A      5.251587
     173A      5.251588   174A      5.360000   175A      5.360013
     176A      5.483618

    Final Occupation by Irrep:
              A
    DOCC [    16 ]
    SOCC [     1 ]

  @DF-UKS Final Energy:  -157.81305491807737

   => Energetics <=

    Nuclear Repulsion Energy =            125.3892891391762276
    One-Electron Energy =                -458.7381722404675202
    Two-Electron Energy =                 195.8428649842554705
    DFT Exchange-Correlation Energy =     -20.3070368010415727
    Empirical Dispersion Energy =           0.0000000000000000
    VV10 Nonlocal Energy =                  0.0000000000000000
    Total Energy =                       -157.8130549180773698

  UHF NO Occupations:
  HONO-2 :   15  A 1.9995985
  HONO-1 :   16  A 1.9989796
  HONO-0 :   17  A 1.0000000
  LUNO+0 :   18  A 0.0010204
  LUNO+1 :   19  A 0.0004015
  LUNO+2 :   20  A 0.0001975
  LUNO+3 :   21  A 0.0001975

Computation Completed

Properties will be evaluated at   0.000000,   0.000000,   0.000000 [a0]

Properties computed using the SCF density matrix

  Nuclear Dipole Moment: [e a0]
     X:     0.8329      Y:    -0.0000      Z:    -0.0000

  Electronic Dipole Moment: [e a0]
     X:    -0.7582      Y:     0.0000      Z:     0.0000

  Dipole Moment: [e a0]
     X:     0.0747      Y:    -0.0000      Z:     0.0000     Total:     0.0747

  Dipole Moment: [D]
     X:     0.1899      Y:    -0.0000      Z:     0.0000     Total:     0.1899

*** tstop() called on n054 at Fri Nov  5 14:50:13 2021
Module time:
	user time   =     506.41 seconds =       8.44 minutes
	system time =      12.26 seconds =       0.20 minutes
	total time  =        130 seconds =       2.17 minutes
Total time:
	user time   =     506.41 seconds =       8.44 minutes
	system time =      12.26 seconds =       0.20 minutes
	total time  =        130 seconds =       2.17 minutes
Grab this energy -157.81305491807737
    Psi4 stopped on: Friday, 05 November 2021 02:50PM
    Psi4 wall time for execution: 0:02:10.48

*** Psi4 exiting successfully. Buy a developer a beer!
