                               Psi4 1.4a2.dev629

  ==> Input File <==

--------------------------------------------------------------------------
import os
memory 14 GB

molecule {
 C   -0.3233440526    0.0000049600    0.0049993089
 C    0.0614806394   -1.3939279997   -2.4205753461
 C    0.0608367027    2.8001064044   -0.0062218753
 C    0.0604369278   -1.4061700655    2.4293353236
 H    2.0875587149   -1.6355519251   -2.8437841757
 H   -0.7657461108   -0.3792733366   -4.0188853606
 H   -0.7631569445   -3.2863641904   -2.3492466411
 H    2.0867410000    3.2885793578   -0.0111433115
 H   -0.7627730482    3.6883047079    1.6669301549
 H   -0.7682870208    3.6731265001   -1.6858209156
 H    2.0862098245   -1.6531341574    2.8519506221
 H   -0.7677450183   -3.2979061603    2.3496702470
 H   -0.7648194910   -0.3978184089    4.0327919692
units bohr
0 2
}

basis {

assign 6-31g_2dfp_

[ 6-31g_2dfp_ ]

spherical

!----------------------------------------------------------------------
! Basis Set Exchange
! Version v0.8.13
! https://www.basissetexchange.org
!----------------------------------------------------------------------
!   Basis set: 6-31G(2df,p)
! Description: 6-31G(2df,p)
!        Role: orbital
!     Version: 0  (Data from the original Basis Set Exchange)
!----------------------------------------------------------------------

****
H     0
S    3   1.00
     18.7311370              0.03349460
      2.8253937              0.23472695
      0.6401217              0.81375733
S    1   1.00
      0.1612778              1.00000000
P    1   1.00
      1.5000000              1.0000000
P    1   1.00
      0.3750000              1.0000000
****
B     0
S    6   1.00
   2068.8823000              0.0018663
    310.6495700              0.0142515
     70.6830330              0.0695516
     19.8610800              0.2325729
      6.2993048              0.4670787
      2.1270270              0.3634314
SP   3   1.00
      4.7279710             -0.1303938              0.0745976
      1.1903377             -0.1307889              0.3078467
      0.3594117              1.1309444              0.7434568
SP   1   1.00
      0.1267512              1.0000000              1.0000000
D    1   1.00
      0.8020000              1.0000000
D    1   1.00
      0.2005000              1.0000000
F    1   1.00
      0.5000000              1.0000000
****
C     0
S    6   1.00
   3047.5249000              0.0018347
    457.3695100              0.0140373
    103.9486900              0.0688426
     29.2101550              0.2321844
      9.2866630              0.4679413
      3.1639270              0.3623120
SP   3   1.00
      7.8682724             -0.1193324              0.0689991
      1.8812885             -0.1608542              0.3164240
      0.5442493              1.1434564              0.7443083
SP   1   1.00
      0.1687144              1.0000000              1.0000000
D    1   1.00
      1.2520000              1.0000000
D    1   1.00
      0.3130000              1.0000000
F    1   1.00
      0.8000000              1.0000000
****
N     0
S    6   1.00
   4173.5110000              0.0018348
    627.4579000              0.0139950
    142.9021000              0.0685870
     40.2343300              0.2322410
     12.8202100              0.4690700
      4.3904370              0.3604550
SP   3   1.00
     11.6263580             -0.1149610              0.0675800
      2.7162800             -0.1691180              0.3239070
      0.7722180              1.1458520              0.7408950
SP   1   1.00
      0.2120313              1.0000000              1.0000000
D    1   1.00
      1.8260000              1.0000000
D    1   1.00
      0.4565000              1.0000000
F    1   1.00
      1.0000000              1.0000000
****
O     0
S    6   1.00
   5484.6717000              0.0018311
    825.2349500              0.0139501
    188.0469600              0.0684451
     52.9645000              0.2327143
     16.8975700              0.4701930
      5.7996353              0.3585209
SP   3   1.00
     15.5396160             -0.1107775              0.0708743
      3.5999336             -0.1480263              0.3397528
      1.0137618              1.1307670              0.7271586
SP   1   1.00
      0.2700058              1.0000000              1.0000000
D    1   1.00
      2.5840000              1.0000000
D    1   1.00
      0.6460000              1.0000000
F    1   1.00
      1.4000000              1.0000000
****
F     0
S    6   1.00
   7001.7130900              0.0018196169
   1051.3660900              0.0139160796
    239.2856900              0.0684053245
     67.3974453              0.233185760
     21.5199573              0.471267439
      7.40310130             0.356618546
SP   3   1.00
     20.8479528             -0.108506975            0.0716287243
      4.80830834            -0.146451658            0.3459121030
      1.34406986             1.128688580            0.7224699570
SP   1   1.00
      0.358151393            1.0000000              1.0000000
D    1   1.00
      3.5000000              1.0000000
D    1   1.00
      0.8750000              1.0000000
F    1   1.00
      1.8500000              1.0000000
****
Al     0
S    6   1.00
  13983.1000000              0.00194267
   2098.7500000              0.0148599
    477.7050000              0.0728494
    134.3600000              0.2468300
     42.8709000              0.4872580
     14.5189000              0.3234960
SP   6   1.00
    239.6680000             -0.00292619             0.00460285
     57.4419000             -0.0374080              0.0331990
     18.2859000             -0.1144870              0.1362820
      6.5991400              0.1156350              0.3304760
      2.4904900              0.6125950              0.4491460
      0.9445400              0.3937990              0.2657040
SP   3   1.00
      1.2779000             -0.2276060             -0.0175130
      0.3975900              0.00144583             0.2445330
      0.1600950              1.0927900              0.8049340
SP   1   1.00
      0.0556577              1.0000000              1.0000000
D    1   1.00
      0.6500000              1.0000000
D    1   1.00
      0.1625000              1.0000000
F    1   1.00
      0.2500000              1.0000000
****
Si     0
S    6   1.00
  16115.9000000              0.00195948
   2425.5800000              0.01492880
    553.8670000              0.07284780
    156.3400000              0.24613000
     50.0683000              0.48591400
     17.0178000              0.32500200
SP   6   1.00
    292.7180000             -0.00278094             0.00443826
     69.8731000             -0.03571460             0.03266790
     22.3363000             -0.11498500             0.13472100
      8.1503900              0.09356340             0.32867800
      3.1345800              0.60301700             0.44964000
      1.2254300              0.41895900             0.26137200
SP   3   1.00
      1.7273800             -0.24463000            -0.01779510
      0.5729220              0.00431572             0.25353900
      0.2221920              1.09818000             0.80066900
SP   1   1.00
      0.0778369              1.00000000             1.00000000
D    1   1.00
      0.9000000              1.0000000
D    1   1.00
      0.2250000              1.0000000
F    1   1.00
      0.3200000              1.0000000
****
P     0
S    6   1.00
  19413.3000000              0.0018516
   2909.4200000              0.0142062
    661.3640000              0.0699995
    185.7590000              0.2400790
     59.1943000              0.4847620
     20.0310000              0.3352000
SP   6   1.00
    339.4780000             -0.00278217             0.00456462
     81.0101000             -0.0360499              0.03369360
     25.8780000             -0.1166310              0.13975500
      9.4522100              0.0968328              0.33936200
      3.6656600              0.6144180              0.45092100
      1.4674600              0.4037980              0.23858600
SP   3   1.00
      2.1562300             -0.2529230             -0.01776530
      0.7489970              0.0328517              0.27405800
      0.2831450              1.0812500              0.78542100
SP   1   1.00
      0.0998317              1.0000000              1.00000000
D    1   1.00
      1.1000000              1.0000000
D    1   1.00
      0.2750000              1.0000000
F    1   1.00
      0.4500000              1.0000000
****
S     0
S    6   1.00
  21917.1000000              0.0018690
   3301.4900000              0.0142300
    754.1460000              0.0696960
    212.7110000              0.2384870
     67.9896000              0.4833070
     23.0515000              0.3380740
SP   6   1.00
    423.7350000             -0.0023767              0.0040610
    100.7100000             -0.0316930              0.0306810
     32.1599000             -0.1133170              0.1304520
     11.8079000              0.0560900              0.3272050
      4.6311000              0.5922550              0.4528510
      1.8702500              0.4550060              0.2560420
SP   3   1.00
      2.6158400             -0.2503740             -0.0145110
      0.9221670              0.0669570              0.3102630
      0.3412870              1.0545100              0.7544830
SP   1   1.00
      0.1171670              1.0000000              1.0000000
D    1   1.00
      1.3000000              1.0000000
D    1   1.00
      0.3250000              1.0000000
F    1   1.00
      0.5500000              1.0000000
****
Cl     0
S    6   1.00
  25180.1000000              0.0018330
   3780.3500000              0.0140340
    860.4740000              0.0690970
    242.1450000              0.2374520
     77.3349000              0.4830340
     26.2470000              0.3398560
SP   6   1.00
    491.7650000             -0.0022974              0.0039894
    116.9840000             -0.0307140              0.0303180
     37.4153000             -0.1125280              0.1298800
     13.7834000              0.0450160              0.3279510
      5.4521500              0.5893530              0.4535270
      2.2258800              0.4652060              0.2521540
SP   3   1.00
      3.1864900             -0.2518300             -0.0142990
      1.1442700              0.0615890              0.3235720
      0.4203770              1.0601800              0.7435070
SP   1   1.00
      0.1426570              1.0000000              1.0000000
D    1   1.00
      1.5000000              1.0000000
D    1   1.00
      0.3750000              1.0000000
F    1   1.00
      0.7000000              1.0000000
****
}

set {
reference uhf
freeze_core true
e_convergence 10
d_convergence 10
dft_spherical_points 1202
dft_radial_points 99
}

e = energy('b3lyp')

print_out('Grab this energy {0}'.format(e))
--------------------------------------------------------------------------

    Molecular point group: c1

    Geometry (in Bohr), charge = 0, multiplicity = 2:

       Center              X                  Y                   Z               Mass
    ------------   -----------------  -----------------  -----------------  -----------------
         C           -0.323238157569     0.000002827842     0.003547549237    12.000000000000
         C            0.061586534431    -1.393930131858    -2.422027105763    12.000000000000
         C            0.060942597731     2.800104272242    -0.007673634963    12.000000000000
         C            0.060542822831    -1.406172197658     2.427883563937    12.000000000000
         H            2.087664609931    -1.635554057258    -2.845235935363     1.007825032230
         H           -0.765640215769    -0.379275468758    -4.020337120263     1.007825032230
         H           -0.763051049469    -3.286366322558    -2.350698400763     1.007825032230
         H            2.086846895031     3.288577225642    -0.012595071163     1.007825032230
         H           -0.762667153169     3.688302575742     1.665478395237     1.007825032230
         H           -0.768181125769     3.673124367942    -1.687272675263     1.007825032230
         H            2.086315719531    -1.653136289558     2.850498862437     1.007825032230
         H           -0.767639123269    -3.297908292458     2.348218487337     1.007825032230
         H           -0.764713595969    -0.397820541058     4.031340209537     1.007825032230

  Charge       = 0
  Multiplicity = 2
  Basis Set: ANONYMOUS5CDE4DE1
    Blend: 6-31G_2DFP_
  Basis Set: (ANONYMOUS5CDE4DE1 AUX)
    Blend: DEF2-UNIVERSAL-JKFIT

    Orbital Energies [Eh]
    ---------------------

    Alpha Occupied:

       1A    -10.180290     2A    -10.167339     3A    -10.167068
       4A    -10.166796     5A     -0.798027     6A     -0.686416
       7A     -0.685974     8A     -0.530943     9A     -0.441136
      10A     -0.435004    11A     -0.434474    12A     -0.382606
      13A     -0.382315    14A     -0.363409    15A     -0.338431
      16A     -0.337883    17A     -0.168982

    Alpha Virtual:

      18A      0.076064    19A      0.133858    20A      0.134337
      21A      0.142356    22A      0.142632    23A      0.154986
      24A      0.178389    25A      0.178837    26A      0.203834
      27A      0.214683    28A      0.276056    29A      0.276398
      30A      0.399048    31A      0.399330    32A      0.403324
      33A      0.423914    34A      0.424183    35A      0.456776
      36A      0.494975    37A      0.495776    38A      0.512117
      39A      0.513929    40A      0.578506    41A      0.579017
      42A      0.591522    43A      0.591554    44A      0.602531
      45A      0.624648    46A      0.631539    47A      0.636084
      48A      0.636529    49A      0.663311    50A      0.663746
      51A      0.683597    52A      0.684083    53A      0.734861
      54A      0.824601    55A      0.826243    56A      0.854051
      57A      0.914744    58A      0.915228    59A      0.944098
      60A      0.944826    61A      0.961070    62A      0.961591
      63A      1.003300    64A      1.127039    65A      1.129356
      66A      1.142632    67A      1.162166    68A      1.163147
      69A      1.223761    70A      1.274106    71A      1.275144
      72A      1.279517    73A      1.324468    74A      1.324641
      75A      1.356329    76A      1.365434    77A      1.366899
      78A      1.391939    79A      1.402571    80A      1.404169
      81A      1.416613    82A      1.417594    83A      1.427676
      84A      1.491958    85A      1.498481    86A      1.542647
      87A      1.543340    88A      1.572724    89A      1.576480
      90A      1.669036    91A      1.738852    92A      1.740948
      93A      1.768325    94A      1.830458    95A      1.831495
      96A      1.972323    97A      2.018037    98A      2.018398
      99A      2.021197   100A      2.050542   101A      2.055705
     102A      2.738392   103A      2.738928   104A      2.791144
     105A      2.811527   106A      2.889960   107A      2.890150
     108A      2.895351   109A      2.929153   110A      2.929516
     111A      2.958939   112A      2.963469   113A      2.965258
     114A      3.034185   115A      3.070225   116A      3.072214
     117A      3.084785   118A      3.168130   119A      3.169679
     120A      3.181154   121A      3.284273   122A      3.285678
     123A      3.326461   124A      3.328360   125A      3.375565
     126A      3.489732   127A      3.490689   128A      3.514181
     129A      3.525650   130A      3.567431   131A      3.569682
     132A      3.575248   133A      3.665476   134A      3.665720
     135A      3.679088   136A      3.693553   137A      3.694470
     138A      3.775994   139A      3.777632   140A      3.789000
     141A      3.911904   142A      3.914756   143A      4.035035
     144A      4.109741   145A      4.112472   146A      4.146452
     147A      4.149755   148A      4.173912   149A      4.202028
     150A      4.203548   151A      4.205381   152A      4.211323
     153A      4.315794   154A      4.315850   155A      4.358362
     156A      4.423078   157A      4.423366   158A      4.441588
     159A      4.516369   160A      4.518014   161A      4.577913
     162A      4.580065   163A      4.617912   164A      4.710726
     165A      4.774090   166A      4.776693   167A      4.838264
     168A      4.961550   169A      5.001098   170A      5.003072
     171A      5.227499   172A      5.246382   173A      5.246698
     174A      5.354954   175A      5.356370   176A      5.480550

    Beta Occupied:

       1A    -10.168097     2A    -10.167829     3A    -10.167561
       4A    -10.166478     5A     -0.781337     6A     -0.684217
       7A     -0.683767     8A     -0.511960     9A     -0.431365
      10A     -0.430818    11A     -0.421790    12A     -0.376685
      13A     -0.376375    14A     -0.362389    15A     -0.333573
      16A     -0.333017

    Beta Virtual:

      17A     -0.025913    18A      0.077077    19A      0.134745
      20A      0.135246    21A      0.144235    22A      0.144499
      23A      0.163488    24A      0.182066    25A      0.182533
      26A      0.214915    27A      0.219167    28A      0.282373
      29A      0.282738    30A      0.400279    31A      0.400510
      32A      0.419716    33A      0.426711    34A      0.427011
      35A      0.468763    36A      0.497241    37A      0.498050
      38A      0.513862    39A      0.556239    40A      0.584086
      41A      0.584537    42A      0.597677    43A      0.597736
      44A      0.609945    45A      0.628066    46A      0.631700
      47A      0.639370    48A      0.639848    49A      0.666850
      50A      0.667336    51A      0.686192    52A      0.686782
      53A      0.757307    54A      0.829774    55A      0.831436
      56A      0.855416    57A      0.922699    58A      0.923208
      59A      0.945964    60A      0.953752    61A      0.966333
      62A      0.966955    63A      1.008528    64A      1.131069
      65A      1.133371    66A      1.156042    67A      1.167198
      68A      1.168247    69A      1.232672    70A      1.279732
      71A      1.280778    72A      1.285246    73A      1.329465
      74A      1.329668    75A      1.365756    76A      1.370508
      77A      1.372179    78A      1.393010    79A      1.406108
      80A      1.407637    81A      1.421658    82A      1.422643
      83A      1.427937    84A      1.493022    85A      1.508946
      86A      1.546973    87A      1.547869    88A      1.580724
      89A      1.584189    90A      1.673877    91A      1.744616
      92A      1.746704    93A      1.779143    94A      1.834320
      95A      1.835393    96A      1.973192    97A      2.024777
      98A      2.027720    99A      2.039431   100A      2.057310
     101A      2.062293   102A      2.746651   103A      2.747278
     104A      2.811938   105A      2.816245   106A      2.902645
     107A      2.902763   108A      2.925094   109A      2.931758
     110A      2.931937   111A      2.960004   112A      2.968073
     113A      2.969799   114A      3.042163   115A      3.080026
     116A      3.082206   117A      3.086735   118A      3.183897
     119A      3.185212   120A      3.188807   121A      3.289191
     122A      3.290460   123A      3.330253   124A      3.332168
     125A      3.383414   126A      3.492474   127A      3.493417
     128A      3.512554   129A      3.528667   130A      3.574639
     131A      3.580932   132A      3.583186   133A      3.670031
     134A      3.670311   135A      3.692384   136A      3.725340
     137A      3.726151   138A      3.780601   139A      3.782281
     140A      3.817410   141A      3.921682   142A      3.924535
     143A      4.045843   144A      4.116659   145A      4.119375
     146A      4.153663   147A      4.156859   148A      4.188027
     149A      4.207942   150A      4.211241   151A      4.211622
     152A      4.215847   153A      4.323127   154A      4.323213
     155A      4.361746   156A      4.431346   157A      4.431612
     158A      4.444526   159A      4.524318   160A      4.525765
     161A      4.588454   162A      4.590765   163A      4.625124
     164A      4.721074   165A      4.781004   166A      4.783680
     167A      4.841180   168A      4.966366   169A      5.005161
     170A      5.007134   171A      5.233229   172A      5.248172
     173A      5.248499   174A      5.361445   175A      5.362897
     176A      5.482879

    Final Occupation by Irrep:
              A
    DOCC [    16 ]
    SOCC [     1 ]

  @DF-UKS Final Energy:  -157.81308521926869

   => Energetics <=

    Nuclear Repulsion Energy =            125.4228045196829271
    One-Electron Energy =                -458.8043561809892594
    Two-Electron Energy =                 195.8754960020008866
    DFT Exchange-Correlation Energy =     -20.3070295599632473
    Empirical Dispersion Energy =           0.0000000000000000
    VV10 Nonlocal Energy =                  0.0000000000000000
    Total Energy =                       -157.8130852192686859

  UHF NO Occupations:
  HONO-2 :   15  A 1.9995993
  HONO-1 :   16  A 1.9989827
  HONO-0 :   17  A 1.0000000
  LUNO+0 :   18  A 0.0010173
  LUNO+1 :   19  A 0.0004007
  LUNO+2 :   20  A 0.0001971
  LUNO+3 :   21  A 0.0001964

Computation Completed

Properties will be evaluated at   0.000000,   0.000000,   0.000000 [a0]

Properties computed using the SCF density matrix

  Nuclear Dipole Moment: [e a0]
     X:     0.8279      Y:    -0.0000      Z:    -0.0102

  Electronic Dipole Moment: [e a0]
     X:    -0.7502      Y:     0.0000      Z:     0.0110

  Dipole Moment: [e a0]
     X:     0.0778      Y:    -0.0000      Z:     0.0007     Total:     0.0778

  Dipole Moment: [D]
     X:     0.1977      Y:    -0.0000      Z:     0.0019     Total:     0.1977

*** tstop() called on n061 at Fri Nov  5 13:29:37 2021
Module time:
	user time   =     544.70 seconds =       9.08 minutes
	system time =      12.06 seconds =       0.20 minutes
	total time  =        140 seconds =       2.33 minutes
Total time:
	user time   =     544.70 seconds =       9.08 minutes
	system time =      12.06 seconds =       0.20 minutes
	total time  =        140 seconds =       2.33 minutes
Grab this energy -157.8130852192687
    Psi4 stopped on: Friday, 05 November 2021 01:29PM
    Psi4 wall time for execution: 0:02:20.02

*** Psi4 exiting successfully. Buy a developer a beer!
