                               Psi4 1.4a2.dev629

  ==> Input File <==

--------------------------------------------------------------------------
import os
memory 14 GB

molecule {
 C   -0.3233200833   -0.0050083600   -0.0000000000
 C    0.0610212132   -1.3989980288   -2.4339154753
 C    0.0618097378    2.7954782190    0.0000000000
 C    0.0610212132   -1.3989980288    2.4339154753
 H    2.0865970078   -1.6377771240   -2.8557836635
 H   -0.7684454191   -0.3794301208   -4.0269635595
 H   -0.7638291705   -3.2901052434   -2.3616666510
 H    2.0876285649    3.2784453437    0.0000000000
 H   -0.7647066795    3.6718407589    1.6764072251
 H   -0.7647066795    3.6718407589   -1.6764072251
 H    2.0865970078   -1.6377771240    2.8557836635
 H   -0.7638291705   -3.2901052434    2.3616666510
 H   -0.7684454191   -0.3794301208    4.0269635595
units bohr
0 2
}

basis {

assign 6-31g_2dfp_

[ 6-31g_2dfp_ ]

spherical

!----------------------------------------------------------------------
! Basis Set Exchange
! Version v0.8.13
! https://www.basissetexchange.org
!----------------------------------------------------------------------
!   Basis set: 6-31G(2df,p)
! Description: 6-31G(2df,p)
!        Role: orbital
!     Version: 0  (Data from the original Basis Set Exchange)
!----------------------------------------------------------------------

****
H     0
S    3   1.00
     18.7311370              0.03349460
      2.8253937              0.23472695
      0.6401217              0.81375733
S    1   1.00
      0.1612778              1.00000000
P    1   1.00
      1.5000000              1.0000000
P    1   1.00
      0.3750000              1.0000000
****
B     0
S    6   1.00
   2068.8823000              0.0018663
    310.6495700              0.0142515
     70.6830330              0.0695516
     19.8610800              0.2325729
      6.2993048              0.4670787
      2.1270270              0.3634314
SP   3   1.00
      4.7279710             -0.1303938              0.0745976
      1.1903377             -0.1307889              0.3078467
      0.3594117              1.1309444              0.7434568
SP   1   1.00
      0.1267512              1.0000000              1.0000000
D    1   1.00
      0.8020000              1.0000000
D    1   1.00
      0.2005000              1.0000000
F    1   1.00
      0.5000000              1.0000000
****
C     0
S    6   1.00
   3047.5249000              0.0018347
    457.3695100              0.0140373
    103.9486900              0.0688426
     29.2101550              0.2321844
      9.2866630              0.4679413
      3.1639270              0.3623120
SP   3   1.00
      7.8682724             -0.1193324              0.0689991
      1.8812885             -0.1608542              0.3164240
      0.5442493              1.1434564              0.7443083
SP   1   1.00
      0.1687144              1.0000000              1.0000000
D    1   1.00
      1.2520000              1.0000000
D    1   1.00
      0.3130000              1.0000000
F    1   1.00
      0.8000000              1.0000000
****
N     0
S    6   1.00
   4173.5110000              0.0018348
    627.4579000              0.0139950
    142.9021000              0.0685870
     40.2343300              0.2322410
     12.8202100              0.4690700
      4.3904370              0.3604550
SP   3   1.00
     11.6263580             -0.1149610              0.0675800
      2.7162800             -0.1691180              0.3239070
      0.7722180              1.1458520              0.7408950
SP   1   1.00
      0.2120313              1.0000000              1.0000000
D    1   1.00
      1.8260000              1.0000000
D    1   1.00
      0.4565000              1.0000000
F    1   1.00
      1.0000000              1.0000000
****
O     0
S    6   1.00
   5484.6717000              0.0018311
    825.2349500              0.0139501
    188.0469600              0.0684451
     52.9645000              0.2327143
     16.8975700              0.4701930
      5.7996353              0.3585209
SP   3   1.00
     15.5396160             -0.1107775              0.0708743
      3.5999336             -0.1480263              0.3397528
      1.0137618              1.1307670              0.7271586
SP   1   1.00
      0.2700058              1.0000000              1.0000000
D    1   1.00
      2.5840000              1.0000000
D    1   1.00
      0.6460000              1.0000000
F    1   1.00
      1.4000000              1.0000000
****
F     0
S    6   1.00
   7001.7130900              0.0018196169
   1051.3660900              0.0139160796
    239.2856900              0.0684053245
     67.3974453              0.233185760
     21.5199573              0.471267439
      7.40310130             0.356618546
SP   3   1.00
     20.8479528             -0.108506975            0.0716287243
      4.80830834            -0.146451658            0.3459121030
      1.34406986             1.128688580            0.7224699570
SP   1   1.00
      0.358151393            1.0000000              1.0000000
D    1   1.00
      3.5000000              1.0000000
D    1   1.00
      0.8750000              1.0000000
F    1   1.00
      1.8500000              1.0000000
****
Al     0
S    6   1.00
  13983.1000000              0.00194267
   2098.7500000              0.0148599
    477.7050000              0.0728494
    134.3600000              0.2468300
     42.8709000              0.4872580
     14.5189000              0.3234960
SP   6   1.00
    239.6680000             -0.00292619             0.00460285
     57.4419000             -0.0374080              0.0331990
     18.2859000             -0.1144870              0.1362820
      6.5991400              0.1156350              0.3304760
      2.4904900              0.6125950              0.4491460
      0.9445400              0.3937990              0.2657040
SP   3   1.00
      1.2779000             -0.2276060             -0.0175130
      0.3975900              0.00144583             0.2445330
      0.1600950              1.0927900              0.8049340
SP   1   1.00
      0.0556577              1.0000000              1.0000000
D    1   1.00
      0.6500000              1.0000000
D    1   1.00
      0.1625000              1.0000000
F    1   1.00
      0.2500000              1.0000000
****
Si     0
S    6   1.00
  16115.9000000              0.00195948
   2425.5800000              0.01492880
    553.8670000              0.07284780
    156.3400000              0.24613000
     50.0683000              0.48591400
     17.0178000              0.32500200
SP   6   1.00
    292.7180000             -0.00278094             0.00443826
     69.8731000             -0.03571460             0.03266790
     22.3363000             -0.11498500             0.13472100
      8.1503900              0.09356340             0.32867800
      3.1345800              0.60301700             0.44964000
      1.2254300              0.41895900             0.26137200
SP   3   1.00
      1.7273800             -0.24463000            -0.01779510
      0.5729220              0.00431572             0.25353900
      0.2221920              1.09818000             0.80066900
SP   1   1.00
      0.0778369              1.00000000             1.00000000
D    1   1.00
      0.9000000              1.0000000
D    1   1.00
      0.2250000              1.0000000
F    1   1.00
      0.3200000              1.0000000
****
P     0
S    6   1.00
  19413.3000000              0.0018516
   2909.4200000              0.0142062
    661.3640000              0.0699995
    185.7590000              0.2400790
     59.1943000              0.4847620
     20.0310000              0.3352000
SP   6   1.00
    339.4780000             -0.00278217             0.00456462
     81.0101000             -0.0360499              0.03369360
     25.8780000             -0.1166310              0.13975500
      9.4522100              0.0968328              0.33936200
      3.6656600              0.6144180              0.45092100
      1.4674600              0.4037980              0.23858600
SP   3   1.00
      2.1562300             -0.2529230             -0.01776530
      0.7489970              0.0328517              0.27405800
      0.2831450              1.0812500              0.78542100
SP   1   1.00
      0.0998317              1.0000000              1.00000000
D    1   1.00
      1.1000000              1.0000000
D    1   1.00
      0.2750000              1.0000000
F    1   1.00
      0.4500000              1.0000000
****
S     0
S    6   1.00
  21917.1000000              0.0018690
   3301.4900000              0.0142300
    754.1460000              0.0696960
    212.7110000              0.2384870
     67.9896000              0.4833070
     23.0515000              0.3380740
SP   6   1.00
    423.7350000             -0.0023767              0.0040610
    100.7100000             -0.0316930              0.0306810
     32.1599000             -0.1133170              0.1304520
     11.8079000              0.0560900              0.3272050
      4.6311000              0.5922550              0.4528510
      1.8702500              0.4550060              0.2560420
SP   3   1.00
      2.6158400             -0.2503740             -0.0145110
      0.9221670              0.0669570              0.3102630
      0.3412870              1.0545100              0.7544830
SP   1   1.00
      0.1171670              1.0000000              1.0000000
D    1   1.00
      1.3000000              1.0000000
D    1   1.00
      0.3250000              1.0000000
F    1   1.00
      0.5500000              1.0000000
****
Cl     0
S    6   1.00
  25180.1000000              0.0018330
   3780.3500000              0.0140340
    860.4740000              0.0690970
    242.1450000              0.2374520
     77.3349000              0.4830340
     26.2470000              0.3398560
SP   6   1.00
    491.7650000             -0.0022974              0.0039894
    116.9840000             -0.0307140              0.0303180
     37.4153000             -0.1125280              0.1298800
     13.7834000              0.0450160              0.3279510
      5.4521500              0.5893530              0.4535270
      2.2258800              0.4652060              0.2521540
SP   3   1.00
      3.1864900             -0.2518300             -0.0142990
      1.1442700              0.0615890              0.3235720
      0.4203770              1.0601800              0.7435070
SP   1   1.00
      0.1426570              1.0000000              1.0000000
D    1   1.00
      1.5000000              1.0000000
D    1   1.00
      0.3750000              1.0000000
F    1   1.00
      0.7000000              1.0000000
****
}

set {
reference uhf
freeze_core true
e_convergence 10
d_convergence 10
dft_spherical_points 1202
dft_radial_points 99
}

e = energy('b3lyp')

print_out('Grab this energy {0}'.format(e))
--------------------------------------------------------------------------

    Molecular point group: cs

    Geometry (in Bohr), charge = 0, multiplicity = 2:

       Center              X                  Y                   Z               Mass
    ------------   -----------------  -----------------  -----------------  -----------------
         C           -0.323430267281    -0.003558330581     0.000000000000    12.000000000000
         C            0.060911029219    -1.397547999381    -2.433915475300    12.000000000000
         C            0.061699553819     2.796928248419     0.000000000000    12.000000000000
         C            0.060911029219    -1.397547999381     2.433915475300    12.000000000000
         H            2.086486823819    -1.636327094581    -2.855783663500     1.007825032230
         H           -0.768555603081    -0.377980091381    -4.026963559500     1.007825032230
         H           -0.763939354481    -3.288655213981    -2.361666651000     1.007825032230
         H            2.087518380919     3.279895373119     0.000000000000     1.007825032230
         H           -0.764816863481     3.673290788319     1.676407225100     1.007825032230
         H           -0.764816863481     3.673290788319    -1.676407225100     1.007825032230
         H            2.086486823819    -1.636327094581     2.855783663500     1.007825032230
         H           -0.763939354481    -3.288655213981     2.361666651000     1.007825032230
         H           -0.768555603081    -0.377980091381     4.026963559500     1.007825032230

  Charge       = 0
  Multiplicity = 2
  Basis Set: ANONYMOUS74A2318F
    Blend: 6-31G_2DFP_
  Basis Set: (ANONYMOUS74A2318F AUX)
    Blend: DEF2-UNIVERSAL-JKFIT

    Orbital Energies [Eh]
    ---------------------

    Alpha Occupied:

       1Ap   -10.180393     1App  -10.167133     2Ap   -10.167105
       3Ap   -10.166650     4Ap    -0.797512     2App   -0.686396
       5Ap    -0.685957     6Ap    -0.530610     7Ap    -0.441116
       3App   -0.434869     8Ap    -0.434339     4App   -0.382880
       9Ap    -0.382592     5App   -0.363812     6App   -0.338107
      10Ap    -0.337568    11Ap    -0.168940

    Alpha Virtual:

      12Ap     0.076080     7App    0.133975    13Ap     0.134453
       8App    0.142624    14Ap     0.142898    15Ap     0.154775
       9App    0.178721    16Ap     0.179167    17Ap     0.203253
      10App    0.214931    11App    0.275575    18Ap     0.275913
      12App    0.399098    19Ap     0.399305    20Ap     0.403506
      13App    0.424021    21Ap     0.424291    22Ap     0.456415
      14App    0.494996    23Ap     0.495794    15App    0.512226
      24Ap     0.514044    16App    0.578610    25Ap     0.579080
      17App    0.591713    26Ap     0.591764    27Ap     0.602617
      28Ap     0.624888    18App    0.631999    29Ap     0.635977
      19App    0.636412    20App    0.663082    30Ap     0.663515
      21App    0.683629    31Ap     0.684108    32Ap     0.735125
      22App    0.824558    33Ap     0.826204    23App    0.853778
      24App    0.914833    34Ap     0.915305    25App    0.944010
      35Ap     0.944205    36Ap     0.961207    26App    0.961711
      37Ap     1.003638    27App    1.126891    38Ap     1.129197
      39Ap     1.141798    28App    1.163398    40Ap     1.164351
      41Ap     1.222912    29App    1.273846    42Ap     1.274888
      43Ap     1.279192    44Ap     1.324076    30App    1.324232
      45Ap     1.355656    31App    1.365135    46Ap     1.366642
      32App    1.392915    33App    1.404020    47Ap     1.405606
      34App    1.416621    48Ap     1.417636    35App    1.428184
      36App    1.490912    49Ap     1.499645    37App    1.542325
      50Ap     1.543021    38App    1.572573    51Ap     1.576224
      52Ap     1.670608    39App    1.737842    53Ap     1.739937
      54Ap     1.768375    40App    1.831340    55Ap     1.832346
      41App    1.971131    42App    2.016860    56Ap     2.018487
      57Ap     2.019727    43App    2.049754    58Ap     2.054779
      44App    2.738049    59Ap     2.738573    60Ap     2.790695
      45App    2.811353    61Ap     2.889732    46App    2.889954
      62Ap     2.894538    47App    2.929483    63Ap     2.929813
      48App    2.959036    49App    2.963537    64Ap     2.965303
      65Ap     3.033839    50App    3.070306    66Ap     3.072338
      51App    3.083979    52App    3.167951    67Ap     3.169448
      68Ap     3.179964    69Ap     3.284921    53App    3.286353
      54App    3.325976    70Ap     3.327864    71Ap     3.375752
      55App    3.489520    72Ap     3.490545    56App    3.513882
      73Ap     3.524955    57App    3.566866    74Ap     3.569339
      58App    3.575461    59App    3.667064    75Ap     3.667256
      76Ap     3.680233    77Ap     3.693783    60App    3.694676
      78Ap     3.775821    61App    3.777592    79Ap     3.789569
      62App    3.909712    80Ap     3.912542    81Ap     4.033923
      63App    4.110287    82Ap     4.113026    64App    4.146468
      83Ap     4.149761    84Ap     4.172555    65App    4.200680
      85Ap     4.201776    86Ap     4.204113    66App    4.210578
      87Ap     4.316037    67App    4.316069    68App    4.359632
      69App    4.425416    88Ap     4.425757    70App    4.445497
      71App    4.515716    89Ap     4.517332    72App    4.576479
      90Ap     4.578614    91Ap     4.617147    92Ap     4.708161
      73App    4.772454    93Ap     4.775130    74App    4.835605
      94Ap     4.964177    75App    5.002847    95Ap     5.004845
      96Ap     5.228552    97Ap     5.246949    76App    5.247257
      77App    5.354643    98Ap     5.356039    78App    5.478116

    Beta Occupied:

       1App  -10.167884     1Ap   -10.167867     2Ap   -10.167413
       3Ap   -10.166558     4Ap    -0.780853     2App   -0.684208
       5Ap    -0.683761     6Ap    -0.511535     3App   -0.431266
       7Ap    -0.430722     8Ap    -0.421855     4App   -0.376990
       9Ap    -0.376683     5App   -0.362800     6App   -0.333220
      10Ap    -0.332672

    Beta Virtual:

      11Ap    -0.025573    12Ap     0.077085     7App    0.134846
      13Ap     0.135345     8App    0.144498    14Ap     0.144761
      15Ap     0.163192     9App    0.182368    16Ap     0.182833
      10App    0.215159    17Ap     0.218684    11App    0.281931
      18Ap     0.282292    12App    0.400284    19Ap     0.400503
      20Ap     0.419883    13App    0.426814    21Ap     0.427117
      22Ap     0.468249    14App    0.497244    23Ap     0.498055
      15App    0.513953    24Ap     0.556417    16App    0.584190
      25Ap     0.584605    17App    0.597889    26Ap     0.597963
      27Ap     0.610043    28Ap     0.628232    18App    0.632153
      29Ap     0.639230    19App    0.639695    20App    0.666617
      30Ap     0.667101    21App    0.686203    31Ap     0.686785
      32Ap     0.757724    22App    0.829700    33Ap     0.831367
      23App    0.855119    24App    0.922795    34Ap     0.923290
      25App    0.945861    35Ap     0.953107    36Ap     0.966473
      26App    0.967037    37Ap     1.008885    27App    1.130932
      38Ap     1.133228    39Ap     1.155133    28App    1.168449
      40Ap     1.169471    41Ap     1.231940    29App    1.279406
      42Ap     1.280459    43Ap     1.284969    44Ap     1.329026
      30App    1.329217    45Ap     1.365063    31App    1.370331
      46Ap     1.372047    32App    1.393967    33App    1.407487
      47Ap     1.409015    34App    1.421664    48Ap     1.422681
      35App    1.428469    36App    1.491951    49Ap     1.510067
      37App    1.546612    50Ap     1.547502    38App    1.580604
      51Ap     1.583974    52Ap     1.675461    39App    1.743609
      53Ap     1.745699    54Ap     1.779112    40App    1.835153
      55Ap     1.836194    41App    1.971986    42App    2.023139
      56Ap     2.026126    57Ap     2.039854    43App    2.056595
      58Ap     2.061449    44App    2.746370    59Ap     2.746986
      45App    2.811766    60Ap     2.815864    61Ap     2.902498
      46App    2.902645    62Ap     2.924206    47App    2.932025
      63Ap     2.932178    48App    2.960107    49App    2.968075
      64Ap     2.969785    65Ap     3.041732    50App    3.079961
      66Ap     3.082312    51App    3.085900    52App    3.183900
      67Ap     3.185164    68Ap     3.187679    69Ap     3.289742
      53App    3.291037    54App    3.329778    70Ap     3.331683
      71Ap     3.383537    55App    3.492241    72Ap     3.493261
      56App    3.512259    73Ap     3.528046    57App    3.574848
      58App    3.580745    74Ap     3.582740    59App    3.671973
      75Ap     3.672226    76Ap     3.693533    77Ap     3.725323
      60App    3.726147    78Ap     3.780335    61App    3.782073
      79Ap     3.818100    62App    3.919569    80Ap     3.922395
      81Ap     4.044889    63App    4.117010    82Ap     4.119740
      64App    4.153785    83Ap     4.156966    84Ap     4.186563
      65App    4.206579    85Ap     4.209620    86Ap     4.210163
      66App    4.215048    87Ap     4.323549    67App    4.323622
      68App    4.362973    69App    4.433551    88Ap     4.433884
      70App    4.448421    71App    4.523535    89Ap     4.524958
      72App    4.586982    90Ap     4.589277    91Ap     4.624319
      92Ap     4.718504    73App    4.779370    93Ap     4.782122
      74App    4.838527    94Ap     4.968949    75App    5.006864
      95Ap     5.008862    96Ap     5.234249    97Ap     5.248722
      76App    5.249036    77App    5.361077    98Ap     5.362509
      78App    5.480429

    Final Occupation by Irrep:
             Ap   App
    DOCC [    10,    6 ]
    SOCC [     1,    0 ]

  @DF-UKS Final Energy:  -157.81304037022548

   => Energetics <=

    Nuclear Repulsion Energy =            125.3668957859688078
    One-Electron Energy =                -458.6943410021742125
    Two-Electron Energy =                 195.8216666036052800
    DFT Exchange-Correlation Energy =     -20.3072617576253371
    Empirical Dispersion Energy =           0.0000000000000000
    VV10 Nonlocal Energy =                  0.0000000000000000
    Total Energy =                       -157.8130403702254796

  UHF NO Occupations:
  HONO-2 :    9 Ap 1.9996025
  HONO-1 :   10 Ap 1.9989782
  HONO-0 :   11 Ap 1.0000000
  LUNO+0 :   12 Ap 0.0010218
  LUNO+1 :   13 Ap 0.0003975
  LUNO+2 :   14 Ap 0.0001987
  LUNO+3 :    7App 0.0001980

Computation Completed

Properties will be evaluated at   0.000000,   0.000000,   0.000000 [a0]

Properties computed using the SCF density matrix

  Nuclear Dipole Moment: [e a0]
     X:     0.8264      Y:     0.0102      Z:     0.0000

  Electronic Dipole Moment: [e a0]
     X:    -0.7484      Y:    -0.0109      Z:     0.0000

  Dipole Moment: [e a0]
     X:     0.0780      Y:    -0.0007      Z:     0.0000     Total:     0.0781

  Dipole Moment: [D]
     X:     0.1984      Y:    -0.0019      Z:     0.0000     Total:     0.1984

*** tstop() called on n031 at Fri Nov  5 13:30:45 2021
Module time:
	user time   =     631.82 seconds =      10.53 minutes
	system time =      12.18 seconds =       0.20 minutes
	total time  =        162 seconds =       2.70 minutes
Total time:
	user time   =     631.82 seconds =      10.53 minutes
	system time =      12.18 seconds =       0.20 minutes
	total time  =        162 seconds =       2.70 minutes
Grab this energy -157.81304037022548
    Psi4 stopped on: Friday, 05 November 2021 01:30PM
    Psi4 wall time for execution: 0:02:41.94

*** Psi4 exiting successfully. Buy a developer a beer!
