                               Psi4 1.4a2.dev629

  ==> Input File <==

--------------------------------------------------------------------------
import os
memory 14 GB

molecule {
 C   -0.3233406626   -0.0029231550   -0.0000000000
 C    0.0607909906   -1.4017470016   -2.4256491250
 C    0.0617172769    2.8021569207   -0.0000000000
 C    0.0607909906   -1.4017470016    2.4256491250
 H    2.0835589119   -1.6418946608   -2.8494687291
 H   -0.7687134168   -0.3902413482   -4.0199540235
 H   -0.7614962080   -3.2927956183   -2.3489617876
 H    2.0935486239    3.2867801502    0.0000000000
 H   -0.7664068350    3.6836595143    1.6803017065
 H   -0.7664068350    3.6836595143   -1.6803017065
 H    2.0835589119   -1.6418946608    2.8494687291
 H   -0.7614962080   -3.2927956183    2.3489617876
 H   -0.7687134168   -0.3902413482    4.0199540235
units bohr
0 2
}

basis {

assign 6-31g_2dfp_

[ 6-31g_2dfp_ ]

spherical

!----------------------------------------------------------------------
! Basis Set Exchange
! Version v0.8.13
! https://www.basissetexchange.org
!----------------------------------------------------------------------
!   Basis set: 6-31G(2df,p)
! Description: 6-31G(2df,p)
!        Role: orbital
!     Version: 0  (Data from the original Basis Set Exchange)
!----------------------------------------------------------------------

****
H     0
S    3   1.00
     18.7311370              0.03349460
      2.8253937              0.23472695
      0.6401217              0.81375733
S    1   1.00
      0.1612778              1.00000000
P    1   1.00
      1.5000000              1.0000000
P    1   1.00
      0.3750000              1.0000000
****
B     0
S    6   1.00
   2068.8823000              0.0018663
    310.6495700              0.0142515
     70.6830330              0.0695516
     19.8610800              0.2325729
      6.2993048              0.4670787
      2.1270270              0.3634314
SP   3   1.00
      4.7279710             -0.1303938              0.0745976
      1.1903377             -0.1307889              0.3078467
      0.3594117              1.1309444              0.7434568
SP   1   1.00
      0.1267512              1.0000000              1.0000000
D    1   1.00
      0.8020000              1.0000000
D    1   1.00
      0.2005000              1.0000000
F    1   1.00
      0.5000000              1.0000000
****
C     0
S    6   1.00
   3047.5249000              0.0018347
    457.3695100              0.0140373
    103.9486900              0.0688426
     29.2101550              0.2321844
      9.2866630              0.4679413
      3.1639270              0.3623120
SP   3   1.00
      7.8682724             -0.1193324              0.0689991
      1.8812885             -0.1608542              0.3164240
      0.5442493              1.1434564              0.7443083
SP   1   1.00
      0.1687144              1.0000000              1.0000000
D    1   1.00
      1.2520000              1.0000000
D    1   1.00
      0.3130000              1.0000000
F    1   1.00
      0.8000000              1.0000000
****
N     0
S    6   1.00
   4173.5110000              0.0018348
    627.4579000              0.0139950
    142.9021000              0.0685870
     40.2343300              0.2322410
     12.8202100              0.4690700
      4.3904370              0.3604550
SP   3   1.00
     11.6263580             -0.1149610              0.0675800
      2.7162800             -0.1691180              0.3239070
      0.7722180              1.1458520              0.7408950
SP   1   1.00
      0.2120313              1.0000000              1.0000000
D    1   1.00
      1.8260000              1.0000000
D    1   1.00
      0.4565000              1.0000000
F    1   1.00
      1.0000000              1.0000000
****
O     0
S    6   1.00
   5484.6717000              0.0018311
    825.2349500              0.0139501
    188.0469600              0.0684451
     52.9645000              0.2327143
     16.8975700              0.4701930
      5.7996353              0.3585209
SP   3   1.00
     15.5396160             -0.1107775              0.0708743
      3.5999336             -0.1480263              0.3397528
      1.0137618              1.1307670              0.7271586
SP   1   1.00
      0.2700058              1.0000000              1.0000000
D    1   1.00
      2.5840000              1.0000000
D    1   1.00
      0.6460000              1.0000000
F    1   1.00
      1.4000000              1.0000000
****
F     0
S    6   1.00
   7001.7130900              0.0018196169
   1051.3660900              0.0139160796
    239.2856900              0.0684053245
     67.3974453              0.233185760
     21.5199573              0.471267439
      7.40310130             0.356618546
SP   3   1.00
     20.8479528             -0.108506975            0.0716287243
      4.80830834            -0.146451658            0.3459121030
      1.34406986             1.128688580            0.7224699570
SP   1   1.00
      0.358151393            1.0000000              1.0000000
D    1   1.00
      3.5000000              1.0000000
D    1   1.00
      0.8750000              1.0000000
F    1   1.00
      1.8500000              1.0000000
****
Al     0
S    6   1.00
  13983.1000000              0.00194267
   2098.7500000              0.0148599
    477.7050000              0.0728494
    134.3600000              0.2468300
     42.8709000              0.4872580
     14.5189000              0.3234960
SP   6   1.00
    239.6680000             -0.00292619             0.00460285
     57.4419000             -0.0374080              0.0331990
     18.2859000             -0.1144870              0.1362820
      6.5991400              0.1156350              0.3304760
      2.4904900              0.6125950              0.4491460
      0.9445400              0.3937990              0.2657040
SP   3   1.00
      1.2779000             -0.2276060             -0.0175130
      0.3975900              0.00144583             0.2445330
      0.1600950              1.0927900              0.8049340
SP   1   1.00
      0.0556577              1.0000000              1.0000000
D    1   1.00
      0.6500000              1.0000000
D    1   1.00
      0.1625000              1.0000000
F    1   1.00
      0.2500000              1.0000000
****
Si     0
S    6   1.00
  16115.9000000              0.00195948
   2425.5800000              0.01492880
    553.8670000              0.07284780
    156.3400000              0.24613000
     50.0683000              0.48591400
     17.0178000              0.32500200
SP   6   1.00
    292.7180000             -0.00278094             0.00443826
     69.8731000             -0.03571460             0.03266790
     22.3363000             -0.11498500             0.13472100
      8.1503900              0.09356340             0.32867800
      3.1345800              0.60301700             0.44964000
      1.2254300              0.41895900             0.26137200
SP   3   1.00
      1.7273800             -0.24463000            -0.01779510
      0.5729220              0.00431572             0.25353900
      0.2221920              1.09818000             0.80066900
SP   1   1.00
      0.0778369              1.00000000             1.00000000
D    1   1.00
      0.9000000              1.0000000
D    1   1.00
      0.2250000              1.0000000
F    1   1.00
      0.3200000              1.0000000
****
P     0
S    6   1.00
  19413.3000000              0.0018516
   2909.4200000              0.0142062
    661.3640000              0.0699995
    185.7590000              0.2400790
     59.1943000              0.4847620
     20.0310000              0.3352000
SP   6   1.00
    339.4780000             -0.00278217             0.00456462
     81.0101000             -0.0360499              0.03369360
     25.8780000             -0.1166310              0.13975500
      9.4522100              0.0968328              0.33936200
      3.6656600              0.6144180              0.45092100
      1.4674600              0.4037980              0.23858600
SP   3   1.00
      2.1562300             -0.2529230             -0.01776530
      0.7489970              0.0328517              0.27405800
      0.2831450              1.0812500              0.78542100
SP   1   1.00
      0.0998317              1.0000000              1.00000000
D    1   1.00
      1.1000000              1.0000000
D    1   1.00
      0.2750000              1.0000000
F    1   1.00
      0.4500000              1.0000000
****
S     0
S    6   1.00
  21917.1000000              0.0018690
   3301.4900000              0.0142300
    754.1460000              0.0696960
    212.7110000              0.2384870
     67.9896000              0.4833070
     23.0515000              0.3380740
SP   6   1.00
    423.7350000             -0.0023767              0.0040610
    100.7100000             -0.0316930              0.0306810
     32.1599000             -0.1133170              0.1304520
     11.8079000              0.0560900              0.3272050
      4.6311000              0.5922550              0.4528510
      1.8702500              0.4550060              0.2560420
SP   3   1.00
      2.6158400             -0.2503740             -0.0145110
      0.9221670              0.0669570              0.3102630
      0.3412870              1.0545100              0.7544830
SP   1   1.00
      0.1171670              1.0000000              1.0000000
D    1   1.00
      1.3000000              1.0000000
D    1   1.00
      0.3250000              1.0000000
F    1   1.00
      0.5500000              1.0000000
****
Cl     0
S    6   1.00
  25180.1000000              0.0018330
   3780.3500000              0.0140340
    860.4740000              0.0690970
    242.1450000              0.2374520
     77.3349000              0.4830340
     26.2470000              0.3398560
SP   6   1.00
    491.7650000             -0.0022974              0.0039894
    116.9840000             -0.0307140              0.0303180
     37.4153000             -0.1125280              0.1298800
     13.7834000              0.0450160              0.3279510
      5.4521500              0.5893530              0.4535270
      2.2258800              0.4652060              0.2521540
SP   3   1.00
      3.1864900             -0.2518300             -0.0142990
      1.1442700              0.0615890              0.3235720
      0.4203770              1.0601800              0.7435070
SP   1   1.00
      0.1426570              1.0000000              1.0000000
D    1   1.00
      1.5000000              1.0000000
D    1   1.00
      0.3750000              1.0000000
F    1   1.00
      0.7000000              1.0000000
****
}

set {
reference uhf
freeze_core true
e_convergence 10
d_convergence 10
dft_spherical_points 1202
dft_radial_points 99
}

e = energy('b3lyp')

print_out('Grab this energy {0}'.format(e))
--------------------------------------------------------------------------

    Molecular point group: cs

    Geometry (in Bohr), charge = 0, multiplicity = 2:

       Center              X                  Y                   Z               Mass
    ------------   -----------------  -----------------  -----------------  -----------------
         C           -0.323340389169    -0.002102173216     0.000000000000    12.000000000000
         C            0.060791264031    -1.400926019816    -2.425649125000    12.000000000000
         C            0.061717550331     2.802977902484     0.000000000000    12.000000000000
         C            0.060791264031    -1.400926019816     2.425649125000    12.000000000000
         H            2.083559185331    -1.641073679016    -2.849468729100     1.007825032230
         H           -0.768713143369    -0.389420366416    -4.019954023500     1.007825032230
         H           -0.761495934569    -3.291974636516    -2.348961787600     1.007825032230
         H            2.093548897331     3.287601131984     0.000000000000     1.007825032230
         H           -0.766406561569     3.684480496084     1.680301706500     1.007825032230
         H           -0.766406561569     3.684480496084    -1.680301706500     1.007825032230
         H            2.083559185331    -1.641073679016     2.849468729100     1.007825032230
         H           -0.761495934569    -3.291974636516     2.348961787600     1.007825032230
         H           -0.768713143369    -0.389420366416     4.019954023500     1.007825032230

  Charge       = 0
  Multiplicity = 2
  Basis Set: ANONYMOUS2682B66A
    Blend: 6-31G_2DFP_
  Basis Set: (ANONYMOUS2682B66A AUX)
    Blend: DEF2-UNIVERSAL-JKFIT

    Orbital Energies [Eh]
    ---------------------

    Alpha Occupied:

       1Ap   -10.180342     2Ap   -10.167901     1App  -10.166587
       3Ap   -10.166556     4Ap    -0.797769     2App   -0.686651
       5Ap    -0.685721     6Ap    -0.530777     7Ap    -0.441127
       8Ap    -0.434830     3App   -0.434517     4App   -0.382865
       9Ap    -0.382329     5App   -0.363609     6App   -0.338116
      10Ap    -0.337881    11Ap    -0.168961

    Alpha Virtual:

      12Ap     0.076070    13Ap     0.134087     7App    0.134210
       8App    0.142518    14Ap     0.142748    15Ap     0.154870
      16Ap     0.178464     9App    0.179098    17Ap     0.203547
      10App    0.214803    18Ap     0.275695    11App    0.276276
      19Ap     0.399135    12App    0.399316    20Ap     0.403348
      13App    0.424037    21Ap     0.424160    22Ap     0.456594
      23Ap     0.495369    14App    0.495411    15App    0.512160
      24Ap     0.513978    25Ap     0.578498    16App    0.579130
      26Ap     0.591073    17App    0.592163    27Ap     0.602605
      28Ap     0.624766    18App    0.631637    19App    0.636093
      29Ap     0.636546    30Ap     0.663032    20App    0.663802
      31Ap     0.683567    21App    0.684151    32Ap     0.734995
      22App    0.825031    33Ap     0.825774    23App    0.853908
      34Ap     0.914906    24App    0.915151    25App    0.944131
      35Ap     0.944616    26App    0.961083    36Ap     0.961511
      37Ap     1.003453    38Ap     1.127810    27App    1.128399
      39Ap     1.142193    28App    1.163077    40Ap     1.163502
      41Ap     1.223327    42Ap     1.274113    29App    1.274852
      43Ap     1.279362    30App    1.324115    44Ap     1.324592
      45Ap     1.355977    46Ap     1.365502    31App    1.366598
      32App    1.392431    47Ap     1.403326    33App    1.404763
      48Ap     1.416524    34App    1.417690    35App    1.427927
      36App    1.491491    49Ap     1.499096    50Ap     1.542755
      37App    1.542917    38App    1.573949    51Ap     1.574960
      52Ap     1.669808    53Ap     1.739191    39App    1.739611
      54Ap     1.768316    55Ap     1.829449    40App    1.833411
      41App    1.971680    56Ap     2.017826    42App    2.018975
      57Ap     2.019554    58Ap     2.051784    43App    2.053600
      44App    2.738094    59Ap     2.738874    60Ap     2.790929
      45App    2.811425    61Ap     2.889254    46App    2.890654
      62Ap     2.894930    47App    2.929221    63Ap     2.929775
      48App    2.959007    64Ap     2.964106    49App    2.964649
      65Ap     3.034031    66Ap     3.070777    50App    3.071787
      51App    3.084369    52App    3.168705    67Ap     3.168790
      68Ap     3.180655    53App    3.285296    69Ap     3.285346
      70Ap     3.326758    54App    3.327568    71Ap     3.375603
      55App    3.489558    72Ap     3.490766    56App    3.514017
      73Ap     3.525357    74Ap     3.567524    57App    3.569230
      58App    3.575165    75Ap     3.665616    59App    3.666912
      76Ap     3.679813    77Ap     3.693325    60App    3.694927
      61App    3.776073    78Ap     3.777537    79Ap     3.789177
      80Ap     3.911296    62App    3.913168    81Ap     4.034398
      82Ap     4.109520    63App    4.113055    64App    4.146531
      83Ap     4.149583    84Ap     4.173343    85Ap     4.200684
      65App    4.203910    86Ap     4.204036    66App    4.211349
      87Ap     4.314752    67App    4.317131    68App    4.358956
      69App    4.423547    88Ap     4.425182    70App    4.443616
      89Ap     4.515792    71App    4.517830    90Ap     4.578014
      72App    4.578571    91Ap     4.617535    92Ap     4.709510
      73App    4.774086    93Ap     4.775181    74App    4.836900
      94Ap     4.962829    95Ap     5.001834    75App    5.004149
      96Ap     5.227742    76App    5.242896    97Ap     5.250629
      98Ap     5.351829    77App    5.359496    78App    5.479466

    Beta Occupied:

       1Ap   -10.168661     1App  -10.167338     2Ap   -10.167328
       3Ap   -10.166515     4Ap    -0.781095     2App   -0.684442
       5Ap    -0.683534     6Ap    -0.511748     7Ap    -0.431219
       3App   -0.430869     8Ap    -0.421825     4App   -0.376948
       9Ap    -0.376417     5App   -0.362593     6App   -0.333247
      10Ap    -0.332996

    Beta Virtual:

      11Ap    -0.025742    12Ap     0.077079    13Ap     0.135030
       7App    0.135047     8App    0.144427    14Ap     0.144581
      15Ap     0.163328    16Ap     0.182139     9App    0.182769
      10App    0.215033    17Ap     0.218929    18Ap     0.282056
      11App    0.282610    19Ap     0.400310    12App    0.400484
      20Ap     0.419790    13App    0.426858    21Ap     0.426962
      22Ap     0.468502    23Ap     0.497622    14App    0.497678
      15App    0.513895    24Ap     0.556321    25Ap     0.584030
      16App    0.584699    26Ap     0.597301    17App    0.598298
      27Ap     0.610019    28Ap     0.628145    18App    0.631854
      19App    0.639362    29Ap     0.639790    30Ap     0.666595
      20App    0.667368    31Ap     0.686224    21App    0.686764
      32Ap     0.757518    22App    0.830145    33Ap     0.830996
      23App    0.855262    34Ap     0.922871    24App    0.923126
      25App    0.945967    35Ap     0.953546    26App    0.966448
      36Ap     0.966759    37Ap     1.008693    38Ap     1.131875
      27App    1.132388    39Ap     1.155561    28App    1.168200
      40Ap     1.168536    41Ap     1.232300    42Ap     1.279699
      29App    1.280457    43Ap     1.285119    30App    1.329045
      44Ap     1.329642    45Ap     1.365384    46Ap     1.370806
      31App    1.371788    32App    1.393492    47Ap     1.406746
      33App    1.408274    48Ap     1.421538    34App    1.422770
      35App    1.428200    36App    1.492540    49Ap     1.509538
      50Ap     1.547237    37App    1.547248    38App    1.581872
      51Ap     1.582782    52Ap     1.674653    53Ap     1.744928
      39App    1.745403    54Ap     1.779091    55Ap     1.833329
      40App    1.837244    41App    1.972545    56Ap     2.025319
      42App    2.025478    57Ap     2.039728    58Ap     2.058593
      43App    2.060223    44App    2.746442    59Ap     2.747200
      45App    2.811837    60Ap     2.816063    61Ap     2.902080
      46App    2.903197    62Ap     2.924621    47App    2.931757
      63Ap     2.932217    48App    2.960070    64Ap     2.968603
      49App    2.969248    65Ap     3.041965    66Ap     3.080673
      50App    3.081681    51App    3.086217    67Ap     3.184356
      52App    3.184492    68Ap     3.188484    53App    3.290071
      69Ap     3.290168    70Ap     3.330550    54App    3.331385
      71Ap     3.383422    55App    3.492341    72Ap     3.493444
      56App    3.512382    73Ap     3.528402    57App    3.574986
      74Ap     3.580924    58App    3.582544    75Ap     3.670252
      59App    3.671847    76Ap     3.693051    77Ap     3.725096
      60App    3.726399    61App    3.780613    78Ap     3.782083
      79Ap     3.817693    80Ap     3.921171    62App    3.922928
      81Ap     4.045278    82Ap     4.116560    63App    4.119616
      64App    4.153909    83Ap     4.156669    84Ap     4.187390
      85Ap     4.207161    65App    4.209876    86Ap     4.211401
      66App    4.215861    87Ap     4.322283    67App    4.324472
      68App    4.362323    69App    4.431755    88Ap     4.433324
      70App    4.446588    89Ap     4.523653    71App    4.525546
      90Ap     4.588561    72App    4.589220    91Ap     4.624730
      92Ap     4.719855    73App    4.781111    93Ap     4.782062
      74App    4.839818    94Ap     4.967626    95Ap     5.005872
      75App    5.008190    96Ap     5.233454    76App    5.244670
      97Ap     5.252429    98Ap     5.358300    77App    5.365982
      78App    5.481787

    Final Occupation by Irrep:
             Ap   App
    DOCC [    10,    6 ]
    SOCC [     1,    0 ]

  @DF-UKS Final Energy:  -157.81305068103131

   => Energetics <=

    Nuclear Repulsion Energy =            125.3947030814896806
    One-Electron Energy =                -458.7490231858338348
    Two-Electron Energy =                 195.8484191592951618
    DFT Exchange-Correlation Energy =     -20.3071497359823319
    Empirical Dispersion Energy =           0.0000000000000000
    VV10 Nonlocal Energy =                  0.0000000000000000
    Total Energy =                       -157.8130506810313136

  UHF NO Occupations:
  HONO-2 :    9 Ap 1.9996009
  HONO-1 :   10 Ap 1.9989805
  HONO-0 :   11 Ap 1.0000000
  LUNO+0 :   12 Ap 0.0010195
  LUNO+1 :   13 Ap 0.0003991
  LUNO+2 :   14 Ap 0.0001982
  LUNO+3 :    7App 0.0001969

Computation Completed

Properties will be evaluated at   0.000000,   0.000000,   0.000000 [a0]

Properties computed using the SCF density matrix

  Nuclear Dipole Moment: [e a0]
     X:     0.8272      Y:     0.0058      Z:     0.0000

  Electronic Dipole Moment: [e a0]
     X:    -0.7493      Y:    -0.0082      Z:     0.0000

  Dipole Moment: [e a0]
     X:     0.0779      Y:    -0.0024      Z:     0.0000     Total:     0.0779

  Dipole Moment: [D]
     X:     0.1980      Y:    -0.0061      Z:     0.0000     Total:     0.1981

*** tstop() called on n033 at Fri Nov  5 15:13:15 2021
Module time:
	user time   =     634.30 seconds =      10.57 minutes
	system time =      11.95 seconds =       0.20 minutes
	total time  =        162 seconds =       2.70 minutes
Total time:
	user time   =     634.30 seconds =      10.57 minutes
	system time =      11.95 seconds =       0.20 minutes
	total time  =        162 seconds =       2.70 minutes
Grab this energy -157.8130506810313
    Psi4 stopped on: Friday, 05 November 2021 03:13PM
    Psi4 wall time for execution: 0:02:42.53

*** Psi4 exiting successfully. Buy a developer a beer!
