                               Psi4 1.4a2.dev629

  ==> Input File <==

--------------------------------------------------------------------------
import os
memory 14 GB

molecule {
 C   -0.3233310036   -0.0074321237   -0.0000000000
 C    0.0604398598   -1.3988085833   -2.4314001559
 C    0.0624249099    2.7950968433    0.0000000000
 C    0.0604398598   -1.3988085833    2.4314001559
 H    2.0852505014   -1.6357092108   -2.8580034221
 H   -0.7728037818   -0.3802104031   -4.0225119093
 H   -0.7606437398   -3.2933856544   -2.3615602776
 H    2.0901494008    3.2781225655    0.0000000000
 H   -0.7631684315    3.6752080522    1.6760641203
 H   -0.7631684315    3.6752080522   -1.6760641203
 H    2.0852505014   -1.6357092108    2.8580034221
 H   -0.7606437398   -3.2933856544    2.3615602776
 H   -0.7728037818   -0.3802104031    4.0225119093
units bohr
0 2
}

basis {

assign 6-31g_2dfp_

[ 6-31g_2dfp_ ]

spherical

!----------------------------------------------------------------------
! Basis Set Exchange
! Version v0.8.13
! https://www.basissetexchange.org
!----------------------------------------------------------------------
!   Basis set: 6-31G(2df,p)
! Description: 6-31G(2df,p)
!        Role: orbital
!     Version: 0  (Data from the original Basis Set Exchange)
!----------------------------------------------------------------------

****
H     0
S    3   1.00
     18.7311370              0.03349460
      2.8253937              0.23472695
      0.6401217              0.81375733
S    1   1.00
      0.1612778              1.00000000
P    1   1.00
      1.5000000              1.0000000
P    1   1.00
      0.3750000              1.0000000
****
B     0
S    6   1.00
   2068.8823000              0.0018663
    310.6495700              0.0142515
     70.6830330              0.0695516
     19.8610800              0.2325729
      6.2993048              0.4670787
      2.1270270              0.3634314
SP   3   1.00
      4.7279710             -0.1303938              0.0745976
      1.1903377             -0.1307889              0.3078467
      0.3594117              1.1309444              0.7434568
SP   1   1.00
      0.1267512              1.0000000              1.0000000
D    1   1.00
      0.8020000              1.0000000
D    1   1.00
      0.2005000              1.0000000
F    1   1.00
      0.5000000              1.0000000
****
C     0
S    6   1.00
   3047.5249000              0.0018347
    457.3695100              0.0140373
    103.9486900              0.0688426
     29.2101550              0.2321844
      9.2866630              0.4679413
      3.1639270              0.3623120
SP   3   1.00
      7.8682724             -0.1193324              0.0689991
      1.8812885             -0.1608542              0.3164240
      0.5442493              1.1434564              0.7443083
SP   1   1.00
      0.1687144              1.0000000              1.0000000
D    1   1.00
      1.2520000              1.0000000
D    1   1.00
      0.3130000              1.0000000
F    1   1.00
      0.8000000              1.0000000
****
N     0
S    6   1.00
   4173.5110000              0.0018348
    627.4579000              0.0139950
    142.9021000              0.0685870
     40.2343300              0.2322410
     12.8202100              0.4690700
      4.3904370              0.3604550
SP   3   1.00
     11.6263580             -0.1149610              0.0675800
      2.7162800             -0.1691180              0.3239070
      0.7722180              1.1458520              0.7408950
SP   1   1.00
      0.2120313              1.0000000              1.0000000
D    1   1.00
      1.8260000              1.0000000
D    1   1.00
      0.4565000              1.0000000
F    1   1.00
      1.0000000              1.0000000
****
O     0
S    6   1.00
   5484.6717000              0.0018311
    825.2349500              0.0139501
    188.0469600              0.0684451
     52.9645000              0.2327143
     16.8975700              0.4701930
      5.7996353              0.3585209
SP   3   1.00
     15.5396160             -0.1107775              0.0708743
      3.5999336             -0.1480263              0.3397528
      1.0137618              1.1307670              0.7271586
SP   1   1.00
      0.2700058              1.0000000              1.0000000
D    1   1.00
      2.5840000              1.0000000
D    1   1.00
      0.6460000              1.0000000
F    1   1.00
      1.4000000              1.0000000
****
F     0
S    6   1.00
   7001.7130900              0.0018196169
   1051.3660900              0.0139160796
    239.2856900              0.0684053245
     67.3974453              0.233185760
     21.5199573              0.471267439
      7.40310130             0.356618546
SP   3   1.00
     20.8479528             -0.108506975            0.0716287243
      4.80830834            -0.146451658            0.3459121030
      1.34406986             1.128688580            0.7224699570
SP   1   1.00
      0.358151393            1.0000000              1.0000000
D    1   1.00
      3.5000000              1.0000000
D    1   1.00
      0.8750000              1.0000000
F    1   1.00
      1.8500000              1.0000000
****
Al     0
S    6   1.00
  13983.1000000              0.00194267
   2098.7500000              0.0148599
    477.7050000              0.0728494
    134.3600000              0.2468300
     42.8709000              0.4872580
     14.5189000              0.3234960
SP   6   1.00
    239.6680000             -0.00292619             0.00460285
     57.4419000             -0.0374080              0.0331990
     18.2859000             -0.1144870              0.1362820
      6.5991400              0.1156350              0.3304760
      2.4904900              0.6125950              0.4491460
      0.9445400              0.3937990              0.2657040
SP   3   1.00
      1.2779000             -0.2276060             -0.0175130
      0.3975900              0.00144583             0.2445330
      0.1600950              1.0927900              0.8049340
SP   1   1.00
      0.0556577              1.0000000              1.0000000
D    1   1.00
      0.6500000              1.0000000
D    1   1.00
      0.1625000              1.0000000
F    1   1.00
      0.2500000              1.0000000
****
Si     0
S    6   1.00
  16115.9000000              0.00195948
   2425.5800000              0.01492880
    553.8670000              0.07284780
    156.3400000              0.24613000
     50.0683000              0.48591400
     17.0178000              0.32500200
SP   6   1.00
    292.7180000             -0.00278094             0.00443826
     69.8731000             -0.03571460             0.03266790
     22.3363000             -0.11498500             0.13472100
      8.1503900              0.09356340             0.32867800
      3.1345800              0.60301700             0.44964000
      1.2254300              0.41895900             0.26137200
SP   3   1.00
      1.7273800             -0.24463000            -0.01779510
      0.5729220              0.00431572             0.25353900
      0.2221920              1.09818000             0.80066900
SP   1   1.00
      0.0778369              1.00000000             1.00000000
D    1   1.00
      0.9000000              1.0000000
D    1   1.00
      0.2250000              1.0000000
F    1   1.00
      0.3200000              1.0000000
****
P     0
S    6   1.00
  19413.3000000              0.0018516
   2909.4200000              0.0142062
    661.3640000              0.0699995
    185.7590000              0.2400790
     59.1943000              0.4847620
     20.0310000              0.3352000
SP   6   1.00
    339.4780000             -0.00278217             0.00456462
     81.0101000             -0.0360499              0.03369360
     25.8780000             -0.1166310              0.13975500
      9.4522100              0.0968328              0.33936200
      3.6656600              0.6144180              0.45092100
      1.4674600              0.4037980              0.23858600
SP   3   1.00
      2.1562300             -0.2529230             -0.01776530
      0.7489970              0.0328517              0.27405800
      0.2831450              1.0812500              0.78542100
SP   1   1.00
      0.0998317              1.0000000              1.00000000
D    1   1.00
      1.1000000              1.0000000
D    1   1.00
      0.2750000              1.0000000
F    1   1.00
      0.4500000              1.0000000
****
S     0
S    6   1.00
  21917.1000000              0.0018690
   3301.4900000              0.0142300
    754.1460000              0.0696960
    212.7110000              0.2384870
     67.9896000              0.4833070
     23.0515000              0.3380740
SP   6   1.00
    423.7350000             -0.0023767              0.0040610
    100.7100000             -0.0316930              0.0306810
     32.1599000             -0.1133170              0.1304520
     11.8079000              0.0560900              0.3272050
      4.6311000              0.5922550              0.4528510
      1.8702500              0.4550060              0.2560420
SP   3   1.00
      2.6158400             -0.2503740             -0.0145110
      0.9221670              0.0669570              0.3102630
      0.3412870              1.0545100              0.7544830
SP   1   1.00
      0.1171670              1.0000000              1.0000000
D    1   1.00
      1.3000000              1.0000000
D    1   1.00
      0.3250000              1.0000000
F    1   1.00
      0.5500000              1.0000000
****
Cl     0
S    6   1.00
  25180.1000000              0.0018330
   3780.3500000              0.0140340
    860.4740000              0.0690970
    242.1450000              0.2374520
     77.3349000              0.4830340
     26.2470000              0.3398560
SP   6   1.00
    491.7650000             -0.0022974              0.0039894
    116.9840000             -0.0307140              0.0303180
     37.4153000             -0.1125280              0.1298800
     13.7834000              0.0450160              0.3279510
      5.4521500              0.5893530              0.4535270
      2.2258800              0.4652060              0.2521540
SP   3   1.00
      3.1864900             -0.2518300             -0.0142990
      1.1442700              0.0615890              0.3235720
      0.4203770              1.0601800              0.7435070
SP   1   1.00
      0.1426570              1.0000000              1.0000000
D    1   1.00
      1.5000000              1.0000000
D    1   1.00
      0.3750000              1.0000000
F    1   1.00
      0.7000000              1.0000000
****
}

set {
reference uhf
freeze_core true
e_convergence 10
d_convergence 10
dft_spherical_points 1202
dft_radial_points 99
}

e = energy('b3lyp')

print_out('Grab this energy {0}'.format(e))
--------------------------------------------------------------------------

    Molecular point group: cs

    Geometry (in Bohr), charge = 0, multiplicity = 2:

       Center              X                  Y                   Z               Mass
    ------------   -----------------  -----------------  -----------------  -----------------
         C           -0.323333625127    -0.005514781361     0.000000000000    12.000000000000
         C            0.060437238273    -1.396891240961    -2.431400155900    12.000000000000
         C            0.062422288373     2.797014185639     0.000000000000    12.000000000000
         C            0.060437238273    -1.396891240961     2.431400155900    12.000000000000
         H            2.085247879873    -1.633791868461    -2.858003422100     1.007825032230
         H           -0.772806403327    -0.378293060761    -4.022511909300     1.007825032230
         H           -0.760646361327    -3.291468312061    -2.361560277600     1.007825032230
         H            2.090146779273     3.280039907839     0.000000000000     1.007825032230
         H           -0.763171053027     3.677125394539     1.676064120300     1.007825032230
         H           -0.763171053027     3.677125394539    -1.676064120300     1.007825032230
         H            2.085247879873    -1.633791868461     2.858003422100     1.007825032230
         H           -0.760646361327    -3.291468312061     2.361560277600     1.007825032230
         H           -0.772806403327    -0.378293060761     4.022511909300     1.007825032230

  Charge       = 0
  Multiplicity = 2
  Basis Set: ANONYMOUSB4C1AFD3
    Blend: 6-31G_2DFP_
  Basis Set: (ANONYMOUSB4C1AFD3 AUX)
    Blend: DEF2-UNIVERSAL-JKFIT

    Orbital Energies [Eh]
    ---------------------

    Alpha Occupied:

       1Ap   -10.180342     1App  -10.167078     2Ap   -10.167052
       3Ap   -10.166916     4Ap    -0.797767     2App   -0.686548
       5Ap    -0.685824     6Ap    -0.530777     7Ap    -0.441127
       3App   -0.434865     8Ap    -0.434477     4App   -0.382787
       9Ap    -0.382410     5App   -0.363608     6App   -0.338420
      10Ap    -0.337577    11Ap    -0.168962

    Alpha Virtual:

      12Ap     0.076073     7App    0.133981    13Ap     0.134331
       8App    0.142479    14Ap     0.142778    15Ap     0.154880
       9App    0.178551    16Ap     0.179005    17Ap     0.203547
      10App    0.214809    18Ap     0.275818    11App    0.276150
      12App    0.399100    19Ap     0.399339    20Ap     0.403367
      13App    0.423999    21Ap     0.424203    22Ap     0.456593
      14App    0.494932    23Ap     0.495838    15App    0.512176
      24Ap     0.513982    16App    0.578735    25Ap     0.578846
      26Ap     0.591444    17App    0.591865    27Ap     0.602575
      28Ap     0.624767    18App    0.631779    29Ap     0.635937
      19App    0.636554    20App    0.663398    30Ap     0.663427
      21App    0.683592    31Ap     0.684113    32Ap     0.734994
      22App    0.824613    33Ap     0.826187    23App    0.853916
      24App    0.914925    34Ap     0.915134    25App    0.944038
      35Ap     0.944495    36Ap     0.961123    26App    0.961706
      37Ap     1.003477    27App    1.126926    38Ap     1.129283
      39Ap     1.142202    28App    1.162669    40Ap     1.163902
      41Ap     1.223320    29App    1.274168    42Ap     1.274866
      43Ap     1.279338    44Ap     1.324146    30App    1.324551
      45Ap     1.356006    31App    1.365578    46Ap     1.366486
      32App    1.392429    33App    1.403602    47Ap     1.404552
      34App    1.416869    48Ap     1.417346    35App    1.427903
      36App    1.491430    49Ap     1.499073    37App    1.542662
      50Ap     1.543039    38App    1.572449    51Ap     1.576560
      52Ap     1.669814    39App    1.738628    53Ap     1.740191
      54Ap     1.768335    40App    1.831300    55Ap     1.831494
      41App    1.971743    42App    2.017667    56Ap     2.018221
      57Ap     2.020507    43App    2.051103    58Ap     2.054231
      44App    2.738276    59Ap     2.738698    60Ap     2.790923
      45App    2.811432    61Ap     2.889407    46App    2.890476
      62Ap     2.894962    47App    2.929144    63Ap     2.929834
      48App    2.958976    49App    2.963264    64Ap     2.965533
      65Ap     3.034018    50App    3.070527    66Ap     3.071986
      51App    3.084380    52App    3.168127    67Ap     3.169500
      68Ap     3.180571    69Ap     3.284541    53App    3.286061
      54App    3.326668    70Ap     3.327685    71Ap     3.375656
      55App    3.489831    72Ap     3.490384    56App    3.514054
      73Ap     3.525313    57App    3.567952    74Ap     3.568735
      58App    3.575283    59App    3.666085    75Ap     3.666701
      76Ap     3.679659    77Ap     3.693344    60App    3.694902
      61App    3.776306    78Ap     3.777042    79Ap     3.789417
      62App    3.911308    80Ap     3.913164    81Ap     4.034459
      63App    4.111035    82Ap     4.111725    64App    4.147023
      83Ap     4.149214    84Ap     4.173217    65App    4.201679
      85Ap     4.202652    86Ap     4.204312    66App    4.211043
      87Ap     4.315415    67App    4.316497    68App    4.358965
      69App    4.423772    88Ap     4.425067    70App    4.443509
      71App    4.516808    89Ap     4.516921    72App    4.577886
      90Ap     4.578650    91Ap     4.617510    92Ap     4.709454
      73App    4.772654    93Ap     4.776561    74App    4.836912
      94Ap     4.962866    75App    5.002577    95Ap     5.003327
      96Ap     5.228019    97Ap     5.246782    76App    5.246855
      98Ap     5.355250    77App    5.355753    78App    5.479335

    Beta Occupied:

       1App  -10.167831     1Ap   -10.167815     2Ap   -10.167679
       3Ap   -10.166520     4Ap    -0.781093     2App   -0.684343
       5Ap    -0.683634     6Ap    -0.511748     3App   -0.431236
       7Ap    -0.430849     8Ap    -0.421823     4App   -0.376870
       9Ap    -0.376497     5App   -0.362592     6App   -0.333548
      10Ap    -0.332696

    Beta Virtual:

      11Ap    -0.025743    12Ap     0.077082     7App    0.134864
      13Ap     0.135228     8App    0.144344    14Ap     0.144653
      15Ap     0.163339     9App    0.182221    16Ap     0.182678
      10App    0.215039    17Ap     0.218929    18Ap     0.282189
      11App    0.282475    12App    0.400287    19Ap     0.400513
      20Ap     0.419787    13App    0.426807    21Ap     0.427019
      22Ap     0.468502    14App    0.497195    23Ap     0.498098
      15App    0.513912    24Ap     0.556325    16App    0.584328
      25Ap     0.584360    26Ap     0.597651    17App    0.598008
      27Ap     0.610001    28Ap     0.628142    18App    0.631934
      29Ap     0.639186    19App    0.639878    20App    0.666925
      30Ap     0.667027    21App    0.686188    31Ap     0.686788
      32Ap     0.757516    22App    0.829743    33Ap     0.831394
      23App    0.855269    24App    0.922886    34Ap     0.923113
      25App    0.945899    35Ap     0.953397    36Ap     0.966382
      26App    0.967068    37Ap     1.008713    27App    1.130909
      38Ap     1.133371    39Ap     1.155550    28App    1.167771
      40Ap     1.168961    41Ap     1.232288    29App    1.279766
      42Ap     1.280466    43Ap     1.285090    44Ap     1.329132
      30App    1.329545    45Ap     1.365420    31App    1.370677
      46Ap     1.371870    32App    1.393491    33App    1.407125
      47Ap     1.407961    34App    1.421908    48Ap     1.422405
      35App    1.428173    36App    1.492482    49Ap     1.509517
      37App    1.546941    50Ap     1.547570    38App    1.580504
      51Ap     1.584252    52Ap     1.674661    39App    1.744407
      53Ap     1.745937    54Ap     1.779113    40App    1.835144
      55Ap     1.835360    41App    1.972605    42App    2.024053
      56Ap     2.026844    57Ap     2.039681    43App    2.057869
      58Ap     2.060887    44App    2.746592    59Ap     2.747054
      45App    2.811845    60Ap     2.816058    61Ap     2.902206
      46App    2.903067    62Ap     2.924646    47App    2.931720
      63Ap     2.932231    48App    2.960051    49App    2.967843
      64Ap     2.970032    65Ap     3.041951    50App    3.080173
      66Ap     3.082047    51App    3.086325    52App    3.184053
      67Ap     3.185039    68Ap     3.188270    69Ap     3.289410
      53App    3.290797    54App    3.330457    70Ap     3.331506
      71Ap     3.383472    55App    3.492579    72Ap     3.493086
      56App    3.512427    73Ap     3.528361    57App    3.574837
      58App    3.581570    74Ap     3.582101    59App    3.670933
      75Ap     3.671351    76Ap     3.692951    77Ap     3.725172
      60App    3.726337    61App    3.780896    78Ap     3.781700
      79Ap     3.817762    62App    3.921081    80Ap     3.923027
      81Ap     4.045349    63App    4.117852    82Ap     4.118536
      64App    4.154221    83Ap     4.156434    84Ap     4.187275
      65App    4.207565    85Ap     4.210208    86Ap     4.210682
      66App    4.215550    87Ap     4.322804    67App    4.323987
      68App    4.362327    69App    4.432021    88Ap     4.433236
      70App    4.446406    89Ap     4.524623    71App    4.524682
      72App    4.588411    90Ap     4.589324    91Ap     4.624704
      92Ap     4.719802    73App    4.779611    93Ap     4.783509
      74App    4.839829    94Ap     4.967660    75App    5.006635
      95Ap     5.007347    96Ap     5.233730    97Ap     5.248579
      76App    5.248631    98Ap     5.361728    77App    5.362237
      78App    5.481657

    Final Occupation by Irrep:
             Ap   App
    DOCC [    10,    6 ]
    SOCC [     1,    0 ]

  @DF-UKS Final Energy:  -157.81306661254266

   => Energetics <=

    Nuclear Repulsion Energy =            125.3948390450379833
    One-Electron Energy =                -458.7493347158142569
    Two-Electron Energy =                 195.8485727390547879
    DFT Exchange-Correlation Energy =     -20.3071436808211807
    Empirical Dispersion Energy =           0.0000000000000000
    VV10 Nonlocal Energy =                  0.0000000000000000
    Total Energy =                       -157.8130666125426558

  UHF NO Occupations:
  HONO-2 :    9 Ap 1.9996009
  HONO-1 :   10 Ap 1.9989805
  HONO-0 :   11 Ap 1.0000000
  LUNO+0 :   12 Ap 0.0010195
  LUNO+1 :   13 Ap 0.0003991
  LUNO+2 :   14 Ap 0.0001985
  LUNO+3 :    7App 0.0001966

Computation Completed

Properties will be evaluated at   0.000000,   0.000000,   0.000000 [a0]

Properties computed using the SCF density matrix

  Nuclear Dipole Moment: [e a0]
     X:     0.8272      Y:     0.0135      Z:     0.0000

  Electronic Dipole Moment: [e a0]
     X:    -0.7493      Y:    -0.0142      Z:     0.0000

  Dipole Moment: [e a0]
     X:     0.0779      Y:    -0.0007      Z:     0.0000     Total:     0.0779

  Dipole Moment: [D]
     X:     0.1980      Y:    -0.0018      Z:     0.0000     Total:     0.1980

*** tstop() called on n091 at Fri Nov  5 15:47:07 2021
Module time:
	user time   =     495.53 seconds =       8.26 minutes
	system time =       4.53 seconds =       0.08 minutes
	total time  =        125 seconds =       2.08 minutes
Total time:
	user time   =     495.53 seconds =       8.26 minutes
	system time =       4.53 seconds =       0.08 minutes
	total time  =        125 seconds =       2.08 minutes
Grab this energy -157.81306661254266
    Psi4 stopped on: Friday, 05 November 2021 03:47PM
    Psi4 wall time for execution: 0:02:05.76

*** Psi4 exiting successfully. Buy a developer a beer!
