                               Psi4 1.4a2.dev629

  ==> Input File <==

--------------------------------------------------------------------------
import os
memory 14 GB

molecule {
 C   -0.3230389719    0.0004914810    0.0000000000
 C    0.0609526633   -1.3979103018   -2.4213121761
 C    0.0609789735    2.7971717384    0.0000000000
 C    0.0609526633   -1.3979103018    2.4213121761
 H    2.0887361928   -1.6406972778   -2.8415027933
 H   -0.7664065040   -0.3839643704   -4.0208146050
 H   -0.7664126825   -3.2910060868   -2.3434263028
 H    2.0823253785    3.2820066066   -0.0000000000
 H   -0.7633062979    3.6737309671    1.6720739696
 H   -0.7633062979    3.6737309671   -1.6720739696
 H    2.0887361928   -1.6406972778    2.8415027933
 H   -0.7664126825   -3.2910060868    2.3434263028
 H   -0.7664065040   -0.3839643704    4.0208146050
units bohr
0 2
}

basis {

assign 6-31g_2dfp_

[ 6-31g_2dfp_ ]

spherical

!----------------------------------------------------------------------
! Basis Set Exchange
! Version v0.8.13
! https://www.basissetexchange.org
!----------------------------------------------------------------------
!   Basis set: 6-31G(2df,p)
! Description: 6-31G(2df,p)
!        Role: orbital
!     Version: 0  (Data from the original Basis Set Exchange)
!----------------------------------------------------------------------

****
H     0
S    3   1.00
     18.7311370              0.03349460
      2.8253937              0.23472695
      0.6401217              0.81375733
S    1   1.00
      0.1612778              1.00000000
P    1   1.00
      1.5000000              1.0000000
P    1   1.00
      0.3750000              1.0000000
****
B     0
S    6   1.00
   2068.8823000              0.0018663
    310.6495700              0.0142515
     70.6830330              0.0695516
     19.8610800              0.2325729
      6.2993048              0.4670787
      2.1270270              0.3634314
SP   3   1.00
      4.7279710             -0.1303938              0.0745976
      1.1903377             -0.1307889              0.3078467
      0.3594117              1.1309444              0.7434568
SP   1   1.00
      0.1267512              1.0000000              1.0000000
D    1   1.00
      0.8020000              1.0000000
D    1   1.00
      0.2005000              1.0000000
F    1   1.00
      0.5000000              1.0000000
****
C     0
S    6   1.00
   3047.5249000              0.0018347
    457.3695100              0.0140373
    103.9486900              0.0688426
     29.2101550              0.2321844
      9.2866630              0.4679413
      3.1639270              0.3623120
SP   3   1.00
      7.8682724             -0.1193324              0.0689991
      1.8812885             -0.1608542              0.3164240
      0.5442493              1.1434564              0.7443083
SP   1   1.00
      0.1687144              1.0000000              1.0000000
D    1   1.00
      1.2520000              1.0000000
D    1   1.00
      0.3130000              1.0000000
F    1   1.00
      0.8000000              1.0000000
****
N     0
S    6   1.00
   4173.5110000              0.0018348
    627.4579000              0.0139950
    142.9021000              0.0685870
     40.2343300              0.2322410
     12.8202100              0.4690700
      4.3904370              0.3604550
SP   3   1.00
     11.6263580             -0.1149610              0.0675800
      2.7162800             -0.1691180              0.3239070
      0.7722180              1.1458520              0.7408950
SP   1   1.00
      0.2120313              1.0000000              1.0000000
D    1   1.00
      1.8260000              1.0000000
D    1   1.00
      0.4565000              1.0000000
F    1   1.00
      1.0000000              1.0000000
****
O     0
S    6   1.00
   5484.6717000              0.0018311
    825.2349500              0.0139501
    188.0469600              0.0684451
     52.9645000              0.2327143
     16.8975700              0.4701930
      5.7996353              0.3585209
SP   3   1.00
     15.5396160             -0.1107775              0.0708743
      3.5999336             -0.1480263              0.3397528
      1.0137618              1.1307670              0.7271586
SP   1   1.00
      0.2700058              1.0000000              1.0000000
D    1   1.00
      2.5840000              1.0000000
D    1   1.00
      0.6460000              1.0000000
F    1   1.00
      1.4000000              1.0000000
****
F     0
S    6   1.00
   7001.7130900              0.0018196169
   1051.3660900              0.0139160796
    239.2856900              0.0684053245
     67.3974453              0.233185760
     21.5199573              0.471267439
      7.40310130             0.356618546
SP   3   1.00
     20.8479528             -0.108506975            0.0716287243
      4.80830834            -0.146451658            0.3459121030
      1.34406986             1.128688580            0.7224699570
SP   1   1.00
      0.358151393            1.0000000              1.0000000
D    1   1.00
      3.5000000              1.0000000
D    1   1.00
      0.8750000              1.0000000
F    1   1.00
      1.8500000              1.0000000
****
Al     0
S    6   1.00
  13983.1000000              0.00194267
   2098.7500000              0.0148599
    477.7050000              0.0728494
    134.3600000              0.2468300
     42.8709000              0.4872580
     14.5189000              0.3234960
SP   6   1.00
    239.6680000             -0.00292619             0.00460285
     57.4419000             -0.0374080              0.0331990
     18.2859000             -0.1144870              0.1362820
      6.5991400              0.1156350              0.3304760
      2.4904900              0.6125950              0.4491460
      0.9445400              0.3937990              0.2657040
SP   3   1.00
      1.2779000             -0.2276060             -0.0175130
      0.3975900              0.00144583             0.2445330
      0.1600950              1.0927900              0.8049340
SP   1   1.00
      0.0556577              1.0000000              1.0000000
D    1   1.00
      0.6500000              1.0000000
D    1   1.00
      0.1625000              1.0000000
F    1   1.00
      0.2500000              1.0000000
****
Si     0
S    6   1.00
  16115.9000000              0.00195948
   2425.5800000              0.01492880
    553.8670000              0.07284780
    156.3400000              0.24613000
     50.0683000              0.48591400
     17.0178000              0.32500200
SP   6   1.00
    292.7180000             -0.00278094             0.00443826
     69.8731000             -0.03571460             0.03266790
     22.3363000             -0.11498500             0.13472100
      8.1503900              0.09356340             0.32867800
      3.1345800              0.60301700             0.44964000
      1.2254300              0.41895900             0.26137200
SP   3   1.00
      1.7273800             -0.24463000            -0.01779510
      0.5729220              0.00431572             0.25353900
      0.2221920              1.09818000             0.80066900
SP   1   1.00
      0.0778369              1.00000000             1.00000000
D    1   1.00
      0.9000000              1.0000000
D    1   1.00
      0.2250000              1.0000000
F    1   1.00
      0.3200000              1.0000000
****
P     0
S    6   1.00
  19413.3000000              0.0018516
   2909.4200000              0.0142062
    661.3640000              0.0699995
    185.7590000              0.2400790
     59.1943000              0.4847620
     20.0310000              0.3352000
SP   6   1.00
    339.4780000             -0.00278217             0.00456462
     81.0101000             -0.0360499              0.03369360
     25.8780000             -0.1166310              0.13975500
      9.4522100              0.0968328              0.33936200
      3.6656600              0.6144180              0.45092100
      1.4674600              0.4037980              0.23858600
SP   3   1.00
      2.1562300             -0.2529230             -0.01776530
      0.7489970              0.0328517              0.27405800
      0.2831450              1.0812500              0.78542100
SP   1   1.00
      0.0998317              1.0000000              1.00000000
D    1   1.00
      1.1000000              1.0000000
D    1   1.00
      0.2750000              1.0000000
F    1   1.00
      0.4500000              1.0000000
****
S     0
S    6   1.00
  21917.1000000              0.0018690
   3301.4900000              0.0142300
    754.1460000              0.0696960
    212.7110000              0.2384870
     67.9896000              0.4833070
     23.0515000              0.3380740
SP   6   1.00
    423.7350000             -0.0023767              0.0040610
    100.7100000             -0.0316930              0.0306810
     32.1599000             -0.1133170              0.1304520
     11.8079000              0.0560900              0.3272050
      4.6311000              0.5922550              0.4528510
      1.8702500              0.4550060              0.2560420
SP   3   1.00
      2.6158400             -0.2503740             -0.0145110
      0.9221670              0.0669570              0.3102630
      0.3412870              1.0545100              0.7544830
SP   1   1.00
      0.1171670              1.0000000              1.0000000
D    1   1.00
      1.3000000              1.0000000
D    1   1.00
      0.3250000              1.0000000
F    1   1.00
      0.5500000              1.0000000
****
Cl     0
S    6   1.00
  25180.1000000              0.0018330
   3780.3500000              0.0140340
    860.4740000              0.0690970
    242.1450000              0.2374520
     77.3349000              0.4830340
     26.2470000              0.3398560
SP   6   1.00
    491.7650000             -0.0022974              0.0039894
    116.9840000             -0.0307140              0.0303180
     37.4153000             -0.1125280              0.1298800
     13.7834000              0.0450160              0.3279510
      5.4521500              0.5893530              0.4535270
      2.2258800              0.4652060              0.2521540
SP   3   1.00
      3.1864900             -0.2518300             -0.0142990
      1.1442700              0.0615890              0.3235720
      0.4203770              1.0601800              0.7435070
SP   1   1.00
      0.1426570              1.0000000              1.0000000
D    1   1.00
      1.5000000              1.0000000
D    1   1.00
      0.3750000              1.0000000
F    1   1.00
      0.7000000              1.0000000
****
}

set {
reference uhf
freeze_core true
e_convergence 10
d_convergence 10
dft_spherical_points 1202
dft_radial_points 99
}

e = energy('b3lyp')

print_out('Grab this energy {0}'.format(e))
--------------------------------------------------------------------------

    Molecular point group: cs

    Geometry (in Bohr), charge = 0, multiplicity = 2:

       Center              X                  Y                   Z               Mass
    ------------   -----------------  -----------------  -----------------  -----------------
         C           -0.323016882370     0.000137009283     0.000000000000    12.000000000000
         C            0.060974752830    -1.398264773517    -2.421312176100    12.000000000000
         C            0.061001063030     2.796817266683     0.000000000000    12.000000000000
         C            0.060974752830    -1.398264773517     2.421312176100    12.000000000000
         H            2.088758282330    -1.641051749517    -2.841502793300     1.007825032230
         H           -0.766384414470    -0.384318842117    -4.020814605000     1.007825032230
         H           -0.766390592970    -3.291360558517    -2.343426302800     1.007825032230
         H            2.082347468030     3.281652134883     0.000000000000     1.007825032230
         H           -0.763284208370     3.673376495383     1.672073969600     1.007825032230
         H           -0.763284208370     3.673376495383    -1.672073969600     1.007825032230
         H            2.088758282330    -1.641051749517     2.841502793300     1.007825032230
         H           -0.766390592970    -3.291360558517     2.343426302800     1.007825032230
         H           -0.766384414470    -0.384318842117     4.020814605000     1.007825032230

  Charge       = 0
  Multiplicity = 2
  Basis Set: ANONYMOUS3C6F356B
    Blend: 6-31G_2DFP_
  Basis Set: (ANONYMOUS3C6F356B AUX)
    Blend: DEF2-UNIVERSAL-JKFIT

    Orbital Energies [Eh]
    ---------------------

    Alpha Occupied:

       1Ap   -10.179568     1App  -10.167003     2Ap   -10.166973
       3Ap   -10.165982     4Ap    -0.798817     5Ap    -0.686812
       2App   -0.686167     6Ap    -0.530773     7Ap    -0.441722
       3App   -0.435239     8Ap    -0.435066     9Ap    -0.382897
       4App   -0.382450     5App   -0.363493     6App   -0.338217
      10Ap    -0.338155    11Ap    -0.168636

    Alpha Virtual:

      12Ap     0.076041    13Ap     0.134179     7App    0.134194
      14Ap     0.142741     8App    0.142934    15Ap     0.154938
       9App    0.178630    16Ap     0.179281    17Ap     0.204641
      10App    0.215151    18Ap     0.276461    11App    0.276551
      12App    0.399125    19Ap     0.399279    20Ap     0.403136
      21Ap     0.423730    13App    0.423919    22Ap     0.457175
      14App    0.495548    23Ap     0.495688    15App    0.512499
      24Ap     0.514380    16App    0.579375    25Ap     0.579613
      17App    0.591879    26Ap     0.592460    27Ap     0.603055
      28Ap     0.625172    18App    0.632062    29Ap     0.636686
      19App    0.637518    20App    0.663702    30Ap     0.664075
      21App    0.684002    31Ap     0.684629    32Ap     0.734788
      33Ap     0.824852    22App    0.825642    23App    0.854918
      34Ap     0.915747    24App    0.915765    35Ap     0.944022
      25App    0.945470    36Ap     0.962019    26App    0.962499
      37Ap     1.004585    27App    1.128683    38Ap     1.129324
      39Ap     1.142571    40Ap     1.163940    28App    1.164129
      41Ap     1.224231    29App    1.275217    42Ap     1.275574
      43Ap     1.279866    44Ap     1.324338    30App    1.325037
      45Ap     1.356152    31App    1.367619    46Ap     1.368152
      32App    1.393963    33App    1.403376    47Ap     1.404135
      34App    1.417163    48Ap     1.417803    35App    1.429323
      36App    1.492714    49Ap     1.499665    50Ap     1.543510
      37App    1.543621    51Ap     1.575329    38App    1.575882
      52Ap     1.669739    53Ap     1.739942    39App    1.740117
      54Ap     1.769848    40App    1.831007    55Ap     1.834239
      41App    1.973090    56Ap     2.019817    42App    2.020264
      57Ap     2.020855    58Ap     2.057094    43App    2.057246
      59Ap     2.738630    44App    2.739531    60Ap     2.792077
      45App    2.814158    46App    2.890819    61Ap     2.891307
      62Ap     2.896491    63Ap     2.929593    47App    2.929770
      48App    2.959243    49App    2.963572    64Ap     2.964582
      65Ap     3.033979    50App    3.071990    66Ap     3.072501
      51App    3.085966    67Ap     3.169492    52App    3.169772
      68Ap     3.182492    69Ap     3.285739    53App    3.285891
      70Ap     3.327556    54App    3.327639    71Ap     3.374221
      72Ap     3.491118    55App    3.492761    56App    3.514789
      73Ap     3.527662    57App    3.568253    74Ap     3.568391
      58App    3.577319    59App    3.665624    75Ap     3.666990
      76Ap     3.681618    60App    3.695111    77Ap     3.696102
      61App    3.780721    78Ap     3.781878    79Ap     3.789799
      62App    3.913849    80Ap     3.914754    81Ap     4.036286
      63App    4.113481    82Ap     4.114767    83Ap     4.146994
      64App    4.150718    84Ap     4.174536    85Ap     4.202826
      65App    4.204681    86Ap     4.207349    66App    4.212753
      67App    4.316823    87Ap     4.318182    68App    4.361464
      88Ap     4.426335    69App    4.426631    70App    4.445985
      71App    4.519584    89Ap     4.520072    90Ap     4.581380
      72App    4.582341    91Ap     4.624889    92Ap     4.714271
      73App    4.780923    93Ap     4.781139    74App    4.840816
      94Ap     4.965933    75App    5.004001    95Ap     5.005178
      96Ap     5.228859    97Ap     5.244576    76App    5.251860
      77App    5.355121    98Ap     5.361317    78App    5.485199

    Beta Occupied:

       1App  -10.167761     1Ap   -10.167740     2Ap   -10.166742
       3Ap   -10.165771     4Ap    -0.782120     5Ap    -0.684594
       2App   -0.683950     6Ap    -0.511845     3App   -0.431602
       7Ap    -0.431407     8Ap    -0.422324     9Ap    -0.376953
       4App   -0.376489     5App   -0.362466     6App   -0.333338
      10Ap    -0.333289

    Beta Virtual:

      11Ap    -0.025712    12Ap     0.077062    13Ap     0.135009
       7App    0.135134    14Ap     0.144686     8App    0.144786
      15Ap     0.163442     9App    0.182337    16Ap     0.182970
      10App    0.215388    17Ap     0.219842    18Ap     0.282737
      11App    0.282831    12App    0.400323    19Ap     0.400486
      20Ap     0.419485    21Ap     0.426529    13App    0.426723
      22Ap     0.469438    14App    0.497822    23Ap     0.497962
      15App    0.514249    24Ap     0.556647    16App    0.584926
      25Ap     0.585177    17App    0.598019    26Ap     0.598559
      27Ap     0.610516    28Ap     0.628608    18App    0.632257
      29Ap     0.640069    19App    0.640825    20App    0.667207
      30Ap     0.667612    21App    0.686754    31Ap     0.687308
      32Ap     0.757132    33Ap     0.830013    22App    0.830854
      23App    0.856309    34Ap     0.923733    24App    0.923748
      25App    0.947310    35Ap     0.952858    36Ap     0.967379
      26App    0.967801    37Ap     1.009750    27App    1.132695
      38Ap     1.133370    39Ap     1.155961    40Ap     1.169002
      28App    1.169217    41Ap     1.233342    29App    1.280850
      42Ap     1.281210    43Ap     1.285553    44Ap     1.329280
      30App    1.330070    45Ap     1.365594    31App    1.372865
      46Ap     1.373377    32App    1.395030    33App    1.406797
      47Ap     1.407596    34App    1.422219    48Ap     1.422951
      35App    1.429625    36App    1.493761    49Ap     1.510172
      50Ap     1.547816    37App    1.548017    51Ap     1.583276
      38App    1.583813    52Ap     1.674591    53Ap     1.745730
      39App    1.745864    54Ap     1.780649    40App    1.834909
      55Ap     1.838083    41App    1.973956    56Ap     2.026530
      42App    2.026618    57Ap     2.042050    58Ap     2.063785
      43App    2.064039    59Ap     2.746857    44App    2.747784
      45App    2.814575    60Ap     2.817194    46App    2.903363
      61Ap     2.903699    62Ap     2.926232    63Ap     2.932309
      47App    2.932369    48App    2.960320    49App    2.968133
      64Ap     2.969228    65Ap     3.042000    50App    3.081902
      66Ap     3.082553    51App    3.087830    67Ap     3.185085
      52App    3.185452    68Ap     3.190129    69Ap     3.290686
      53App    3.290892    70Ap     3.331306    54App    3.331349
      71Ap     3.382024    72Ap     3.493875    55App    3.495452
      56App    3.513144    73Ap     3.530658    57App    3.577086
      74Ap     3.581701    58App    3.581739    59App    3.670223
      75Ap     3.671696    76Ap     3.694919    60App    3.726567
      77Ap     3.727517    61App    3.785313    78Ap     3.786415
      79Ap     3.818211    62App    3.923686    80Ap     3.924563
      81Ap     4.047104    63App    4.120229    82Ap     4.121063
      83Ap     4.154644    64App    4.157909    84Ap     4.188701
      85Ap     4.210079    65App    4.210558    86Ap     4.214116
      66App    4.217309    67App    4.324417    87Ap     4.325526
      68App    4.364809    88Ap     4.434714    69App    4.434848
      70App    4.448930    71App    4.527564    89Ap     4.527930
      90Ap     4.592047    72App    4.592912    91Ap     4.632062
      92Ap     4.724698    73App    4.787846    93Ap     4.788127
      74App    4.843730    94Ap     4.970752    75App    5.008096
      95Ap     5.009239    96Ap     5.234604    97Ap     5.246386
      76App    5.253656    77App    5.361670    98Ap     5.367834
      78App    5.487541

    Final Occupation by Irrep:
             Ap   App
    DOCC [    10,    6 ]
    SOCC [     1,    0 ]

  @DF-UKS Final Energy:  -157.81302752335719

   => Energetics <=

    Nuclear Repulsion Energy =            125.5761932378948558
    One-Electron Energy =                -459.1063160724343106
    Two-Electron Energy =                 196.0280513405999727
    DFT Exchange-Correlation Energy =     -20.3109560294177136
    Empirical Dispersion Energy =           0.0000000000000000
    VV10 Nonlocal Energy =                  0.0000000000000000
    Total Energy =                       -157.8130275233571922

  UHF NO Occupations:
  HONO-2 :    9 Ap 1.9995992
  HONO-1 :   10 Ap 1.9989874
  HONO-0 :   11 Ap 1.0000000
  LUNO+0 :   12 Ap 0.0010126
  LUNO+1 :   13 Ap 0.0004008
  LUNO+2 :    7App 0.0001954
  LUNO+3 :   14 Ap 0.0001953

Computation Completed

Properties will be evaluated at   0.000000,   0.000000,   0.000000 [a0]

Properties computed using the SCF density matrix

  Nuclear Dipole Moment: [e a0]
     X:     0.8273      Y:    -0.0025      Z:    -0.0000

  Electronic Dipole Moment: [e a0]
     X:    -0.7503      Y:     0.0050      Z:     0.0000

  Dipole Moment: [e a0]
     X:     0.0770      Y:     0.0025      Z:    -0.0000     Total:     0.0771

  Dipole Moment: [D]
     X:     0.1958      Y:     0.0062      Z:    -0.0000     Total:     0.1959

*** tstop() called on n056 at Fri Nov  5 15:14:07 2021
Module time:
	user time   =     544.27 seconds =       9.07 minutes
	system time =      11.88 seconds =       0.20 minutes
	total time  =        140 seconds =       2.33 minutes
Total time:
	user time   =     544.27 seconds =       9.07 minutes
	system time =      11.88 seconds =       0.20 minutes
	total time  =        140 seconds =       2.33 minutes
Grab this energy -157.8130275233572
    Psi4 stopped on: Friday, 05 November 2021 03:14PM
    Psi4 wall time for execution: 0:02:19.86

*** Psi4 exiting successfully. Buy a developer a beer!
