                               Psi4 1.4a2.dev629

  ==> Input File <==

--------------------------------------------------------------------------
import os
memory 14 GB

molecule {
 C   -0.3233402587   -0.0000027743   -0.0033467633
 C    0.0611454302   -1.4012885615   -2.4270467972
 C    0.0610180758    2.8017571890    0.0000478397
 C    0.0611339679   -1.4004648926    2.4257158559
 H    2.0869446237   -1.6480299587   -2.8491584114
 H   -0.7655242295   -0.3852538398   -4.0224013416
 H   -0.7662281651   -3.2940045893   -2.3505231836
 H    2.0867895289    3.2881047742    0.0050947760
 H   -0.7661786535    3.6867363264    1.6764294029
 H   -0.7651049423    3.6737752424   -1.6765542799
 H    2.0869234827   -1.6401653653    2.8457261814
 H   -0.7649084462   -3.2899944763    2.3474587753
 H   -0.7652782906   -0.3911933878    4.0285579459
units bohr
0 2
}

basis {

assign 6-31g_2dfp_

[ 6-31g_2dfp_ ]

spherical

!----------------------------------------------------------------------
! Basis Set Exchange
! Version v0.8.13
! https://www.basissetexchange.org
!----------------------------------------------------------------------
!   Basis set: 6-31G(2df,p)
! Description: 6-31G(2df,p)
!        Role: orbital
!     Version: 0  (Data from the original Basis Set Exchange)
!----------------------------------------------------------------------

****
H     0
S    3   1.00
     18.7311370              0.03349460
      2.8253937              0.23472695
      0.6401217              0.81375733
S    1   1.00
      0.1612778              1.00000000
P    1   1.00
      1.5000000              1.0000000
P    1   1.00
      0.3750000              1.0000000
****
B     0
S    6   1.00
   2068.8823000              0.0018663
    310.6495700              0.0142515
     70.6830330              0.0695516
     19.8610800              0.2325729
      6.2993048              0.4670787
      2.1270270              0.3634314
SP   3   1.00
      4.7279710             -0.1303938              0.0745976
      1.1903377             -0.1307889              0.3078467
      0.3594117              1.1309444              0.7434568
SP   1   1.00
      0.1267512              1.0000000              1.0000000
D    1   1.00
      0.8020000              1.0000000
D    1   1.00
      0.2005000              1.0000000
F    1   1.00
      0.5000000              1.0000000
****
C     0
S    6   1.00
   3047.5249000              0.0018347
    457.3695100              0.0140373
    103.9486900              0.0688426
     29.2101550              0.2321844
      9.2866630              0.4679413
      3.1639270              0.3623120
SP   3   1.00
      7.8682724             -0.1193324              0.0689991
      1.8812885             -0.1608542              0.3164240
      0.5442493              1.1434564              0.7443083
SP   1   1.00
      0.1687144              1.0000000              1.0000000
D    1   1.00
      1.2520000              1.0000000
D    1   1.00
      0.3130000              1.0000000
F    1   1.00
      0.8000000              1.0000000
****
N     0
S    6   1.00
   4173.5110000              0.0018348
    627.4579000              0.0139950
    142.9021000              0.0685870
     40.2343300              0.2322410
     12.8202100              0.4690700
      4.3904370              0.3604550
SP   3   1.00
     11.6263580             -0.1149610              0.0675800
      2.7162800             -0.1691180              0.3239070
      0.7722180              1.1458520              0.7408950
SP   1   1.00
      0.2120313              1.0000000              1.0000000
D    1   1.00
      1.8260000              1.0000000
D    1   1.00
      0.4565000              1.0000000
F    1   1.00
      1.0000000              1.0000000
****
O     0
S    6   1.00
   5484.6717000              0.0018311
    825.2349500              0.0139501
    188.0469600              0.0684451
     52.9645000              0.2327143
     16.8975700              0.4701930
      5.7996353              0.3585209
SP   3   1.00
     15.5396160             -0.1107775              0.0708743
      3.5999336             -0.1480263              0.3397528
      1.0137618              1.1307670              0.7271586
SP   1   1.00
      0.2700058              1.0000000              1.0000000
D    1   1.00
      2.5840000              1.0000000
D    1   1.00
      0.6460000              1.0000000
F    1   1.00
      1.4000000              1.0000000
****
F     0
S    6   1.00
   7001.7130900              0.0018196169
   1051.3660900              0.0139160796
    239.2856900              0.0684053245
     67.3974453              0.233185760
     21.5199573              0.471267439
      7.40310130             0.356618546
SP   3   1.00
     20.8479528             -0.108506975            0.0716287243
      4.80830834            -0.146451658            0.3459121030
      1.34406986             1.128688580            0.7224699570
SP   1   1.00
      0.358151393            1.0000000              1.0000000
D    1   1.00
      3.5000000              1.0000000
D    1   1.00
      0.8750000              1.0000000
F    1   1.00
      1.8500000              1.0000000
****
Al     0
S    6   1.00
  13983.1000000              0.00194267
   2098.7500000              0.0148599
    477.7050000              0.0728494
    134.3600000              0.2468300
     42.8709000              0.4872580
     14.5189000              0.3234960
SP   6   1.00
    239.6680000             -0.00292619             0.00460285
     57.4419000             -0.0374080              0.0331990
     18.2859000             -0.1144870              0.1362820
      6.5991400              0.1156350              0.3304760
      2.4904900              0.6125950              0.4491460
      0.9445400              0.3937990              0.2657040
SP   3   1.00
      1.2779000             -0.2276060             -0.0175130
      0.3975900              0.00144583             0.2445330
      0.1600950              1.0927900              0.8049340
SP   1   1.00
      0.0556577              1.0000000              1.0000000
D    1   1.00
      0.6500000              1.0000000
D    1   1.00
      0.1625000              1.0000000
F    1   1.00
      0.2500000              1.0000000
****
Si     0
S    6   1.00
  16115.9000000              0.00195948
   2425.5800000              0.01492880
    553.8670000              0.07284780
    156.3400000              0.24613000
     50.0683000              0.48591400
     17.0178000              0.32500200
SP   6   1.00
    292.7180000             -0.00278094             0.00443826
     69.8731000             -0.03571460             0.03266790
     22.3363000             -0.11498500             0.13472100
      8.1503900              0.09356340             0.32867800
      3.1345800              0.60301700             0.44964000
      1.2254300              0.41895900             0.26137200
SP   3   1.00
      1.7273800             -0.24463000            -0.01779510
      0.5729220              0.00431572             0.25353900
      0.2221920              1.09818000             0.80066900
SP   1   1.00
      0.0778369              1.00000000             1.00000000
D    1   1.00
      0.9000000              1.0000000
D    1   1.00
      0.2250000              1.0000000
F    1   1.00
      0.3200000              1.0000000
****
P     0
S    6   1.00
  19413.3000000              0.0018516
   2909.4200000              0.0142062
    661.3640000              0.0699995
    185.7590000              0.2400790
     59.1943000              0.4847620
     20.0310000              0.3352000
SP   6   1.00
    339.4780000             -0.00278217             0.00456462
     81.0101000             -0.0360499              0.03369360
     25.8780000             -0.1166310              0.13975500
      9.4522100              0.0968328              0.33936200
      3.6656600              0.6144180              0.45092100
      1.4674600              0.4037980              0.23858600
SP   3   1.00
      2.1562300             -0.2529230             -0.01776530
      0.7489970              0.0328517              0.27405800
      0.2831450              1.0812500              0.78542100
SP   1   1.00
      0.0998317              1.0000000              1.00000000
D    1   1.00
      1.1000000              1.0000000
D    1   1.00
      0.2750000              1.0000000
F    1   1.00
      0.4500000              1.0000000
****
S     0
S    6   1.00
  21917.1000000              0.0018690
   3301.4900000              0.0142300
    754.1460000              0.0696960
    212.7110000              0.2384870
     67.9896000              0.4833070
     23.0515000              0.3380740
SP   6   1.00
    423.7350000             -0.0023767              0.0040610
    100.7100000             -0.0316930              0.0306810
     32.1599000             -0.1133170              0.1304520
     11.8079000              0.0560900              0.3272050
      4.6311000              0.5922550              0.4528510
      1.8702500              0.4550060              0.2560420
SP   3   1.00
      2.6158400             -0.2503740             -0.0145110
      0.9221670              0.0669570              0.3102630
      0.3412870              1.0545100              0.7544830
SP   1   1.00
      0.1171670              1.0000000              1.0000000
D    1   1.00
      1.3000000              1.0000000
D    1   1.00
      0.3250000              1.0000000
F    1   1.00
      0.5500000              1.0000000
****
Cl     0
S    6   1.00
  25180.1000000              0.0018330
   3780.3500000              0.0140340
    860.4740000              0.0690970
    242.1450000              0.2374520
     77.3349000              0.4830340
     26.2470000              0.3398560
SP   6   1.00
    491.7650000             -0.0022974              0.0039894
    116.9840000             -0.0307140              0.0303180
     37.4153000             -0.1125280              0.1298800
     13.7834000              0.0450160              0.3279510
      5.4521500              0.5893530              0.4535270
      2.2258800              0.4652060              0.2521540
SP   3   1.00
      3.1864900             -0.2518300             -0.0142990
      1.1442700              0.0615890              0.3235720
      0.4203770              1.0601800              0.7435070
SP   1   1.00
      0.1426570              1.0000000              1.0000000
D    1   1.00
      1.5000000              1.0000000
D    1   1.00
      0.3750000              1.0000000
F    1   1.00
      0.7000000              1.0000000
****
}

set {
reference uhf
freeze_core true
e_convergence 10
d_convergence 10
dft_spherical_points 1202
dft_radial_points 99
}

e = energy('b3lyp')

print_out('Grab this energy {0}'.format(e))
--------------------------------------------------------------------------

    Molecular point group: c1

    Geometry (in Bohr), charge = 0, multiplicity = 2:

       Center              X                  Y                   Z               Mass
    ------------   -----------------  -----------------  -----------------  -----------------
         C           -0.323339719408    -0.000002529957    -0.002455017975    12.000000000000
         C            0.061145969492    -1.401288317157    -2.426155051875    12.000000000000
         C            0.061018615092     2.801757433343     0.000939585025    12.000000000000
         C            0.061134507192    -1.400464648257     2.426607601225    12.000000000000
         H            2.086945162992    -1.648029714357    -2.848266666075     1.007825032230
         H           -0.765523690208    -0.385253595457    -4.021509596275     1.007825032230
         H           -0.766227625808    -3.294004344957    -2.349631438275     1.007825032230
         H            2.086790068192     3.288105018543     0.005986521325     1.007825032230
         H           -0.766178114208     3.686736570743     1.677321148225     1.007825032230
         H           -0.765104403008     3.673775486743    -1.675662534575     1.007825032230
         H            2.086924021992    -1.640165120957     2.846617926725     1.007825032230
         H           -0.764907906908    -3.289994231957     2.348350520625     1.007825032230
         H           -0.765277751308    -0.391193143457     4.029449691225     1.007825032230

  Charge       = 0
  Multiplicity = 2
  Basis Set: ANONYMOUSFF62372D
    Blend: 6-31G_2DFP_
  Basis Set: (ANONYMOUSFF62372D AUX)
    Blend: DEF2-UNIVERSAL-JKFIT

    Orbital Energies [Eh]
    ---------------------

    Alpha Occupied:

       1A    -10.180342     2A    -10.167146     3A    -10.167016
       4A    -10.166883     5A     -0.797767     6A     -0.686254
       7A     -0.686120     8A     -0.530775     9A     -0.441143
      10A     -0.434945    11A     -0.434378    12A     -0.382684
      13A     -0.382522    14A     -0.363608    15A     -0.338450
      16A     -0.337542    17A     -0.168961

    Alpha Virtual:

      18A      0.076072    19A      0.134109    20A      0.134200
      21A      0.142389    22A      0.142862    23A      0.154879
      24A      0.178733    25A      0.178826    26A      0.203546
      27A      0.214807    28A      0.275964    29A      0.276004
      30A      0.399139    31A      0.399316    32A      0.403349
      33A      0.424042    34A      0.424152    35A      0.456594
      36A      0.495282    37A      0.495497    38A      0.512159
      39A      0.513977    40A      0.578723    41A      0.578910
      42A      0.591342    43A      0.591936    44A      0.602570
      45A      0.624734    46A      0.631776    47A      0.636150
      48A      0.636377    49A      0.663377    50A      0.663445
      51A      0.683774    52A      0.683932    53A      0.734992
      54A      0.825083    55A      0.825730    56A      0.853914
      57A      0.914774    58A      0.915276    59A      0.944121
      60A      0.944594    61A      0.960435    62A      0.962161
      63A      1.003458    64A      1.127621    65A      1.128544
      66A      1.142270    67A      1.162780    68A      1.163764
      69A      1.223340    70A      1.273863    71A      1.275108
      72A      1.279341    73A      1.324256    74A      1.324453
      75A      1.355999    76A      1.365956    77A      1.366171
      78A      1.392413    79A      1.403798    80A      1.404322
      81A      1.416401    82A      1.417829    83A      1.427914
      84A      1.491496    85A      1.499072    86A      1.542555
      87A      1.543110    88A      1.574433    89A      1.574461
      90A      1.669829    91A      1.739257    92A      1.739602
      93A      1.768317    94A      1.831160    95A      1.831624
      96A      1.971741    97A      2.018046    98A      2.018701
      99A      2.019646   100A      2.052370   101A      2.052916
     102A      2.737971   103A      2.739002   104A      2.790925
     105A      2.811415   106A      2.889646   107A      2.890234
     108A      2.894977   109A      2.929131   110A      2.929869
     111A      2.958988   112A      2.964382   113A      2.964389
     114A      3.034006   115A      3.070653   116A      3.071927
     117A      3.084351   118A      3.168487   119A      3.169028
     120A      3.180632   121A      3.285059   122A      3.285568
     123A      3.326434   124A      3.327856   125A      3.375613
     126A      3.489760   127A      3.490497   128A      3.514074
     129A      3.525293   130A      3.567853   131A      3.568933
     132A      3.575203   133A      3.666228   134A      3.666502
     135A      3.679631   136A      3.693700   137A      3.694607
     138A      3.774825   139A      3.778773   140A      3.789143
     141A      3.912041   142A      3.912433   143A      4.034464
     144A      4.110424   145A      4.112306   146A      4.147977
     147A      4.148181   148A      4.173318   149A      4.202075
     150A      4.202975   151A      4.203731   152A      4.210859
     153A      4.315686   154A      4.316151   155A      4.359072
     156A      4.424145   157A      4.424777   158A      4.443445
     159A      4.516546   160A      4.517112   161A      4.577694
     162A      4.578653   163A      4.617732   164A      4.709452
     165A      4.772941   166A      4.776197   167A      4.836936
     168A      4.962856   169A      5.002347   170A      5.003570
     171A      5.228035   172A      5.246336   173A      5.247333
     174A      5.355338   175A      5.355658   176A      5.479334

    Beta Occupied:

       1A    -10.167907     2A    -10.167775     3A    -10.167642
       4A    -10.166520     5A     -0.781092     6A     -0.684052
       7A     -0.683927     8A     -0.511747     9A     -0.431321
      10A     -0.430779    11A     -0.421805    12A     -0.376734
      13A     -0.376644    14A     -0.362590    15A     -0.333587
      16A     -0.332651

    Beta Virtual:

      17A     -0.025743    18A      0.077081    19A      0.135023
      20A      0.135065    21A      0.144269    22A      0.144725
      23A      0.163339    24A      0.182410    25A      0.182490
      26A      0.215037    27A      0.218928    28A      0.282328
      29A      0.282337    30A      0.400313    31A      0.400485
      32A      0.419789    33A      0.426842    34A      0.426977
      35A      0.468501    36A      0.497542    37A      0.497757
      38A      0.513894    39A      0.556320    40A      0.584296
      41A      0.584439    42A      0.597545    43A      0.598092
      44A      0.609993    45A      0.628112    46A      0.631932
      47A      0.639440    48A      0.639656    49A      0.666949
      50A      0.667001    51A      0.686386    52A      0.686590
      53A      0.757515    54A      0.830233    55A      0.830916
      56A      0.855267    57A      0.922752    58A      0.923238
      59A      0.945959    60A      0.953512    61A      0.965793
      62A      0.967424    63A      1.008699    64A      1.131610
      65A      1.132632    66A      1.155628    67A      1.167942
      68A      1.168749    69A      1.232311    70A      1.279514
      71A      1.280651    72A      1.285095    73A      1.329273
      74A      1.329413    75A      1.365416    76A      1.371218
      77A      1.371395    78A      1.393478    79A      1.407290
      80A      1.407758    81A      1.421462    82A      1.422863
      83A      1.428184    84A      1.492545    85A      1.509516
      86A      1.546957    87A      1.547526    88A      1.582306
      89A      1.582329    90A      1.674676    91A      1.745014
      92A      1.745368    93A      1.779098    94A      1.835032
      95A      1.835463    96A      1.972600    97A      2.024943
      98A      2.025943    99A      2.039685   100A      2.059045
     101A      2.059671   102A      2.746292   103A      2.747353
     104A      2.811828   105A      2.816059   106A      2.902376
     107A      2.902908   108A      2.924654   109A      2.931545
     110A      2.932419   111A      2.960054   112A      2.968910
     113A      2.968948   114A      3.041941   115A      3.080647
     116A      3.081749   117A      3.086168   118A      3.184241
     119A      3.184685   120A      3.188406   121A      3.289923
     122A      3.290301   123A      3.330254   124A      3.331646
     125A      3.383430   126A      3.492457   127A      3.493246
     128A      3.512456   129A      3.528347   130A      3.574947
     131A      3.581250   132A      3.582319   133A      3.670831
     134A      3.671414   135A      3.692942   136A      3.725505
     137A      3.726031   138A      3.779415   139A      3.783259
     140A      3.817659   141A      3.921844   142A      3.922268
     143A      4.045351   144A      4.117305   145A      4.119054
     146A      4.155244   147A      4.155349   148A      4.187363
     149A      4.208519   150A      4.209214   151A      4.210892
     152A      4.215331   153A      4.323156   154A      4.323549
     155A      4.362447   156A      4.432414   157A      4.432941
     158A      4.446324   159A      4.524393   160A      4.524845
     161A      4.588297   162A      4.589245   163A      4.624931
     164A      4.719798   165A      4.779901   166A      4.783145
     167A      4.839854   168A      4.967650   169A      5.006392
     170A      5.007604   171A      5.233751   172A      5.248119
     173A      5.249120   174A      5.361823   175A      5.362134
     176A      5.481656

    Final Occupation by Irrep:
              A
    DOCC [    16 ]
    SOCC [     1 ]

  @DF-UKS Final Energy:  -157.81306233071552

   => Energetics <=

    Nuclear Repulsion Energy =            125.3946320732892588
    One-Electron Energy =                -458.7489116298206682
    Two-Electron Energy =                 195.8483600548314030
    DFT Exchange-Correlation Energy =     -20.3071428290154934
    Empirical Dispersion Energy =           0.0000000000000000
    VV10 Nonlocal Energy =                  0.0000000000000000
    Total Energy =                       -157.8130623307155247

  UHF NO Occupations:
  HONO-2 :   15  A 1.9996009
  HONO-1 :   16  A 1.9989805
  HONO-0 :   17  A 1.0000000
  LUNO+0 :   18  A 0.0010195
  LUNO+1 :   19  A 0.0003991
  LUNO+2 :   20  A 0.0001983
  LUNO+3 :   21  A 0.0001968

Computation Completed

Properties will be evaluated at   0.000000,   0.000000,   0.000000 [a0]

Properties computed using the SCF density matrix

  Nuclear Dipole Moment: [e a0]
     X:     0.8272      Y:    -0.0000      Z:     0.0063

  Electronic Dipole Moment: [e a0]
     X:    -0.7493      Y:     0.0000      Z:    -0.0075

  Dipole Moment: [e a0]
     X:     0.0779      Y:     0.0000      Z:    -0.0012     Total:     0.0779

  Dipole Moment: [D]
     X:     0.1980      Y:     0.0000      Z:    -0.0031     Total:     0.1981

*** tstop() called on n031 at Fri Nov  5 14:00:19 2021
Module time:
	user time   =     883.32 seconds =      14.72 minutes
	system time =      17.66 seconds =       0.29 minutes
	total time  =        226 seconds =       3.77 minutes
Total time:
	user time   =     883.32 seconds =      14.72 minutes
	system time =      17.66 seconds =       0.29 minutes
	total time  =        226 seconds =       3.77 minutes
Grab this energy -157.81306233071552
    Psi4 stopped on: Friday, 05 November 2021 02:00PM
    Psi4 wall time for execution: 0:03:46.20

*** Psi4 exiting successfully. Buy a developer a beer!
