                               Psi4 1.4a2.dev629

  ==> Input File <==

--------------------------------------------------------------------------
import os
memory 14 GB

molecule {
 C   -0.3233404444   -0.0017436037    0.0000000000
 C    0.0620863783   -1.4021065093   -2.4251782619
 C    0.0591248374    2.8026127350    0.0000000000
 C    0.0620863783   -1.4021065093    2.4251782619
 H    2.0869463945   -1.6458486006   -2.8437864897
 H   -0.7641656403   -0.3855254254   -4.0214897028
 H   -0.7669390573   -3.2933546073   -2.3539909464
 H    2.0867730877    3.2926844805    0.0000000000
 H   -0.7655107539    3.6800461799    1.6774743331
 H   -0.7655107539    3.6800461799   -1.6774743331
 H    2.0869463945   -1.6458486006    2.8437864897
 H   -0.7669390573   -3.2933546073    2.3539909464
 H   -0.7641656403   -0.3855254254    4.0214897028
units bohr
0 2
}

basis {

assign 6-31g_2dfp_

[ 6-31g_2dfp_ ]

spherical

!----------------------------------------------------------------------
! Basis Set Exchange
! Version v0.8.13
! https://www.basissetexchange.org
!----------------------------------------------------------------------
!   Basis set: 6-31G(2df,p)
! Description: 6-31G(2df,p)
!        Role: orbital
!     Version: 0  (Data from the original Basis Set Exchange)
!----------------------------------------------------------------------

****
H     0
S    3   1.00
     18.7311370              0.03349460
      2.8253937              0.23472695
      0.6401217              0.81375733
S    1   1.00
      0.1612778              1.00000000
P    1   1.00
      1.5000000              1.0000000
P    1   1.00
      0.3750000              1.0000000
****
B     0
S    6   1.00
   2068.8823000              0.0018663
    310.6495700              0.0142515
     70.6830330              0.0695516
     19.8610800              0.2325729
      6.2993048              0.4670787
      2.1270270              0.3634314
SP   3   1.00
      4.7279710             -0.1303938              0.0745976
      1.1903377             -0.1307889              0.3078467
      0.3594117              1.1309444              0.7434568
SP   1   1.00
      0.1267512              1.0000000              1.0000000
D    1   1.00
      0.8020000              1.0000000
D    1   1.00
      0.2005000              1.0000000
F    1   1.00
      0.5000000              1.0000000
****
C     0
S    6   1.00
   3047.5249000              0.0018347
    457.3695100              0.0140373
    103.9486900              0.0688426
     29.2101550              0.2321844
      9.2866630              0.4679413
      3.1639270              0.3623120
SP   3   1.00
      7.8682724             -0.1193324              0.0689991
      1.8812885             -0.1608542              0.3164240
      0.5442493              1.1434564              0.7443083
SP   1   1.00
      0.1687144              1.0000000              1.0000000
D    1   1.00
      1.2520000              1.0000000
D    1   1.00
      0.3130000              1.0000000
F    1   1.00
      0.8000000              1.0000000
****
N     0
S    6   1.00
   4173.5110000              0.0018348
    627.4579000              0.0139950
    142.9021000              0.0685870
     40.2343300              0.2322410
     12.8202100              0.4690700
      4.3904370              0.3604550
SP   3   1.00
     11.6263580             -0.1149610              0.0675800
      2.7162800             -0.1691180              0.3239070
      0.7722180              1.1458520              0.7408950
SP   1   1.00
      0.2120313              1.0000000              1.0000000
D    1   1.00
      1.8260000              1.0000000
D    1   1.00
      0.4565000              1.0000000
F    1   1.00
      1.0000000              1.0000000
****
O     0
S    6   1.00
   5484.6717000              0.0018311
    825.2349500              0.0139501
    188.0469600              0.0684451
     52.9645000              0.2327143
     16.8975700              0.4701930
      5.7996353              0.3585209
SP   3   1.00
     15.5396160             -0.1107775              0.0708743
      3.5999336             -0.1480263              0.3397528
      1.0137618              1.1307670              0.7271586
SP   1   1.00
      0.2700058              1.0000000              1.0000000
D    1   1.00
      2.5840000              1.0000000
D    1   1.00
      0.6460000              1.0000000
F    1   1.00
      1.4000000              1.0000000
****
F     0
S    6   1.00
   7001.7130900              0.0018196169
   1051.3660900              0.0139160796
    239.2856900              0.0684053245
     67.3974453              0.233185760
     21.5199573              0.471267439
      7.40310130             0.356618546
SP   3   1.00
     20.8479528             -0.108506975            0.0716287243
      4.80830834            -0.146451658            0.3459121030
      1.34406986             1.128688580            0.7224699570
SP   1   1.00
      0.358151393            1.0000000              1.0000000
D    1   1.00
      3.5000000              1.0000000
D    1   1.00
      0.8750000              1.0000000
F    1   1.00
      1.8500000              1.0000000
****
Al     0
S    6   1.00
  13983.1000000              0.00194267
   2098.7500000              0.0148599
    477.7050000              0.0728494
    134.3600000              0.2468300
     42.8709000              0.4872580
     14.5189000              0.3234960
SP   6   1.00
    239.6680000             -0.00292619             0.00460285
     57.4419000             -0.0374080              0.0331990
     18.2859000             -0.1144870              0.1362820
      6.5991400              0.1156350              0.3304760
      2.4904900              0.6125950              0.4491460
      0.9445400              0.3937990              0.2657040
SP   3   1.00
      1.2779000             -0.2276060             -0.0175130
      0.3975900              0.00144583             0.2445330
      0.1600950              1.0927900              0.8049340
SP   1   1.00
      0.0556577              1.0000000              1.0000000
D    1   1.00
      0.6500000              1.0000000
D    1   1.00
      0.1625000              1.0000000
F    1   1.00
      0.2500000              1.0000000
****
Si     0
S    6   1.00
  16115.9000000              0.00195948
   2425.5800000              0.01492880
    553.8670000              0.07284780
    156.3400000              0.24613000
     50.0683000              0.48591400
     17.0178000              0.32500200
SP   6   1.00
    292.7180000             -0.00278094             0.00443826
     69.8731000             -0.03571460             0.03266790
     22.3363000             -0.11498500             0.13472100
      8.1503900              0.09356340             0.32867800
      3.1345800              0.60301700             0.44964000
      1.2254300              0.41895900             0.26137200
SP   3   1.00
      1.7273800             -0.24463000            -0.01779510
      0.5729220              0.00431572             0.25353900
      0.2221920              1.09818000             0.80066900
SP   1   1.00
      0.0778369              1.00000000             1.00000000
D    1   1.00
      0.9000000              1.0000000
D    1   1.00
      0.2250000              1.0000000
F    1   1.00
      0.3200000              1.0000000
****
P     0
S    6   1.00
  19413.3000000              0.0018516
   2909.4200000              0.0142062
    661.3640000              0.0699995
    185.7590000              0.2400790
     59.1943000              0.4847620
     20.0310000              0.3352000
SP   6   1.00
    339.4780000             -0.00278217             0.00456462
     81.0101000             -0.0360499              0.03369360
     25.8780000             -0.1166310              0.13975500
      9.4522100              0.0968328              0.33936200
      3.6656600              0.6144180              0.45092100
      1.4674600              0.4037980              0.23858600
SP   3   1.00
      2.1562300             -0.2529230             -0.01776530
      0.7489970              0.0328517              0.27405800
      0.2831450              1.0812500              0.78542100
SP   1   1.00
      0.0998317              1.0000000              1.00000000
D    1   1.00
      1.1000000              1.0000000
D    1   1.00
      0.2750000              1.0000000
F    1   1.00
      0.4500000              1.0000000
****
S     0
S    6   1.00
  21917.1000000              0.0018690
   3301.4900000              0.0142300
    754.1460000              0.0696960
    212.7110000              0.2384870
     67.9896000              0.4833070
     23.0515000              0.3380740
SP   6   1.00
    423.7350000             -0.0023767              0.0040610
    100.7100000             -0.0316930              0.0306810
     32.1599000             -0.1133170              0.1304520
     11.8079000              0.0560900              0.3272050
      4.6311000              0.5922550              0.4528510
      1.8702500              0.4550060              0.2560420
SP   3   1.00
      2.6158400             -0.2503740             -0.0145110
      0.9221670              0.0669570              0.3102630
      0.3412870              1.0545100              0.7544830
SP   1   1.00
      0.1171670              1.0000000              1.0000000
D    1   1.00
      1.3000000              1.0000000
D    1   1.00
      0.3250000              1.0000000
F    1   1.00
      0.5500000              1.0000000
****
Cl     0
S    6   1.00
  25180.1000000              0.0018330
   3780.3500000              0.0140340
    860.4740000              0.0690970
    242.1450000              0.2374520
     77.3349000              0.4830340
     26.2470000              0.3398560
SP   6   1.00
    491.7650000             -0.0022974              0.0039894
    116.9840000             -0.0307140              0.0303180
     37.4153000             -0.1125280              0.1298800
     13.7834000              0.0450160              0.3279510
      5.4521500              0.5893530              0.4535270
      2.2258800              0.4652060              0.2521540
SP   3   1.00
      3.1864900             -0.2518300             -0.0142990
      1.1442700              0.0615890              0.3235720
      0.4203770              1.0601800              0.7435070
SP   1   1.00
      0.1426570              1.0000000              1.0000000
D    1   1.00
      1.5000000              1.0000000
D    1   1.00
      0.3750000              1.0000000
F    1   1.00
      0.7000000              1.0000000
****
}

set {
reference uhf
freeze_core true
e_convergence 10
d_convergence 10
dft_spherical_points 1202
dft_radial_points 99
}

e = energy('b3lyp')

print_out('Grab this energy {0}'.format(e))
--------------------------------------------------------------------------

    Molecular point group: cs

    Geometry (in Bohr), charge = 0, multiplicity = 2:

       Center              X                  Y                   Z               Mass
    ------------   -----------------  -----------------  -----------------  -----------------
         C           -0.323339892473    -0.001099117560     0.000000000000    12.000000000000
         C            0.062086930227    -1.401462023160    -2.425178261900    12.000000000000
         C            0.059125389327     2.803257221140     0.000000000000    12.000000000000
         C            0.062086930227    -1.401462023160     2.425178261900    12.000000000000
         H            2.086946946427    -1.645204114460    -2.843786489700     1.007825032230
         H           -0.764165088373    -0.384880939260    -4.021489702800     1.007825032230
         H           -0.766938505373    -3.292710121160    -2.353990946400     1.007825032230
         H            2.086773639627     3.293328966640     0.000000000000     1.007825032230
         H           -0.765510201973     3.680690666040     1.677474333100     1.007825032230
         H           -0.765510201973     3.680690666040    -1.677474333100     1.007825032230
         H            2.086946946427    -1.645204114460     2.843786489700     1.007825032230
         H           -0.766938505373    -3.292710121160     2.353990946400     1.007825032230
         H           -0.764165088373    -0.384880939260     4.021489702800     1.007825032230

  Charge       = 0
  Multiplicity = 2
  Basis Set: ANONYMOUS8618665E
    Blend: 6-31G_2DFP_
  Basis Set: (ANONYMOUS8618665E AUX)
    Blend: DEF2-UNIVERSAL-JKFIT

    Orbital Energies [Eh]
    ---------------------

    Alpha Occupied:

       1Ap   -10.180342     2Ap   -10.167231     1App  -10.166923
       3Ap   -10.166891     4Ap    -0.797767     2App   -0.686275
       5Ap    -0.686098     6Ap    -0.530776     7Ap    -0.441126
       3App   -0.434842     8Ap    -0.434500     4App   -0.382784
       9Ap    -0.382412     5App   -0.363617    10Ap    -0.338018
       6App   -0.337974    11Ap    -0.168961

    Alpha Virtual:

      12Ap     0.076073    13Ap     0.134090     7App    0.134222
      14Ap     0.142622     8App    0.142629    15Ap     0.154880
      16Ap     0.178705     9App    0.178852    17Ap     0.203549
      10App    0.214804    18Ap     0.275772    11App    0.276198
      12App    0.399110    19Ap     0.399323    20Ap     0.403369
      13App    0.423994    21Ap     0.424203    22Ap     0.456592
      14App    0.495302    23Ap     0.495477    15App    0.512159
      24Ap     0.513979    25Ap     0.578440    16App    0.579196
      26Ap     0.591207    17App    0.592047    27Ap     0.602585
      28Ap     0.624762    18App    0.631779    29Ap     0.636104
      19App    0.636391    30Ap     0.663276    20App    0.663548
      21App    0.683734    31Ap     0.683970    32Ap     0.734994
      22App    0.825175    33Ap     0.825636    23App    0.853917
      34Ap     0.914857    24App    0.915182    25App    0.944124
      35Ap     0.944611    26App    0.960676    36Ap     0.961908
      37Ap     1.003466    27App    1.128006    38Ap     1.128218
      39Ap     1.142219    40Ap     1.163262    28App    1.163268
      41Ap     1.223335    42Ap     1.274194    29App    1.274788
      43Ap     1.279349    44Ap     1.324109    30App    1.324603
      45Ap     1.355987    31App    1.365904    46Ap     1.366199
      32App    1.392444    47Ap     1.403619    33App    1.404507
      48Ap     1.416425    34App    1.417796    35App    1.427915
      36App    1.491493    49Ap     1.499080    37App    1.542597
      50Ap     1.543052    38App    1.574288    51Ap     1.574608
      52Ap     1.669835    53Ap     1.738639    39App    1.740203
      54Ap     1.768315    55Ap     1.831107    40App    1.831692
      41App    1.971725    56Ap     2.017600    57Ap     2.019170
      42App    2.019622    58Ap     2.051460    43App    2.053817
      44App    2.738249    59Ap     2.738710    60Ap     2.790936
      45App    2.811419    61Ap     2.889933    46App    2.889962
      62Ap     2.894968    47App    2.929491    63Ap     2.929505
      48App    2.958994    49App    2.964335    64Ap     2.964412
      65Ap     3.034007    50App    3.071010    66Ap     3.071542
      51App    3.084366    67Ap     3.168449    52App    3.169117
      68Ap     3.180583    69Ap     3.285242    53App    3.285392
      70Ap     3.326671    54App    3.327638    71Ap     3.375617
      55App    3.489989    72Ap     3.490321    56App    3.514019
      73Ap     3.525309    74Ap     3.568002    57App    3.568725
      58App    3.575220    75Ap     3.666238    59App    3.666522
      76Ap     3.679601    77Ap     3.693748    60App    3.694545
      61App    3.775626    78Ap     3.777994    79Ap     3.789151
      80Ap     3.912043    62App    3.912415    81Ap     4.034454
      82Ap     4.110209    63App    4.112537    83Ap     4.147265
      64App    4.148948    84Ap     4.173267    85Ap     4.202316
      86Ap     4.203204    65App    4.203269    66App    4.210869
      87Ap     4.315588    67App    4.316218    68App    4.359088
      69App    4.424063    88Ap     4.424829    70App    4.443454
      89Ap     4.515355    71App    4.518307    90Ap     4.578135
      72App    4.578375    91Ap     4.617532    92Ap     4.709456
      73App    4.774031    93Ap     4.775173    74App    4.836931
      94Ap     4.962855    95Ap     5.002156    75App    5.003744
      96Ap     5.228054    76App    5.246351    97Ap     5.247262
      98Ap     5.355050    77App    5.355956    78App    5.479349

    Beta Occupied:

       1Ap   -10.167991     1App  -10.167674     2Ap   -10.167658
       3Ap   -10.166519     4Ap    -0.781092     2App   -0.684070
       5Ap    -0.683908     6Ap    -0.511747     3App   -0.431208
       7Ap    -0.430876     8Ap    -0.421823     4App   -0.376873
       9Ap    -0.376492     5App   -0.362600    10Ap    -0.333146
       6App   -0.333093

    Beta Virtual:

      11Ap    -0.025743    12Ap     0.077082    13Ap     0.134997
       7App    0.135095     8App    0.144493    14Ap     0.144500
      15Ap     0.163339    16Ap     0.182356     9App    0.182544
      10App    0.215034    17Ap     0.218930    18Ap     0.282128
      11App    0.282538    12App    0.400277    19Ap     0.400515
      20Ap     0.419790    13App    0.426801    21Ap     0.427023
      22Ap     0.468500    14App    0.497569    23Ap     0.497732
      15App    0.513894    24Ap     0.556324    25Ap     0.583994
      16App    0.584741    26Ap     0.597397    17App    0.598217
      27Ap     0.610007    28Ap     0.628138    18App    0.631934
      29Ap     0.639371    19App    0.639697    30Ap     0.666856
      20App    0.667095    21App    0.686388    31Ap     0.686586
      32Ap     0.757517    22App    0.830324    33Ap     0.830824
      23App    0.855270    34Ap     0.922865    24App    0.923116
      25App    0.945961    35Ap     0.953534    26App    0.966045
      36Ap     0.967158    37Ap     1.008707    27App    1.131998
      38Ap     1.132283    39Ap     1.155599    40Ap     1.168300
      28App    1.168374    41Ap     1.232308    42Ap     1.279788
      29App    1.280388    43Ap     1.285103    44Ap     1.329071
      30App    1.329620    45Ap     1.365403    31App    1.371117
      46Ap     1.371472    32App    1.393507    47Ap     1.407044
      33App    1.408005    48Ap     1.421499    34App    1.422825
      35App    1.428184    36App    1.492541    49Ap     1.509523
      37App    1.546936    50Ap     1.547530    38App    1.582212
      51Ap     1.582426    52Ap     1.674681    53Ap     1.744400
      39App    1.745965    54Ap     1.779096    55Ap     1.834966
      40App    1.835544    41App    1.972585    56Ap     2.024832
      42App    2.026033    57Ap     2.039706    58Ap     2.058175
      43App    2.060532    44App    2.746595    59Ap     2.747039
      45App    2.811832    60Ap     2.816067    46App    2.902598
      61Ap     2.902693    62Ap     2.924658    47App    2.931958
      63Ap     2.931997    48App    2.960056    49App    2.968893
      64Ap     2.968944    65Ap     3.041943    50App    3.080922
      66Ap     3.081435    51App    3.086196    67Ap     3.184176
      52App    3.184882    68Ap     3.188273    69Ap     3.290027
      53App    3.290206    70Ap     3.330479    54App    3.331439
      71Ap     3.383435    55App    3.492702    72Ap     3.493069
      56App    3.512385    73Ap     3.528361    57App    3.574936
      74Ap     3.581356    58App    3.582182    75Ap     3.670828
      59App    3.671451    76Ap     3.692908    77Ap     3.725509
      60App    3.726016    61App    3.780184    78Ap     3.782488
      79Ap     3.817697    80Ap     3.921892    62App    3.922199
      81Ap     4.045341    82Ap     4.117085    63App    4.119294
      83Ap     4.154497    64App    4.156135    84Ap     4.187324
      85Ap     4.208697    65App    4.209221    86Ap     4.210712
      66App    4.215345    87Ap     4.323030    67App    4.323640
      68App    4.362468    69App    4.432323    88Ap     4.432988
      70App    4.446347    89Ap     4.523160    71App    4.526082
      90Ap     4.588723    72App    4.588989    91Ap     4.624727
      92Ap     4.719801    73App    4.781008    93Ap     4.782103
      74App    4.839848    94Ap     4.967650    95Ap     5.006203
      75App    5.007775    96Ap     5.233770    76App    5.248128
      97Ap     5.249053    98Ap     5.361507    77App    5.362460
      78App    5.481671

    Final Occupation by Irrep:
             Ap   App
    DOCC [    10,    6 ]
    SOCC [     1,    0 ]

  @DF-UKS Final Energy:  -157.81306803469300

   => Energetics <=

    Nuclear Repulsion Energy =            125.3946129631730884
    One-Electron Energy =                -458.7488883077335231
    Two-Electron Energy =                 195.8483497653788277
    DFT Exchange-Correlation Energy =     -20.3071424555113964
    Empirical Dispersion Energy =           0.0000000000000000
    VV10 Nonlocal Energy =                  0.0000000000000000
    Total Energy =                       -157.8130680346930035

  UHF NO Occupations:
  HONO-2 :    9 Ap 1.9996009
  HONO-1 :   10 Ap 1.9989804
  HONO-0 :   11 Ap 1.0000000
  LUNO+0 :   12 Ap 0.0010196
  LUNO+1 :   13 Ap 0.0003991
  LUNO+2 :   14 Ap 0.0001978
  LUNO+3 :    7App 0.0001973

Computation Completed

Properties will be evaluated at   0.000000,   0.000000,   0.000000 [a0]

Properties computed using the SCF density matrix

  Nuclear Dipole Moment: [e a0]
     X:     0.8272      Y:     0.0045      Z:     0.0000

  Electronic Dipole Moment: [e a0]
     X:    -0.7493      Y:    -0.0044      Z:     0.0000

  Dipole Moment: [e a0]
     X:     0.0779      Y:     0.0001      Z:     0.0000     Total:     0.0779

  Dipole Moment: [D]
     X:     0.1980      Y:     0.0002      Z:     0.0000     Total:     0.1980

*** tstop() called on n022 at Fri Nov  5 12:37:01 2021
Module time:
	user time   =     636.42 seconds =      10.61 minutes
	system time =      12.29 seconds =       0.20 minutes
	total time  =        163 seconds =       2.72 minutes
Total time:
	user time   =     636.42 seconds =      10.61 minutes
	system time =      12.29 seconds =       0.20 minutes
	total time  =        163 seconds =       2.72 minutes
Grab this energy -157.813068034693
    Psi4 stopped on: Friday, 05 November 2021 12:37PM
    Psi4 wall time for execution: 0:02:43.14

*** Psi4 exiting successfully. Buy a developer a beer!
