                               Psi4 1.4a2.dev629

  ==> Input File <==

--------------------------------------------------------------------------
import os
memory 14 GB

molecule {
 C   -0.3233529813   -0.0000032438    0.0024294113
 C    0.0616453135   -1.4011431252   -2.4255863855
 C    0.0608366350    2.8001192217    0.0012532890
 C    0.0602678751   -1.3989729756    2.4243343266
 H    2.0891090514   -1.6425436784   -2.8480955369
 H   -0.7662329189   -0.3907050357   -4.0258183433
 H   -0.7620435172   -3.2953825942   -2.3521489470
 H    2.0867396139    3.2886007066   -0.0033540788
 H   -0.7611627138    3.6836339963    1.6797256955
 H   -0.7698832687    3.6778432061   -1.6730485375
 H    2.0846546473   -1.6461489332    2.8476522901
 H   -0.7688499305   -3.2889138889    2.3467766571
 H   -0.7643356825   -0.3864079694    4.0258801595
units bohr
0 2
}

basis {

assign 6-31g_2dfp_

[ 6-31g_2dfp_ ]

spherical

!----------------------------------------------------------------------
! Basis Set Exchange
! Version v0.8.13
! https://www.basissetexchange.org
!----------------------------------------------------------------------
!   Basis set: 6-31G(2df,p)
! Description: 6-31G(2df,p)
!        Role: orbital
!     Version: 0  (Data from the original Basis Set Exchange)
!----------------------------------------------------------------------

****
H     0
S    3   1.00
     18.7311370              0.03349460
      2.8253937              0.23472695
      0.6401217              0.81375733
S    1   1.00
      0.1612778              1.00000000
P    1   1.00
      1.5000000              1.0000000
P    1   1.00
      0.3750000              1.0000000
****
B     0
S    6   1.00
   2068.8823000              0.0018663
    310.6495700              0.0142515
     70.6830330              0.0695516
     19.8610800              0.2325729
      6.2993048              0.4670787
      2.1270270              0.3634314
SP   3   1.00
      4.7279710             -0.1303938              0.0745976
      1.1903377             -0.1307889              0.3078467
      0.3594117              1.1309444              0.7434568
SP   1   1.00
      0.1267512              1.0000000              1.0000000
D    1   1.00
      0.8020000              1.0000000
D    1   1.00
      0.2005000              1.0000000
F    1   1.00
      0.5000000              1.0000000
****
C     0
S    6   1.00
   3047.5249000              0.0018347
    457.3695100              0.0140373
    103.9486900              0.0688426
     29.2101550              0.2321844
      9.2866630              0.4679413
      3.1639270              0.3623120
SP   3   1.00
      7.8682724             -0.1193324              0.0689991
      1.8812885             -0.1608542              0.3164240
      0.5442493              1.1434564              0.7443083
SP   1   1.00
      0.1687144              1.0000000              1.0000000
D    1   1.00
      1.2520000              1.0000000
D    1   1.00
      0.3130000              1.0000000
F    1   1.00
      0.8000000              1.0000000
****
N     0
S    6   1.00
   4173.5110000              0.0018348
    627.4579000              0.0139950
    142.9021000              0.0685870
     40.2343300              0.2322410
     12.8202100              0.4690700
      4.3904370              0.3604550
SP   3   1.00
     11.6263580             -0.1149610              0.0675800
      2.7162800             -0.1691180              0.3239070
      0.7722180              1.1458520              0.7408950
SP   1   1.00
      0.2120313              1.0000000              1.0000000
D    1   1.00
      1.8260000              1.0000000
D    1   1.00
      0.4565000              1.0000000
F    1   1.00
      1.0000000              1.0000000
****
O     0
S    6   1.00
   5484.6717000              0.0018311
    825.2349500              0.0139501
    188.0469600              0.0684451
     52.9645000              0.2327143
     16.8975700              0.4701930
      5.7996353              0.3585209
SP   3   1.00
     15.5396160             -0.1107775              0.0708743
      3.5999336             -0.1480263              0.3397528
      1.0137618              1.1307670              0.7271586
SP   1   1.00
      0.2700058              1.0000000              1.0000000
D    1   1.00
      2.5840000              1.0000000
D    1   1.00
      0.6460000              1.0000000
F    1   1.00
      1.4000000              1.0000000
****
F     0
S    6   1.00
   7001.7130900              0.0018196169
   1051.3660900              0.0139160796
    239.2856900              0.0684053245
     67.3974453              0.233185760
     21.5199573              0.471267439
      7.40310130             0.356618546
SP   3   1.00
     20.8479528             -0.108506975            0.0716287243
      4.80830834            -0.146451658            0.3459121030
      1.34406986             1.128688580            0.7224699570
SP   1   1.00
      0.358151393            1.0000000              1.0000000
D    1   1.00
      3.5000000              1.0000000
D    1   1.00
      0.8750000              1.0000000
F    1   1.00
      1.8500000              1.0000000
****
Al     0
S    6   1.00
  13983.1000000              0.00194267
   2098.7500000              0.0148599
    477.7050000              0.0728494
    134.3600000              0.2468300
     42.8709000              0.4872580
     14.5189000              0.3234960
SP   6   1.00
    239.6680000             -0.00292619             0.00460285
     57.4419000             -0.0374080              0.0331990
     18.2859000             -0.1144870              0.1362820
      6.5991400              0.1156350              0.3304760
      2.4904900              0.6125950              0.4491460
      0.9445400              0.3937990              0.2657040
SP   3   1.00
      1.2779000             -0.2276060             -0.0175130
      0.3975900              0.00144583             0.2445330
      0.1600950              1.0927900              0.8049340
SP   1   1.00
      0.0556577              1.0000000              1.0000000
D    1   1.00
      0.6500000              1.0000000
D    1   1.00
      0.1625000              1.0000000
F    1   1.00
      0.2500000              1.0000000
****
Si     0
S    6   1.00
  16115.9000000              0.00195948
   2425.5800000              0.01492880
    553.8670000              0.07284780
    156.3400000              0.24613000
     50.0683000              0.48591400
     17.0178000              0.32500200
SP   6   1.00
    292.7180000             -0.00278094             0.00443826
     69.8731000             -0.03571460             0.03266790
     22.3363000             -0.11498500             0.13472100
      8.1503900              0.09356340             0.32867800
      3.1345800              0.60301700             0.44964000
      1.2254300              0.41895900             0.26137200
SP   3   1.00
      1.7273800             -0.24463000            -0.01779510
      0.5729220              0.00431572             0.25353900
      0.2221920              1.09818000             0.80066900
SP   1   1.00
      0.0778369              1.00000000             1.00000000
D    1   1.00
      0.9000000              1.0000000
D    1   1.00
      0.2250000              1.0000000
F    1   1.00
      0.3200000              1.0000000
****
P     0
S    6   1.00
  19413.3000000              0.0018516
   2909.4200000              0.0142062
    661.3640000              0.0699995
    185.7590000              0.2400790
     59.1943000              0.4847620
     20.0310000              0.3352000
SP   6   1.00
    339.4780000             -0.00278217             0.00456462
     81.0101000             -0.0360499              0.03369360
     25.8780000             -0.1166310              0.13975500
      9.4522100              0.0968328              0.33936200
      3.6656600              0.6144180              0.45092100
      1.4674600              0.4037980              0.23858600
SP   3   1.00
      2.1562300             -0.2529230             -0.01776530
      0.7489970              0.0328517              0.27405800
      0.2831450              1.0812500              0.78542100
SP   1   1.00
      0.0998317              1.0000000              1.00000000
D    1   1.00
      1.1000000              1.0000000
D    1   1.00
      0.2750000              1.0000000
F    1   1.00
      0.4500000              1.0000000
****
S     0
S    6   1.00
  21917.1000000              0.0018690
   3301.4900000              0.0142300
    754.1460000              0.0696960
    212.7110000              0.2384870
     67.9896000              0.4833070
     23.0515000              0.3380740
SP   6   1.00
    423.7350000             -0.0023767              0.0040610
    100.7100000             -0.0316930              0.0306810
     32.1599000             -0.1133170              0.1304520
     11.8079000              0.0560900              0.3272050
      4.6311000              0.5922550              0.4528510
      1.8702500              0.4550060              0.2560420
SP   3   1.00
      2.6158400             -0.2503740             -0.0145110
      0.9221670              0.0669570              0.3102630
      0.3412870              1.0545100              0.7544830
SP   1   1.00
      0.1171670              1.0000000              1.0000000
D    1   1.00
      1.3000000              1.0000000
D    1   1.00
      0.3250000              1.0000000
F    1   1.00
      0.5500000              1.0000000
****
Cl     0
S    6   1.00
  25180.1000000              0.0018330
   3780.3500000              0.0140340
    860.4740000              0.0690970
    242.1450000              0.2374520
     77.3349000              0.4830340
     26.2470000              0.3398560
SP   6   1.00
    491.7650000             -0.0022974              0.0039894
    116.9840000             -0.0307140              0.0303180
     37.4153000             -0.1125280              0.1298800
     13.7834000              0.0450160              0.3279510
      5.4521500              0.5893530              0.4535270
      2.2258800              0.4652060              0.2521540
SP   3   1.00
      3.1864900             -0.2518300             -0.0142990
      1.1442700              0.0615890              0.3235720
      0.4203770              1.0601800              0.7435070
SP   1   1.00
      0.1426570              1.0000000              1.0000000
D    1   1.00
      1.5000000              1.0000000
D    1   1.00
      0.3750000              1.0000000
F    1   1.00
      0.7000000              1.0000000
****
}

set {
reference uhf
freeze_core true
e_convergence 10
d_convergence 10
dft_spherical_points 1202
dft_radial_points 99
}

e = energy('b3lyp')

print_out('Grab this energy {0}'.format(e))
--------------------------------------------------------------------------

    Molecular point group: c1

    Geometry (in Bohr), charge = 0, multiplicity = 2:

       Center              X                  Y                   Z               Mass
    ------------   -----------------  -----------------  -----------------  -----------------
         C           -0.323244510152    -0.000002790765     0.001961252258    12.000000000000
         C            0.061753784648    -1.401142672165    -2.426054544542    12.000000000000
         C            0.060945106148     2.800119674735     0.000785129958    12.000000000000
         C            0.060376346248    -1.398972522565     2.423866167558    12.000000000000
         H            2.089217522548    -1.642543225365    -2.848563695942     1.007825032230
         H           -0.766124447752    -0.390704582665    -4.026286502342     1.007825032230
         H           -0.761935046052    -3.295382141165    -2.352617106042     1.007825032230
         H            2.086848085048     3.288601159635    -0.003822237842     1.007825032230
         H           -0.761054242652     3.683634449335     1.679257536458     1.007825032230
         H           -0.769774797552     3.677843659135    -1.673516696542     1.007825032230
         H            2.084763118448    -1.646148480165     2.847184131058     1.007825032230
         H           -0.768741459352    -3.288913435865     2.346308498058     1.007825032230
         H           -0.764227211352    -0.386407516365     4.025412000458     1.007825032230

  Charge       = 0
  Multiplicity = 2
  Basis Set: ANONYMOUSA2AE60D7
    Blend: 6-31G_2DFP_
  Basis Set: (ANONYMOUSA2AE60D7 AUX)
    Blend: DEF2-UNIVERSAL-JKFIT

    Orbital Energies [Eh]
    ---------------------

    Alpha Occupied:

       1A    -10.180290     2A    -10.167256     3A    -10.167068
       4A    -10.166878     5A     -0.798025     6A     -0.686339
       7A     -0.686053     8A     -0.530942     9A     -0.441135
      10A     -0.434812    11A     -0.434668    12A     -0.382506
      13A     -0.382416    14A     -0.363409    15A     -0.338307
      16A     -0.338009    17A     -0.168981

    Alpha Virtual:

      18A      0.076065    19A      0.134035    20A      0.134161
      21A      0.142482    22A      0.142506    23A      0.154985
      24A      0.178609    25A      0.178615    26A      0.203837
      27A      0.214678    28A      0.275891    29A      0.276562
      30A      0.399209    31A      0.399224    32A      0.403265
      33A      0.424010    34A      0.424078    35A      0.456775
      36A      0.495329    37A      0.495430    38A      0.512105
      39A      0.513921    40A      0.578588    41A      0.578955
      42A      0.591305    43A      0.591766    44A      0.602530
      45A      0.624642    46A      0.631541    47A      0.636216
      48A      0.636400    49A      0.663324    50A      0.663732
      51A      0.683818    52A      0.683858    53A      0.734863
      54A      0.825397    55A      0.825459    56A      0.854052
      57A      0.914853    58A      0.915118    59A      0.944170
      60A      0.944925    61A      0.961186    62A      0.961268
      63A      1.003285    64A      1.128129    65A      1.128224
      66A      1.142626    67A      1.162558    68A      1.162790
      69A      1.223754    70A      1.274436    71A      1.274798
      72A      1.279524    73A      1.324435    74A      1.324679
      75A      1.356334    76A      1.365895    77A      1.366486
      78A      1.391953    79A      1.403007    80A      1.403658
      81A      1.416831    82A      1.417360    83A      1.427666
      84A      1.492016    85A      1.498500    86A      1.542849
      87A      1.543126    88A      1.574323    89A      1.574771
      90A      1.669046    91A      1.739655    92A      1.740184
      93A      1.768289    94A      1.830553    95A      1.831382
      96A      1.972328    97A      2.018027    98A      2.019777
      99A      2.019846   100A      2.052098   101A      2.054068
     102A      2.738602   103A      2.738714   104A      2.791152
     105A      2.811509   106A      2.889616   107A      2.890451
     108A      2.895402   109A      2.929166   110A      2.929513
     111A      2.958944   112A      2.964085   113A      2.964611
     114A      3.034182   115A      3.070936   116A      3.071529
     117A      3.084753   118A      3.168822   119A      3.168921
     120A      3.181208   121A      3.284939   122A      3.285027
     123A      3.326958   124A      3.327848   125A      3.375520
     126A      3.490008   127A      3.490485   128A      3.514150
     129A      3.525661   130A      3.567808   131A      3.569472
     132A      3.575009   133A      3.665383   134A      3.665768
     135A      3.679106   136A      3.693705   137A      3.694356
     138A      3.775508   139A      3.778170   140A      3.788876
     141A      3.912839   142A      3.913821   143A      4.035011
     144A      4.110067   145A      4.112120   146A      4.147566
     147A      4.148676   148A      4.173926   149A      4.203092
     150A      4.203613   151A      4.204292   152A      4.211231
     153A      4.315320   154A      4.316347   155A      4.358342
     156A      4.422783   157A      4.423781   158A      4.441476
     159A      4.516415   160A      4.517935   161A      4.578314
     162A      4.579647   163A      4.617907   164A      4.710736
     165A      4.774786   166A      4.776025   167A      4.838236
     168A      4.961539   169A      5.001458   170A      5.002709
     171A      5.227501   172A      5.246408   173A      5.246654
     174A      5.354713   175A      5.356627   176A      5.480570

    Beta Occupied:

       1A    -10.168014     2A    -10.167829     3A    -10.167643
       4A    -10.166478     5A     -0.781334     6A     -0.684124
       7A     -0.683861     8A     -0.511959     9A     -0.431170
      10A     -0.431013    11A     -0.421790    12A     -0.376564
      13A     -0.376497    14A     -0.362389    15A     -0.333445
      16A     -0.333146

    Beta Virtual:

      17A     -0.025912    18A      0.077077    19A      0.134929
      20A      0.135063    21A      0.144344    22A      0.144389
      23A      0.163486    24A      0.182293    25A      0.182303
      26A      0.214909    27A      0.219170    28A      0.282230
      29A      0.282880    30A      0.400395    31A      0.400399
      32A      0.419710    33A      0.426810    34A      0.426904
      35A      0.468760    36A      0.497604    37A      0.497691
      38A      0.513849    39A      0.556234    40A      0.584125
      41A      0.584517    42A      0.597496    43A      0.597914
      44A      0.609947    45A      0.628055    46A      0.631703
      47A      0.639497    48A      0.639724    49A      0.666900
      50A      0.667286    51A      0.686476    52A      0.686492
      53A      0.757308    54A      0.830609    55A      0.830615
      56A      0.855418    57A      0.922818    58A      0.923090
      59A      0.946013    60A      0.953866    61A      0.966472
      62A      0.966612    63A      1.008515    64A      1.132098
      65A      1.132300    66A      1.156037    67A      1.167687
      68A      1.167790    69A      1.232669    70A      1.280058
      71A      1.280431    72A      1.285257    73A      1.329460
      74A      1.329678    75A      1.365760    76A      1.371114
      77A      1.371628    78A      1.393019    79A      1.406478
      80A      1.407183    81A      1.421889    82A      1.422403
      83A      1.427925    84A      1.493077    85A      1.508965
      86A      1.547309    87A      1.547526    88A      1.582220
      89A      1.582582    90A      1.673888    91A      1.745400
      92A      1.745956    93A      1.779110    94A      1.834427
      95A      1.835269    96A      1.973194    97A      2.026182
      98A      2.026304    99A      2.039466   100A      2.058808
     101A      2.060714   102A      2.746880   103A      2.747045
     104A      2.811920   105A      2.816252   106A      2.902344
     107A      2.903065   108A      2.925080   109A      2.931688
     110A      2.932033   111A      2.960004   112A      2.968677
     113A      2.969171   114A      3.042159   115A      3.080932
     116A      3.081443   117A      3.086577   118A      3.184383
     119A      3.184630   120A      3.188906   121A      3.289783
     122A      3.289877   123A      3.330764   124A      3.331640
     125A      3.383371   126A      3.492727   127A      3.493245
     128A      3.512516   129A      3.528672   130A      3.574859
     131A      3.581110   132A      3.582715   133A      3.670084
     134A      3.670238   135A      3.692382   136A      3.725584
     137A      3.725947   138A      3.780151   139A      3.782728
     140A      3.817341   141A      3.922662   142A      3.923557
     143A      4.045820   144A      4.116980   145A      4.119029
     146A      4.154789   147A      4.155766   148A      4.188040
     149A      4.209166   150A      4.210092   151A      4.211615
     152A      4.215726   153A      4.322638   154A      4.323725
     155A      4.361726   156A      4.431086   157A      4.432036
     158A      4.444366   159A      4.524279   160A      4.525776
     161A      4.588929   162A      4.590269   163A      4.625124
     164A      4.721083   165A      4.781778   166A      4.782937
     167A      4.841150   168A      4.966355   169A      5.005501
     170A      5.006789   171A      5.233234   172A      5.248190
     173A      5.248460   174A      5.361201   175A      5.363158
     176A      5.482899

    Final Occupation by Irrep:
              A
    DOCC [    16 ]
    SOCC [     1 ]

  @DF-UKS Final Energy:  -157.81308931583192

   => Energetics <=

    Nuclear Repulsion Energy =            125.4225866281624349
    One-Electron Energy =                -458.8039310741302188
    Two-Electron Energy =                 195.8752831912030956
    DFT Exchange-Correlation Energy =     -20.3070280610672320
    Empirical Dispersion Energy =           0.0000000000000000
    VV10 Nonlocal Energy =                  0.0000000000000000
    Total Energy =                       -157.8130893158319168

  UHF NO Occupations:
  HONO-2 :   15  A 1.9995993
  HONO-1 :   16  A 1.9989827
  HONO-0 :   17  A 1.0000000
  LUNO+0 :   18  A 0.0010173
  LUNO+1 :   19  A 0.0004007
  LUNO+2 :   20  A 0.0001973
  LUNO+3 :   21  A 0.0001962

Computation Completed

Properties will be evaluated at   0.000000,   0.000000,   0.000000 [a0]

Properties computed using the SCF density matrix

  Nuclear Dipole Moment: [e a0]
     X:     0.8280      Y:    -0.0000      Z:    -0.0033

  Electronic Dipole Moment: [e a0]
     X:    -0.7502      Y:     0.0000      Z:     0.0033

  Dipole Moment: [e a0]
     X:     0.0778      Y:     0.0000      Z:    -0.0000     Total:     0.0778

  Dipole Moment: [D]
     X:     0.1977      Y:     0.0000      Z:    -0.0001     Total:     0.1977

*** tstop() called on n079 at Fri Nov  5 13:28:08 2021
Module time:
	user time   =     496.86 seconds =       8.28 minutes
	system time =       4.65 seconds =       0.08 minutes
	total time  =        126 seconds =       2.10 minutes
Total time:
	user time   =     496.86 seconds =       8.28 minutes
	system time =       4.65 seconds =       0.08 minutes
	total time  =        126 seconds =       2.10 minutes
Grab this energy -157.81308931583192
    Psi4 stopped on: Friday, 05 November 2021 01:28PM
    Psi4 wall time for execution: 0:02:06.10

*** Psi4 exiting successfully. Buy a developer a beer!
