                               Psi4 1.4a2.dev629

  ==> Input File <==

--------------------------------------------------------------------------
import os
memory 14 GB

molecule {
 C   -0.3243653268   -0.0019990455    0.0000000000
 C    0.0600017060   -1.4016088891   -2.4256473162
 C    0.0601150370    2.8027604255    0.0000000000
 C    0.0600017060   -1.4016088891    2.4256473162
 H    2.0903584249   -1.6462378628   -2.8440379602
 H   -0.7649187968   -0.3874943999   -4.0201204927
 H   -0.7674541974   -3.2913905076   -2.3547886415
 H    2.0898821078    3.2931175447    0.0000000000
 H   -0.7671069840    3.6797800403    1.6749158870
 H   -0.7671069840    3.6797800403   -1.6749158870
 H    2.0903584249   -1.6462378628    2.8440379602
 H   -0.7674541974   -3.2913905076    2.3547886415
 H   -0.7649187968   -0.3874943999    4.0201204927
units bohr
0 2
}

basis {

assign 6-31g_2dfp_

[ 6-31g_2dfp_ ]

spherical

!----------------------------------------------------------------------
! Basis Set Exchange
! Version v0.8.13
! https://www.basissetexchange.org
!----------------------------------------------------------------------
!   Basis set: 6-31G(2df,p)
! Description: 6-31G(2df,p)
!        Role: orbital
!     Version: 0  (Data from the original Basis Set Exchange)
!----------------------------------------------------------------------

****
H     0
S    3   1.00
     18.7311370              0.03349460
      2.8253937              0.23472695
      0.6401217              0.81375733
S    1   1.00
      0.1612778              1.00000000
P    1   1.00
      1.5000000              1.0000000
P    1   1.00
      0.3750000              1.0000000
****
B     0
S    6   1.00
   2068.8823000              0.0018663
    310.6495700              0.0142515
     70.6830330              0.0695516
     19.8610800              0.2325729
      6.2993048              0.4670787
      2.1270270              0.3634314
SP   3   1.00
      4.7279710             -0.1303938              0.0745976
      1.1903377             -0.1307889              0.3078467
      0.3594117              1.1309444              0.7434568
SP   1   1.00
      0.1267512              1.0000000              1.0000000
D    1   1.00
      0.8020000              1.0000000
D    1   1.00
      0.2005000              1.0000000
F    1   1.00
      0.5000000              1.0000000
****
C     0
S    6   1.00
   3047.5249000              0.0018347
    457.3695100              0.0140373
    103.9486900              0.0688426
     29.2101550              0.2321844
      9.2866630              0.4679413
      3.1639270              0.3623120
SP   3   1.00
      7.8682724             -0.1193324              0.0689991
      1.8812885             -0.1608542              0.3164240
      0.5442493              1.1434564              0.7443083
SP   1   1.00
      0.1687144              1.0000000              1.0000000
D    1   1.00
      1.2520000              1.0000000
D    1   1.00
      0.3130000              1.0000000
F    1   1.00
      0.8000000              1.0000000
****
N     0
S    6   1.00
   4173.5110000              0.0018348
    627.4579000              0.0139950
    142.9021000              0.0685870
     40.2343300              0.2322410
     12.8202100              0.4690700
      4.3904370              0.3604550
SP   3   1.00
     11.6263580             -0.1149610              0.0675800
      2.7162800             -0.1691180              0.3239070
      0.7722180              1.1458520              0.7408950
SP   1   1.00
      0.2120313              1.0000000              1.0000000
D    1   1.00
      1.8260000              1.0000000
D    1   1.00
      0.4565000              1.0000000
F    1   1.00
      1.0000000              1.0000000
****
O     0
S    6   1.00
   5484.6717000              0.0018311
    825.2349500              0.0139501
    188.0469600              0.0684451
     52.9645000              0.2327143
     16.8975700              0.4701930
      5.7996353              0.3585209
SP   3   1.00
     15.5396160             -0.1107775              0.0708743
      3.5999336             -0.1480263              0.3397528
      1.0137618              1.1307670              0.7271586
SP   1   1.00
      0.2700058              1.0000000              1.0000000
D    1   1.00
      2.5840000              1.0000000
D    1   1.00
      0.6460000              1.0000000
F    1   1.00
      1.4000000              1.0000000
****
F     0
S    6   1.00
   7001.7130900              0.0018196169
   1051.3660900              0.0139160796
    239.2856900              0.0684053245
     67.3974453              0.233185760
     21.5199573              0.471267439
      7.40310130             0.356618546
SP   3   1.00
     20.8479528             -0.108506975            0.0716287243
      4.80830834            -0.146451658            0.3459121030
      1.34406986             1.128688580            0.7224699570
SP   1   1.00
      0.358151393            1.0000000              1.0000000
D    1   1.00
      3.5000000              1.0000000
D    1   1.00
      0.8750000              1.0000000
F    1   1.00
      1.8500000              1.0000000
****
Al     0
S    6   1.00
  13983.1000000              0.00194267
   2098.7500000              0.0148599
    477.7050000              0.0728494
    134.3600000              0.2468300
     42.8709000              0.4872580
     14.5189000              0.3234960
SP   6   1.00
    239.6680000             -0.00292619             0.00460285
     57.4419000             -0.0374080              0.0331990
     18.2859000             -0.1144870              0.1362820
      6.5991400              0.1156350              0.3304760
      2.4904900              0.6125950              0.4491460
      0.9445400              0.3937990              0.2657040
SP   3   1.00
      1.2779000             -0.2276060             -0.0175130
      0.3975900              0.00144583             0.2445330
      0.1600950              1.0927900              0.8049340
SP   1   1.00
      0.0556577              1.0000000              1.0000000
D    1   1.00
      0.6500000              1.0000000
D    1   1.00
      0.1625000              1.0000000
F    1   1.00
      0.2500000              1.0000000
****
Si     0
S    6   1.00
  16115.9000000              0.00195948
   2425.5800000              0.01492880
    553.8670000              0.07284780
    156.3400000              0.24613000
     50.0683000              0.48591400
     17.0178000              0.32500200
SP   6   1.00
    292.7180000             -0.00278094             0.00443826
     69.8731000             -0.03571460             0.03266790
     22.3363000             -0.11498500             0.13472100
      8.1503900              0.09356340             0.32867800
      3.1345800              0.60301700             0.44964000
      1.2254300              0.41895900             0.26137200
SP   3   1.00
      1.7273800             -0.24463000            -0.01779510
      0.5729220              0.00431572             0.25353900
      0.2221920              1.09818000             0.80066900
SP   1   1.00
      0.0778369              1.00000000             1.00000000
D    1   1.00
      0.9000000              1.0000000
D    1   1.00
      0.2250000              1.0000000
F    1   1.00
      0.3200000              1.0000000
****
P     0
S    6   1.00
  19413.3000000              0.0018516
   2909.4200000              0.0142062
    661.3640000              0.0699995
    185.7590000              0.2400790
     59.1943000              0.4847620
     20.0310000              0.3352000
SP   6   1.00
    339.4780000             -0.00278217             0.00456462
     81.0101000             -0.0360499              0.03369360
     25.8780000             -0.1166310              0.13975500
      9.4522100              0.0968328              0.33936200
      3.6656600              0.6144180              0.45092100
      1.4674600              0.4037980              0.23858600
SP   3   1.00
      2.1562300             -0.2529230             -0.01776530
      0.7489970              0.0328517              0.27405800
      0.2831450              1.0812500              0.78542100
SP   1   1.00
      0.0998317              1.0000000              1.00000000
D    1   1.00
      1.1000000              1.0000000
D    1   1.00
      0.2750000              1.0000000
F    1   1.00
      0.4500000              1.0000000
****
S     0
S    6   1.00
  21917.1000000              0.0018690
   3301.4900000              0.0142300
    754.1460000              0.0696960
    212.7110000              0.2384870
     67.9896000              0.4833070
     23.0515000              0.3380740
SP   6   1.00
    423.7350000             -0.0023767              0.0040610
    100.7100000             -0.0316930              0.0306810
     32.1599000             -0.1133170              0.1304520
     11.8079000              0.0560900              0.3272050
      4.6311000              0.5922550              0.4528510
      1.8702500              0.4550060              0.2560420
SP   3   1.00
      2.6158400             -0.2503740             -0.0145110
      0.9221670              0.0669570              0.3102630
      0.3412870              1.0545100              0.7544830
SP   1   1.00
      0.1171670              1.0000000              1.0000000
D    1   1.00
      1.3000000              1.0000000
D    1   1.00
      0.3250000              1.0000000
F    1   1.00
      0.5500000              1.0000000
****
Cl     0
S    6   1.00
  25180.1000000              0.0018330
   3780.3500000              0.0140340
    860.4740000              0.0690970
    242.1450000              0.2374520
     77.3349000              0.4830340
     26.2470000              0.3398560
SP   6   1.00
    491.7650000             -0.0022974              0.0039894
    116.9840000             -0.0307140              0.0303180
     37.4153000             -0.1125280              0.1298800
     13.7834000              0.0450160              0.3279510
      5.4521500              0.5893530              0.4535270
      2.2258800              0.4652060              0.2521540
SP   3   1.00
      3.1864900             -0.2518300             -0.0142990
      1.1442700              0.0615890              0.3235720
      0.4203770              1.0601800              0.7435070
SP   1   1.00
      0.1426570              1.0000000              1.0000000
D    1   1.00
      1.5000000              1.0000000
D    1   1.00
      0.3750000              1.0000000
F    1   1.00
      0.7000000              1.0000000
****
}

set {
reference uhf
freeze_core true
e_convergence 10
d_convergence 10
dft_spherical_points 1202
dft_radial_points 99
}

e = energy('b3lyp')

print_out('Grab this energy {0}'.format(e))
--------------------------------------------------------------------------

    Molecular point group: cs

    Geometry (in Bohr), charge = 0, multiplicity = 2:

       Center              X                  Y                   Z               Mass
    ------------   -----------------  -----------------  -----------------  -----------------
         C           -0.323555048918    -0.001525496154     0.000000000000    12.000000000000
         C            0.060811983882    -1.401135339754    -2.425647316200    12.000000000000
         C            0.060925314882     2.803233974846     0.000000000000    12.000000000000
         C            0.060811983882    -1.401135339754     2.425647316200    12.000000000000
         H            2.091168702782    -1.645764313454    -2.844037960200     1.007825032230
         H           -0.764108518918    -0.387020850554    -4.020120492700     1.007825032230
         H           -0.766643919518    -3.290916958254    -2.354788641500     1.007825032230
         H            2.090692385682     3.293591094046     0.000000000000     1.007825032230
         H           -0.766296706118     3.680253589646     1.674915887000     1.007825032230
         H           -0.766296706118     3.680253589646    -1.674915887000     1.007825032230
         H            2.091168702782    -1.645764313454     2.844037960200     1.007825032230
         H           -0.766643919518    -3.290916958254     2.354788641500     1.007825032230
         H           -0.764108518918    -0.387020850554     4.020120492700     1.007825032230

  Charge       = 0
  Multiplicity = 2
  Basis Set: ANONYMOUS7DB8665D
    Blend: 6-31G_2DFP_
  Basis Set: (ANONYMOUS7DB8665D AUX)
    Blend: DEF2-UNIVERSAL-JKFIT

    Orbital Energies [Eh]
    ---------------------

    Alpha Occupied:

       1Ap   -10.180401     2Ap   -10.167202     1App  -10.166942
       3Ap   -10.166910     4Ap    -0.797730     2App   -0.686304
       5Ap    -0.686061     6Ap    -0.530769     7Ap    -0.441030
       3App   -0.434786     8Ap    -0.434643     4App   -0.382497
       9Ap    -0.382425     5App   -0.363790     6App   -0.338116
      10Ap    -0.337988    11Ap    -0.168998

    Alpha Virtual:

      12Ap     0.076158    13Ap     0.134113     7App    0.134182
       8App    0.142641    14Ap     0.142760    15Ap     0.154713
       9App    0.178562    16Ap     0.178647    17Ap     0.203506
      10App    0.215078    18Ap     0.275693    11App    0.276228
      19Ap     0.399062    12App    0.399148    20Ap     0.403264
      13App    0.424230    21Ap     0.424344    22Ap     0.456518
      14App    0.495511    23Ap     0.495628    15App    0.512041
      24Ap     0.513826    25Ap     0.578351    16App    0.578936
      26Ap     0.591072    17App    0.591662    27Ap     0.601823
      28Ap     0.625270    18App    0.632164    29Ap     0.636591
      19App    0.636657    20App    0.662894    30Ap     0.662957
      31Ap     0.684072    21App    0.684135    32Ap     0.735056
      22App    0.825159    33Ap     0.825586    23App    0.853637
      34Ap     0.914655    24App    0.914939    25App    0.944411
      35Ap     0.944752    26App    0.960502    36Ap     0.961897
      37Ap     1.003275    27App    1.128149    38Ap     1.128556
      39Ap     1.141501    28App    1.163441    40Ap     1.163646
      41Ap     1.223740    42Ap     1.274092    29App    1.274409
      43Ap     1.279186    30App    1.324131    44Ap     1.324152
      45Ap     1.356513    46Ap     1.365807    31App    1.366135
      32App    1.392400    47Ap     1.402711    33App    1.403340
      48Ap     1.417698    34App    1.418494    35App    1.427696
      36App    1.491483    49Ap     1.498151    37App    1.542193
      50Ap     1.542735    38App    1.574806    51Ap     1.574814
      52Ap     1.671094    53Ap     1.738204    39App    1.738952
      54Ap     1.766455    55Ap     1.832306    40App    1.833288
      41App    1.972744    56Ap     2.017969    42App    2.018958
      57Ap     2.019337    58Ap     2.050577    43App    2.052235
      44App    2.738529    59Ap     2.739075    60Ap     2.790539
      45App    2.811871    61Ap     2.889269    46App    2.889862
      62Ap     2.894643    63Ap     2.929679    47App    2.929731
      48App    2.958864    49App    2.963816    64Ap     2.964099
      65Ap     3.033320    50App    3.071109    66Ap     3.071397
      51App    3.085757    67Ap     3.168450    52App    3.168870
      68Ap     3.180539    69Ap     3.285176    53App    3.285264
      70Ap     3.327460    54App    3.328117    71Ap     3.375786
      72Ap     3.489786    55App    3.490063    56App    3.512812
      73Ap     3.526510    74Ap     3.567710    57App    3.568179
      58App    3.574427    59App    3.665860    75Ap     3.666118
      76Ap     3.680227    77Ap     3.693946    60App    3.694746
      61App    3.775993    78Ap     3.778456    79Ap     3.788367
      80Ap     3.912529    62App    3.913061    81Ap     4.034872
      82Ap     4.110050    63App    4.112566    83Ap     4.146584
      64App    4.148397    84Ap     4.171509    85Ap     4.202675
      86Ap     4.203886    65App    4.203942    66App    4.209670
      87Ap     4.314739    67App    4.316283    68App    4.360268
      69App    4.423481    88Ap     4.423979    70App    4.443699
      89Ap     4.515746    71App    4.516610    90Ap     4.578618
      72App    4.579292    91Ap     4.617390    92Ap     4.708939
      73App    4.773607    93Ap     4.775844    74App    4.838307
      94Ap     4.963168    95Ap     5.001310    75App    5.001982
      96Ap     5.225324    76App    5.249342    97Ap     5.250283
      98Ap     5.352833    77App    5.354270    78App    5.481316

    Beta Occupied:

       1Ap   -10.167962     1App  -10.167696     2Ap   -10.167680
       3Ap   -10.166584     4Ap    -0.781062     2App   -0.684112
       5Ap    -0.683883     6Ap    -0.511789     3App   -0.431172
       7Ap    -0.431056     8Ap    -0.421661     4App   -0.376553
       9Ap    -0.376490     5App   -0.362783     6App   -0.333232
      10Ap    -0.333111

    Beta Virtual:

      11Ap    -0.025872    12Ap     0.077183    13Ap     0.135083
       7App    0.135135     8App    0.144484    14Ap     0.144606
      15Ap     0.163192     9App    0.182223    16Ap     0.182271
      10App    0.215300    17Ap     0.218886    18Ap     0.282056
      11App    0.282571    19Ap     0.400241    12App    0.400318
      20Ap     0.419797    13App    0.427039    21Ap     0.427158
      22Ap     0.468326    14App    0.497783    23Ap     0.497896
      15App    0.513784    24Ap     0.556132    25Ap     0.583927
      16App    0.584515    26Ap     0.597258    17App    0.597819
      27Ap     0.609368    28Ap     0.628523    18App    0.632319
      29Ap     0.639820    19App    0.639923    20App    0.666487
      30Ap     0.666552    31Ap     0.686674    21App    0.686780
      32Ap     0.757575    22App    0.830327    33Ap     0.830798
      23App    0.854999    34Ap     0.922678    24App    0.922892
      25App    0.946240    35Ap     0.953725    26App    0.965828
      36Ap     0.967119    37Ap     1.008477    27App    1.132139
      38Ap     1.132696    39Ap     1.154961    28App    1.168571
      40Ap     1.168612    41Ap     1.232696    42Ap     1.279667
      29App    1.279982    43Ap     1.284883    44Ap     1.329170
      30App    1.329184    45Ap     1.365912    46Ap     1.371151
      31App    1.371420    32App    1.393476    47Ap     1.406095
      33App    1.406769    48Ap     1.422718    34App    1.423508
      35App    1.427971    36App    1.492505    49Ap     1.508603
      37App    1.546631    50Ap     1.547174    38App    1.582662
      51Ap     1.582668    52Ap     1.675991    53Ap     1.743952
      39App    1.744716    54Ap     1.777223    55Ap     1.836166
      40App    1.837141    41App    1.973590    42App    2.025207
      56Ap     2.025340    57Ap     2.039598    58Ap     2.057396
      43App    2.059099    44App    2.746889    59Ap     2.747406
      45App    2.812287    60Ap     2.815634    61Ap     2.902022
      46App    2.902463    62Ap     2.924121    63Ap     2.932175
      47App    2.932199    48App    2.959922    49App    2.968343
      64Ap     2.968591    65Ap     3.041470    50App    3.081016
      66Ap     3.081284    51App    3.087573    67Ap     3.184188
      52App    3.184671    68Ap     3.188197    69Ap     3.289981
      53App    3.290119    70Ap     3.331247    54App    3.331869
      71Ap     3.383579    72Ap     3.492494    55App    3.492733
      56App    3.511178    73Ap     3.529549    57App    3.574092
      74Ap     3.581170    58App    3.581918    75Ap     3.670582
      59App    3.670748    76Ap     3.693502    77Ap     3.725845
      60App    3.726058    61App    3.780501    78Ap     3.782874
      79Ap     3.816940    80Ap     3.922418    62App    3.922917
      81Ap     4.045821    82Ap     4.116984    63App    4.119272
      83Ap     4.153767    64App    4.155621    84Ap     4.185585
      85Ap     4.209909    65App    4.210011    86Ap     4.210603
      66App    4.214270    87Ap     4.322091    67App    4.323676
      68App    4.363591    69App    4.431738    88Ap     4.432149
      70App    4.446534    89Ap     4.523579    71App    4.524425
      90Ap     4.589177    72App    4.589849    91Ap     4.624494
      92Ap     4.719399    73App    4.780551    93Ap     4.782708
      74App    4.841214    94Ap     4.967975    95Ap     5.005367
      75App    5.006056    96Ap     5.231004    76App    5.251104
      97Ap     5.252061    98Ap     5.359263    77App    5.360744
      78App    5.483625

    Final Occupation by Irrep:
             Ap   App
    DOCC [    10,    6 ]
    SOCC [     1,    0 ]

  @DF-UKS Final Energy:  -157.81305600594862

   => Energetics <=

    Nuclear Repulsion Energy =            125.3893065384731642
    One-Electron Energy =                -458.7382101218848902
    Two-Electron Energy =                 195.8428848081017009
    DFT Exchange-Correlation Energy =     -20.3070372306386133
    Empirical Dispersion Energy =           0.0000000000000000
    VV10 Nonlocal Energy =                  0.0000000000000000
    Total Energy =                       -157.8130560059486243

  UHF NO Occupations:
  HONO-2 :    9 Ap 1.9995985
  HONO-1 :   10 Ap 1.9989796
  HONO-0 :   11 Ap 1.0000000
  LUNO+0 :   12 Ap 0.0010204
  LUNO+1 :   13 Ap 0.0004015
  LUNO+2 :   14 Ap 0.0001979
  LUNO+3 :    7App 0.0001972

Computation Completed

Properties will be evaluated at   0.000000,   0.000000,   0.000000 [a0]

Properties computed using the SCF density matrix

  Nuclear Dipole Moment: [e a0]
     X:     0.8329      Y:     0.0033      Z:    -0.0000

  Electronic Dipole Moment: [e a0]
     X:    -0.7582      Y:    -0.0033      Z:     0.0000

  Dipole Moment: [e a0]
     X:     0.0747      Y:    -0.0000      Z:    -0.0000     Total:     0.0747

  Dipole Moment: [D]
     X:     0.1899      Y:    -0.0001      Z:    -0.0000     Total:     0.1899

*** tstop() called on n091 at Fri Nov  5 14:50:07 2021
Module time:
	user time   =     491.81 seconds =       8.20 minutes
	system time =       4.58 seconds =       0.08 minutes
	total time  =        125 seconds =       2.08 minutes
Total time:
	user time   =     491.81 seconds =       8.20 minutes
	system time =       4.58 seconds =       0.08 minutes
	total time  =        125 seconds =       2.08 minutes
Grab this energy -157.81305600594862
    Psi4 stopped on: Friday, 05 November 2021 02:50PM
    Psi4 wall time for execution: 0:02:04.83

*** Psi4 exiting successfully. Buy a developer a beer!
