                               Psi4 1.4a2.dev629

  ==> Input File <==

--------------------------------------------------------------------------
import os
memory 14 GB

molecule {
 C   -0.3233387722   -0.0024303250    0.0053455741
 C    0.0608696251   -1.4019531094   -2.4249763986
 C    0.0618158028    2.8030101060    0.0011030391
 C    0.0606134898   -1.4010467780    2.4256177442
 H    2.0854405555   -1.6416131096   -2.8499435943
 H   -0.7695130904   -0.3891950183   -4.0216818920
 H   -0.7629710896   -3.2946681734   -2.3490113491
 H    2.0893665861    3.2872791421   -0.0010025308
 H   -0.7650678172    3.6822744196    1.6755233868
 H   -0.7633913363    3.6839896331   -1.6769970516
 H    2.0858550602   -1.6419654358    2.8485506379
 H   -0.7620348219   -3.2956001339    2.3478045701
 H   -0.7702520685   -0.3881055310    4.0196678644
units bohr
0 2
}

basis {

assign 6-31g_2dfp_

[ 6-31g_2dfp_ ]

spherical

!----------------------------------------------------------------------
! Basis Set Exchange
! Version v0.8.13
! https://www.basissetexchange.org
!----------------------------------------------------------------------
!   Basis set: 6-31G(2df,p)
! Description: 6-31G(2df,p)
!        Role: orbital
!     Version: 0  (Data from the original Basis Set Exchange)
!----------------------------------------------------------------------

****
H     0
S    3   1.00
     18.7311370              0.03349460
      2.8253937              0.23472695
      0.6401217              0.81375733
S    1   1.00
      0.1612778              1.00000000
P    1   1.00
      1.5000000              1.0000000
P    1   1.00
      0.3750000              1.0000000
****
B     0
S    6   1.00
   2068.8823000              0.0018663
    310.6495700              0.0142515
     70.6830330              0.0695516
     19.8610800              0.2325729
      6.2993048              0.4670787
      2.1270270              0.3634314
SP   3   1.00
      4.7279710             -0.1303938              0.0745976
      1.1903377             -0.1307889              0.3078467
      0.3594117              1.1309444              0.7434568
SP   1   1.00
      0.1267512              1.0000000              1.0000000
D    1   1.00
      0.8020000              1.0000000
D    1   1.00
      0.2005000              1.0000000
F    1   1.00
      0.5000000              1.0000000
****
C     0
S    6   1.00
   3047.5249000              0.0018347
    457.3695100              0.0140373
    103.9486900              0.0688426
     29.2101550              0.2321844
      9.2866630              0.4679413
      3.1639270              0.3623120
SP   3   1.00
      7.8682724             -0.1193324              0.0689991
      1.8812885             -0.1608542              0.3164240
      0.5442493              1.1434564              0.7443083
SP   1   1.00
      0.1687144              1.0000000              1.0000000
D    1   1.00
      1.2520000              1.0000000
D    1   1.00
      0.3130000              1.0000000
F    1   1.00
      0.8000000              1.0000000
****
N     0
S    6   1.00
   4173.5110000              0.0018348
    627.4579000              0.0139950
    142.9021000              0.0685870
     40.2343300              0.2322410
     12.8202100              0.4690700
      4.3904370              0.3604550
SP   3   1.00
     11.6263580             -0.1149610              0.0675800
      2.7162800             -0.1691180              0.3239070
      0.7722180              1.1458520              0.7408950
SP   1   1.00
      0.2120313              1.0000000              1.0000000
D    1   1.00
      1.8260000              1.0000000
D    1   1.00
      0.4565000              1.0000000
F    1   1.00
      1.0000000              1.0000000
****
O     0
S    6   1.00
   5484.6717000              0.0018311
    825.2349500              0.0139501
    188.0469600              0.0684451
     52.9645000              0.2327143
     16.8975700              0.4701930
      5.7996353              0.3585209
SP   3   1.00
     15.5396160             -0.1107775              0.0708743
      3.5999336             -0.1480263              0.3397528
      1.0137618              1.1307670              0.7271586
SP   1   1.00
      0.2700058              1.0000000              1.0000000
D    1   1.00
      2.5840000              1.0000000
D    1   1.00
      0.6460000              1.0000000
F    1   1.00
      1.4000000              1.0000000
****
F     0
S    6   1.00
   7001.7130900              0.0018196169
   1051.3660900              0.0139160796
    239.2856900              0.0684053245
     67.3974453              0.233185760
     21.5199573              0.471267439
      7.40310130             0.356618546
SP   3   1.00
     20.8479528             -0.108506975            0.0716287243
      4.80830834            -0.146451658            0.3459121030
      1.34406986             1.128688580            0.7224699570
SP   1   1.00
      0.358151393            1.0000000              1.0000000
D    1   1.00
      3.5000000              1.0000000
D    1   1.00
      0.8750000              1.0000000
F    1   1.00
      1.8500000              1.0000000
****
Al     0
S    6   1.00
  13983.1000000              0.00194267
   2098.7500000              0.0148599
    477.7050000              0.0728494
    134.3600000              0.2468300
     42.8709000              0.4872580
     14.5189000              0.3234960
SP   6   1.00
    239.6680000             -0.00292619             0.00460285
     57.4419000             -0.0374080              0.0331990
     18.2859000             -0.1144870              0.1362820
      6.5991400              0.1156350              0.3304760
      2.4904900              0.6125950              0.4491460
      0.9445400              0.3937990              0.2657040
SP   3   1.00
      1.2779000             -0.2276060             -0.0175130
      0.3975900              0.00144583             0.2445330
      0.1600950              1.0927900              0.8049340
SP   1   1.00
      0.0556577              1.0000000              1.0000000
D    1   1.00
      0.6500000              1.0000000
D    1   1.00
      0.1625000              1.0000000
F    1   1.00
      0.2500000              1.0000000
****
Si     0
S    6   1.00
  16115.9000000              0.00195948
   2425.5800000              0.01492880
    553.8670000              0.07284780
    156.3400000              0.24613000
     50.0683000              0.48591400
     17.0178000              0.32500200
SP   6   1.00
    292.7180000             -0.00278094             0.00443826
     69.8731000             -0.03571460             0.03266790
     22.3363000             -0.11498500             0.13472100
      8.1503900              0.09356340             0.32867800
      3.1345800              0.60301700             0.44964000
      1.2254300              0.41895900             0.26137200
SP   3   1.00
      1.7273800             -0.24463000            -0.01779510
      0.5729220              0.00431572             0.25353900
      0.2221920              1.09818000             0.80066900
SP   1   1.00
      0.0778369              1.00000000             1.00000000
D    1   1.00
      0.9000000              1.0000000
D    1   1.00
      0.2250000              1.0000000
F    1   1.00
      0.3200000              1.0000000
****
P     0
S    6   1.00
  19413.3000000              0.0018516
   2909.4200000              0.0142062
    661.3640000              0.0699995
    185.7590000              0.2400790
     59.1943000              0.4847620
     20.0310000              0.3352000
SP   6   1.00
    339.4780000             -0.00278217             0.00456462
     81.0101000             -0.0360499              0.03369360
     25.8780000             -0.1166310              0.13975500
      9.4522100              0.0968328              0.33936200
      3.6656600              0.6144180              0.45092100
      1.4674600              0.4037980              0.23858600
SP   3   1.00
      2.1562300             -0.2529230             -0.01776530
      0.7489970              0.0328517              0.27405800
      0.2831450              1.0812500              0.78542100
SP   1   1.00
      0.0998317              1.0000000              1.00000000
D    1   1.00
      1.1000000              1.0000000
D    1   1.00
      0.2750000              1.0000000
F    1   1.00
      0.4500000              1.0000000
****
S     0
S    6   1.00
  21917.1000000              0.0018690
   3301.4900000              0.0142300
    754.1460000              0.0696960
    212.7110000              0.2384870
     67.9896000              0.4833070
     23.0515000              0.3380740
SP   6   1.00
    423.7350000             -0.0023767              0.0040610
    100.7100000             -0.0316930              0.0306810
     32.1599000             -0.1133170              0.1304520
     11.8079000              0.0560900              0.3272050
      4.6311000              0.5922550              0.4528510
      1.8702500              0.4550060              0.2560420
SP   3   1.00
      2.6158400             -0.2503740             -0.0145110
      0.9221670              0.0669570              0.3102630
      0.3412870              1.0545100              0.7544830
SP   1   1.00
      0.1171670              1.0000000              1.0000000
D    1   1.00
      1.3000000              1.0000000
D    1   1.00
      0.3250000              1.0000000
F    1   1.00
      0.5500000              1.0000000
****
Cl     0
S    6   1.00
  25180.1000000              0.0018330
   3780.3500000              0.0140340
    860.4740000              0.0690970
    242.1450000              0.2374520
     77.3349000              0.4830340
     26.2470000              0.3398560
SP   6   1.00
    491.7650000             -0.0022974              0.0039894
    116.9840000             -0.0307140              0.0303180
     37.4153000             -0.1125280              0.1298800
     13.7834000              0.0450160              0.3279510
      5.4521500              0.5893530              0.4535270
      2.2258800              0.4652060              0.2521540
SP   3   1.00
      3.1864900             -0.2518300             -0.0142990
      1.1442700              0.0615890              0.3235720
      0.4203770              1.0601800              0.7435070
SP   1   1.00
      0.1426570              1.0000000              1.0000000
D    1   1.00
      1.5000000              1.0000000
D    1   1.00
      0.3750000              1.0000000
F    1   1.00
      0.7000000              1.0000000
****
}

set {
reference uhf
freeze_core true
e_convergence 10
d_convergence 10
dft_spherical_points 1202
dft_radial_points 99
}

e = energy('b3lyp')

print_out('Grab this energy {0}'.format(e))
--------------------------------------------------------------------------

    Molecular point group: c1

    Geometry (in Bohr), charge = 0, multiplicity = 2:

       Center              X                  Y                   Z               Mass
    ------------   -----------------  -----------------  -----------------  -----------------
         C           -0.323338797307    -0.001963765715     0.003979996965    12.000000000000
         C            0.060869599993    -1.401486550115    -2.426341975735    12.000000000000
         C            0.061815777693     2.803476665285    -0.000262538035    12.000000000000
         C            0.060613464693    -1.400580218715     2.424252167065    12.000000000000
         H            2.085440530393    -1.641146550315    -2.851309171435     1.007825032230
         H           -0.769513115507    -0.388728459015    -4.023047469135     1.007825032230
         H           -0.762971114707    -3.294201614115    -2.350376926235     1.007825032230
         H            2.089366560993     3.287745701385    -0.002368107935     1.007825032230
         H           -0.765067842307     3.682740978885     1.674157809665     1.007825032230
         H           -0.763391361407     3.684456192385    -1.678362628735     1.007825032230
         H            2.085855035093    -1.641498876515     2.847185060765     1.007825032230
         H           -0.762034847007    -3.295133574615     2.346438992965     1.007825032230
         H           -0.770252093607    -0.387638971715     4.018302287265     1.007825032230

  Charge       = 0
  Multiplicity = 2
  Basis Set: ANONYMOUS12841498
    Blend: 6-31G_2DFP_
  Basis Set: (ANONYMOUS12841498 AUX)
    Blend: DEF2-UNIVERSAL-JKFIT

    Orbital Energies [Eh]
    ---------------------

    Alpha Occupied:

       1A    -10.180341     2A    -10.167233     3A    -10.166939
       4A    -10.166872     5A     -0.797770     6A     -0.686422
       7A     -0.685950     8A     -0.530775     9A     -0.441132
      10A     -0.434896    11A     -0.434443    12A     -0.382726
      13A     -0.382475    14A     -0.363608    15A     -0.338537
      16A     -0.337457    17A     -0.168960

    Alpha Virtual:

      18A      0.076072    19A      0.134090    20A      0.134221
      21A      0.142450    22A      0.142802    23A      0.154879
      24A      0.178771    25A      0.178784    26A      0.203543
      27A      0.214802    28A      0.275542    29A      0.276428
      30A      0.399099    31A      0.399346    32A      0.403356
      33A      0.424065    34A      0.424131    35A      0.456594
      36A      0.495320    37A      0.495458    38A      0.512160
      39A      0.513977    40A      0.578538    41A      0.579084
      42A      0.591416    43A      0.591872    44A      0.602577
      45A      0.624751    46A      0.631769    47A      0.636083
      48A      0.636434    49A      0.663197    50A      0.663629
      51A      0.683800    52A      0.683905    53A      0.734994
      54A      0.825296    55A      0.825518    56A      0.853916
      57A      0.914853    58A      0.915192    59A      0.944124
      60A      0.944619    61A      0.961116    62A      0.961471
      63A      1.003455    64A      1.127844    65A      1.128312
      66A      1.142253    67A      1.162869    68A      1.163694
      69A      1.223330    70A      1.273990    71A      1.274988
      72A      1.279358    73A      1.324199    74A      1.324513
      75A      1.355998    76A      1.365651    77A      1.366452
      78A      1.392432    79A      1.403717    80A      1.404376
      81A      1.416709    82A      1.417520    83A      1.427932
      84A      1.491490    85A      1.499083    86A      1.542695
      87A      1.542970    88A      1.574220    89A      1.574671
      90A      1.669828    91A      1.739078    92A      1.739768
      93A      1.768310    94A      1.830903    95A      1.831877
      96A      1.971732    97A      2.018072    98A      2.018682
      99A      2.019631   100A      2.051546   101A      2.053766
     102A      2.738240   103A      2.738727   104A      2.790930
     105A      2.811418   106A      2.889209   107A      2.890640
     108A      2.894990   109A      2.929070   110A      2.929927
     111A      2.958989   112A      2.964080   113A      2.964680
     114A      3.034001   115A      3.070705   116A      3.071877
     117A      3.084347   118A      3.168628   119A      3.168857
     120A      3.180684   121A      3.285010   122A      3.285615
     123A      3.326564   124A      3.327746   125A      3.375606
     126A      3.489564   127A      3.490728   128A      3.514013
     129A      3.525323   130A      3.567545   131A      3.569247
     132A      3.575149   133A      3.666014   134A      3.666714
     135A      3.679681   136A      3.693788   137A      3.694443
     138A      3.775274   139A      3.778264   140A      3.789223
     141A      3.911550   142A      3.912911   143A      4.034431
     144A      4.110294   145A      4.112434   146A      4.146985
     147A      4.149248   148A      4.173263   149A      4.202268
     150A      4.202472   151A      4.204039   152A      4.210901
     153A      4.315208   154A      4.316727   155A      4.358985
     156A      4.423942   157A      4.424945   158A      4.443450
     159A      4.516071   160A      4.517604   161A      4.577530
     162A      4.578691   163A      4.617834   164A      4.709464
     165A      4.773757   166A      4.775501   167A      4.836903
     168A      4.962810   169A      5.002322   170A      5.003649
     171A      5.228029   172A      5.246697   173A      5.246946
     174A      5.354401   175A      5.356620   176A      5.479350

    Beta Occupied:

       1A    -10.167989     2A    -10.167694     3A    -10.167640
       4A    -10.166518     5A     -0.781095     6A     -0.684209
       7A     -0.683769     8A     -0.511747     9A     -0.431270
      10A     -0.430820    11A     -0.421819    12A     -0.376770
      13A     -0.376603    14A     -0.362591    15A     -0.333670
      16A     -0.332571

    Beta Virtual:

      17A     -0.025742    18A      0.077081    19A      0.134978
      20A      0.135113    21A      0.144331    22A      0.144663
      23A      0.163338    24A      0.182431    25A      0.182467
      26A      0.215032    27A      0.218926    28A      0.281920
      29A      0.282745    30A      0.400275    31A      0.400518
      32A      0.419793    33A      0.426862    34A      0.426957
      35A      0.468502    36A      0.497583    37A      0.497716
      38A      0.513895    39A      0.556319    40A      0.584064
      41A      0.584663    42A      0.597614    43A      0.598029
      44A      0.610000    45A      0.628126    46A      0.631928
      47A      0.639344    48A      0.639746    49A      0.666774
      50A      0.667180    51A      0.686438    52A      0.686538
      53A      0.757516    54A      0.830472    55A      0.830679
      56A      0.855269    57A      0.922804    58A      0.923183
      59A      0.945960    60A      0.953547    61A      0.966409
      62A      0.966792    63A      1.008695    64A      1.131885
      65A      1.132349    66A      1.155607    67A      1.167962
      68A      1.168749    69A      1.232302    70A      1.279631
      71A      1.280540    72A      1.285114    73A      1.329206
      74A      1.329486    75A      1.365413    76A      1.370956
      77A      1.371635    78A      1.393491    79A      1.407139
      80A      1.407881    81A      1.421768    82A      1.422558
      83A      1.428207    84A      1.492539    85A      1.509526
      86A      1.547132    87A      1.547349    88A      1.582135
      89A      1.582500    90A      1.674676    91A      1.744826
      92A      1.745543    93A      1.779090    94A      1.834745
      95A      1.835746    96A      1.972592    97A      2.024868
      98A      2.026009    99A      2.039677   100A      2.058300
     101A      2.060453   102A      2.746538   103A      2.747101
     104A      2.811831   105A      2.816064   106A      2.902032
     107A      2.903235   108A      2.924635   109A      2.931503
     110A      2.932477   111A      2.960054   112A      2.968638
     113A      2.969211   114A      3.041936   115A      3.080701
     116A      3.081699   117A      3.086164   118A      3.184280
     119A      3.184533   120A      3.188540   121A      3.289848
     122A      3.290373   123A      3.330373   124A      3.331546
     125A      3.383425   126A      3.492275   127A      3.493472
     128A      3.512386   129A      3.528371   130A      3.574988
     131A      3.580936   132A      3.582553   133A      3.670887
     134A      3.671352   135A      3.692958   136A      3.725508
     137A      3.725987   138A      3.779854   139A      3.782787
     140A      3.817708   141A      3.921399   142A      3.922703
     143A      4.045318   144A      4.117126   145A      4.119235
     146A      4.154247   147A      4.156404   148A      4.187320
     149A      4.208340   150A      4.209280   151A      4.210993
     152A      4.215382   153A      4.322579   154A      4.324235
     155A      4.362348   156A      4.432172   157A      4.433132
     158A      4.446347   159A      4.523863   160A      4.525391
     161A      4.588120   162A      4.589276   163A      4.625054
     164A      4.719810   165A      4.780713   166A      4.782454
     167A      4.839820   168A      4.967602   169A      5.006350
     170A      5.007702   171A      5.233744   172A      5.248470
     173A      5.248741   174A      5.360850   175A      5.363133
     176A      5.481672

    Final Occupation by Irrep:
              A
    DOCC [    16 ]
    SOCC [     1 ]

  @DF-UKS Final Energy:  -157.81306036566468

   => Energetics <=

    Nuclear Repulsion Energy =            125.3947176153234011
    One-Electron Energy =                -458.7490748669661684
    Two-Electron Energy =                 195.8484443005002333
    DFT Exchange-Correlation Energy =     -20.3071474145221131
    Empirical Dispersion Energy =           0.0000000000000000
    VV10 Nonlocal Energy =                  0.0000000000000000
    Total Energy =                       -157.8130603656646826

  UHF NO Occupations:
  HONO-2 :   15  A 1.9996009
  HONO-1 :   16  A 1.9989805
  HONO-0 :   17  A 1.0000000
  LUNO+0 :   18  A 0.0010195
  LUNO+1 :   19  A 0.0003991
  LUNO+2 :   20  A 0.0001988
  LUNO+3 :   21  A 0.0001963

Computation Completed

Properties will be evaluated at   0.000000,   0.000000,   0.000000 [a0]

Properties computed using the SCF density matrix

  Nuclear Dipole Moment: [e a0]
     X:     0.8272      Y:     0.0033      Z:    -0.0096

  Electronic Dipole Moment: [e a0]
     X:    -0.7493      Y:    -0.0032      Z:     0.0108

  Dipole Moment: [e a0]
     X:     0.0779      Y:     0.0000      Z:     0.0012     Total:     0.0779

  Dipole Moment: [D]
     X:     0.1980      Y:     0.0001      Z:     0.0031     Total:     0.1981

*** tstop() called on n070 at Fri Nov  5 14:01:03 2021
Module time:
	user time   =     571.12 seconds =       9.52 minutes
	system time =      13.07 seconds =       0.22 minutes
	total time  =        147 seconds =       2.45 minutes
Total time:
	user time   =     571.12 seconds =       9.52 minutes
	system time =      13.07 seconds =       0.22 minutes
	total time  =        147 seconds =       2.45 minutes
Grab this energy -157.81306036566468
    Psi4 stopped on: Friday, 05 November 2021 02:01PM
    Psi4 wall time for execution: 0:02:27.21

*** Psi4 exiting successfully. Buy a developer a beer!
