                               Psi4 1.4a2.dev629

  ==> Input File <==

--------------------------------------------------------------------------
import os
memory 14 GB

molecule {
 C   -0.3233320721    0.0049899086   -0.0004940292
 C    0.0615268282   -1.4039255726   -2.4208944199
 C    0.0604194158    2.8096668647   -0.0000430251
 C    0.0613574943   -1.4032126895    2.4195930268
 H    2.0837036265   -1.6503806393   -2.8389996910
 H   -0.7606597926   -0.3995217709   -4.0211299263
 H   -0.7654945352   -3.2907296046   -2.3373087226
 H    2.0860220979    3.2972584737    0.0000260928
 H   -0.7666132861    3.6886670486    1.6770202190
 H   -0.7667925641    3.6876737511   -1.6763724730
 H    2.0909451551   -1.6499284210    2.8382675932
 H   -0.7693616110   -3.2966959429    2.3343070789
 H   -0.7643286334   -0.3938857195    4.0260282765
units bohr
0 2
}

basis {

assign 6-31g_2dfp_

[ 6-31g_2dfp_ ]

spherical

!----------------------------------------------------------------------
! Basis Set Exchange
! Version v0.8.13
! https://www.basissetexchange.org
!----------------------------------------------------------------------
!   Basis set: 6-31G(2df,p)
! Description: 6-31G(2df,p)
!        Role: orbital
!     Version: 0  (Data from the original Basis Set Exchange)
!----------------------------------------------------------------------

****
H     0
S    3   1.00
     18.7311370              0.03349460
      2.8253937              0.23472695
      0.6401217              0.81375733
S    1   1.00
      0.1612778              1.00000000
P    1   1.00
      1.5000000              1.0000000
P    1   1.00
      0.3750000              1.0000000
****
B     0
S    6   1.00
   2068.8823000              0.0018663
    310.6495700              0.0142515
     70.6830330              0.0695516
     19.8610800              0.2325729
      6.2993048              0.4670787
      2.1270270              0.3634314
SP   3   1.00
      4.7279710             -0.1303938              0.0745976
      1.1903377             -0.1307889              0.3078467
      0.3594117              1.1309444              0.7434568
SP   1   1.00
      0.1267512              1.0000000              1.0000000
D    1   1.00
      0.8020000              1.0000000
D    1   1.00
      0.2005000              1.0000000
F    1   1.00
      0.5000000              1.0000000
****
C     0
S    6   1.00
   3047.5249000              0.0018347
    457.3695100              0.0140373
    103.9486900              0.0688426
     29.2101550              0.2321844
      9.2866630              0.4679413
      3.1639270              0.3623120
SP   3   1.00
      7.8682724             -0.1193324              0.0689991
      1.8812885             -0.1608542              0.3164240
      0.5442493              1.1434564              0.7443083
SP   1   1.00
      0.1687144              1.0000000              1.0000000
D    1   1.00
      1.2520000              1.0000000
D    1   1.00
      0.3130000              1.0000000
F    1   1.00
      0.8000000              1.0000000
****
N     0
S    6   1.00
   4173.5110000              0.0018348
    627.4579000              0.0139950
    142.9021000              0.0685870
     40.2343300              0.2322410
     12.8202100              0.4690700
      4.3904370              0.3604550
SP   3   1.00
     11.6263580             -0.1149610              0.0675800
      2.7162800             -0.1691180              0.3239070
      0.7722180              1.1458520              0.7408950
SP   1   1.00
      0.2120313              1.0000000              1.0000000
D    1   1.00
      1.8260000              1.0000000
D    1   1.00
      0.4565000              1.0000000
F    1   1.00
      1.0000000              1.0000000
****
O     0
S    6   1.00
   5484.6717000              0.0018311
    825.2349500              0.0139501
    188.0469600              0.0684451
     52.9645000              0.2327143
     16.8975700              0.4701930
      5.7996353              0.3585209
SP   3   1.00
     15.5396160             -0.1107775              0.0708743
      3.5999336             -0.1480263              0.3397528
      1.0137618              1.1307670              0.7271586
SP   1   1.00
      0.2700058              1.0000000              1.0000000
D    1   1.00
      2.5840000              1.0000000
D    1   1.00
      0.6460000              1.0000000
F    1   1.00
      1.4000000              1.0000000
****
F     0
S    6   1.00
   7001.7130900              0.0018196169
   1051.3660900              0.0139160796
    239.2856900              0.0684053245
     67.3974453              0.233185760
     21.5199573              0.471267439
      7.40310130             0.356618546
SP   3   1.00
     20.8479528             -0.108506975            0.0716287243
      4.80830834            -0.146451658            0.3459121030
      1.34406986             1.128688580            0.7224699570
SP   1   1.00
      0.358151393            1.0000000              1.0000000
D    1   1.00
      3.5000000              1.0000000
D    1   1.00
      0.8750000              1.0000000
F    1   1.00
      1.8500000              1.0000000
****
Al     0
S    6   1.00
  13983.1000000              0.00194267
   2098.7500000              0.0148599
    477.7050000              0.0728494
    134.3600000              0.2468300
     42.8709000              0.4872580
     14.5189000              0.3234960
SP   6   1.00
    239.6680000             -0.00292619             0.00460285
     57.4419000             -0.0374080              0.0331990
     18.2859000             -0.1144870              0.1362820
      6.5991400              0.1156350              0.3304760
      2.4904900              0.6125950              0.4491460
      0.9445400              0.3937990              0.2657040
SP   3   1.00
      1.2779000             -0.2276060             -0.0175130
      0.3975900              0.00144583             0.2445330
      0.1600950              1.0927900              0.8049340
SP   1   1.00
      0.0556577              1.0000000              1.0000000
D    1   1.00
      0.6500000              1.0000000
D    1   1.00
      0.1625000              1.0000000
F    1   1.00
      0.2500000              1.0000000
****
Si     0
S    6   1.00
  16115.9000000              0.00195948
   2425.5800000              0.01492880
    553.8670000              0.07284780
    156.3400000              0.24613000
     50.0683000              0.48591400
     17.0178000              0.32500200
SP   6   1.00
    292.7180000             -0.00278094             0.00443826
     69.8731000             -0.03571460             0.03266790
     22.3363000             -0.11498500             0.13472100
      8.1503900              0.09356340             0.32867800
      3.1345800              0.60301700             0.44964000
      1.2254300              0.41895900             0.26137200
SP   3   1.00
      1.7273800             -0.24463000            -0.01779510
      0.5729220              0.00431572             0.25353900
      0.2221920              1.09818000             0.80066900
SP   1   1.00
      0.0778369              1.00000000             1.00000000
D    1   1.00
      0.9000000              1.0000000
D    1   1.00
      0.2250000              1.0000000
F    1   1.00
      0.3200000              1.0000000
****
P     0
S    6   1.00
  19413.3000000              0.0018516
   2909.4200000              0.0142062
    661.3640000              0.0699995
    185.7590000              0.2400790
     59.1943000              0.4847620
     20.0310000              0.3352000
SP   6   1.00
    339.4780000             -0.00278217             0.00456462
     81.0101000             -0.0360499              0.03369360
     25.8780000             -0.1166310              0.13975500
      9.4522100              0.0968328              0.33936200
      3.6656600              0.6144180              0.45092100
      1.4674600              0.4037980              0.23858600
SP   3   1.00
      2.1562300             -0.2529230             -0.01776530
      0.7489970              0.0328517              0.27405800
      0.2831450              1.0812500              0.78542100
SP   1   1.00
      0.0998317              1.0000000              1.00000000
D    1   1.00
      1.1000000              1.0000000
D    1   1.00
      0.2750000              1.0000000
F    1   1.00
      0.4500000              1.0000000
****
S     0
S    6   1.00
  21917.1000000              0.0018690
   3301.4900000              0.0142300
    754.1460000              0.0696960
    212.7110000              0.2384870
     67.9896000              0.4833070
     23.0515000              0.3380740
SP   6   1.00
    423.7350000             -0.0023767              0.0040610
    100.7100000             -0.0316930              0.0306810
     32.1599000             -0.1133170              0.1304520
     11.8079000              0.0560900              0.3272050
      4.6311000              0.5922550              0.4528510
      1.8702500              0.4550060              0.2560420
SP   3   1.00
      2.6158400             -0.2503740             -0.0145110
      0.9221670              0.0669570              0.3102630
      0.3412870              1.0545100              0.7544830
SP   1   1.00
      0.1171670              1.0000000              1.0000000
D    1   1.00
      1.3000000              1.0000000
D    1   1.00
      0.3250000              1.0000000
F    1   1.00
      0.5500000              1.0000000
****
Cl     0
S    6   1.00
  25180.1000000              0.0018330
   3780.3500000              0.0140340
    860.4740000              0.0690970
    242.1450000              0.2374520
     77.3349000              0.4830340
     26.2470000              0.3398560
SP   6   1.00
    491.7650000             -0.0022974              0.0039894
    116.9840000             -0.0307140              0.0303180
     37.4153000             -0.1125280              0.1298800
     13.7834000              0.0450160              0.3279510
      5.4521500              0.5893530              0.4535270
      2.2258800              0.4652060              0.2521540
SP   3   1.00
      3.1864900             -0.2518300             -0.0142990
      1.1442700              0.0615890              0.3235720
      0.4203770              1.0601800              0.7435070
SP   1   1.00
      0.1426570              1.0000000              1.0000000
D    1   1.00
      1.5000000              1.0000000
D    1   1.00
      0.3750000              1.0000000
F    1   1.00
      0.7000000              1.0000000
****
}

set {
reference uhf
freeze_core true
e_convergence 10
d_convergence 10
dft_spherical_points 1202
dft_radial_points 99
}

e = energy('b3lyp')

print_out('Grab this energy {0}'.format(e))
--------------------------------------------------------------------------

    Molecular point group: c1

    Geometry (in Bohr), charge = 0, multiplicity = 2:

       Center              X                  Y                   Z               Mass
    ------------   -----------------  -----------------  -----------------  -----------------
         C           -0.323334316175     0.003542218552    -0.000139930991    12.000000000000
         C            0.061524584125    -1.405373262648    -2.420540321691    12.000000000000
         C            0.060417171725     2.808219174652     0.000311073109    12.000000000000
         C            0.061355250225    -1.404660379548     2.419947125009    12.000000000000
         H            2.083701382425    -1.651828329348    -2.838645592791     1.007825032230
         H           -0.760662036675    -0.400969460948    -4.020775828091     1.007825032230
         H           -0.765496779275    -3.292177294648    -2.336954624391     1.007825032230
         H            2.086019853825     3.295810783652     0.000380191009     1.007825032230
         H           -0.766615530175     3.687219358552     1.677374317209     1.007825032230
         H           -0.766794808175     3.686226061052    -1.676018374791     1.007825032230
         H            2.090942911025    -1.651376111048     2.838621691409     1.007825032230
         H           -0.769363855075    -3.298143632948     2.334661177109     1.007825032230
         H           -0.764330877475    -0.395333409548     4.026382374709     1.007825032230

  Charge       = 0
  Multiplicity = 2
  Basis Set: ANONYMOUSF045BFC1
    Blend: 6-31G_2DFP_
  Basis Set: (ANONYMOUSF045BFC1 AUX)
    Blend: DEF2-UNIVERSAL-JKFIT

    Orbital Energies [Eh]
    ---------------------

    Alpha Occupied:

       1A    -10.180342     2A    -10.167441     3A    -10.167326
       4A    -10.166277     5A     -0.797770     6A     -0.686576
       7A     -0.685798     8A     -0.530776     9A     -0.441127
      10A     -0.434951    11A     -0.434392    12A     -0.382865
      13A     -0.382332    14A     -0.363612    15A     -0.338275
      16A     -0.337719    17A     -0.168962

    Alpha Virtual:

      18A      0.076070    19A      0.133907    20A      0.134388
      21A      0.142462    22A      0.142805    23A      0.154876
      24A      0.178386    25A      0.179176    26A      0.203544
      27A      0.214810    28A      0.275811    29A      0.276161
      30A      0.399003    31A      0.399391    32A      0.403411
      33A      0.423937    34A      0.424267    35A      0.456594
      36A      0.494977    37A      0.495793    38A      0.512174
      39A      0.513986    40A      0.578517    41A      0.579087
      42A      0.591337    43A      0.591917    44A      0.602595
      45A      0.624772    46A      0.631695    47A      0.635809
      48A      0.636767    49A      0.663129    50A      0.663702
      51A      0.683459    52A      0.684266    53A      0.734993
      54A      0.824481    55A      0.826311    56A      0.853915
      57A      0.914778    58A      0.915278    59A      0.944052
      60A      0.944517    61A      0.961033    62A      0.961768
      63A      1.003472    64A      1.126898    65A      1.129340
      66A      1.142213    67A      1.162764    68A      1.163768
      69A      1.223332    70A      1.273947    71A      1.275045
      72A      1.279351    73A      1.323984    74A      1.324716
      75A      1.355980    76A      1.365290    77A      1.366758
      78A      1.392440    79A      1.403175    80A      1.404984
      81A      1.416539    82A      1.417693    83A      1.427933
      84A      1.491434    85A      1.499069    86A      1.542455
      87A      1.543218    88A      1.572577    89A      1.576433
      90A      1.669794    91A      1.738316    92A      1.740456
      93A      1.768358    94A      1.829739    95A      1.833135
      96A      1.971697    97A      2.017583    98A      2.018190
      99A      2.020569   100A      2.050154   101A      2.055279
     102A      2.737966   103A      2.739005   104A      2.790922
     105A      2.811442   106A      2.889612   107A      2.890240
     108A      2.894981   109A      2.929282   110A      2.929701
     111A      2.958998   112A      2.963342   113A      2.965458
     114A      3.034023   115A      3.070252   116A      3.072281
     117A      3.084411   118A      3.167993   119A      3.169612
     120A      3.180568   121A      3.284598   122A      3.286022
     123A      3.326206   124A      3.328131   125A      3.375657
     126A      3.489164   127A      3.491087   128A      3.514037
     129A      3.525313   130A      3.567271   131A      3.569307
     132A      3.575439   133A      3.665624   134A      3.667071
     135A      3.679651   136A      3.693503   137A      3.694753
     138A      3.775818   139A      3.777712   140A      3.789301
     141A      3.910729   142A      3.913713   143A      4.034458
     144A      4.109785   145A      4.112852   146A      4.145452
     147A      4.150660   148A      4.173306   149A      4.200911
     150A      4.201789   151A      4.205956   152A      4.211296
     153A      4.315262   154A      4.316628   155A      4.358969
     156A      4.424179   157A      4.424519   158A      4.443661
     159A      4.515962   160A      4.517716   161A      4.577153
     162A      4.579423   163A      4.617536   164A      4.709472
     165A      4.773321   166A      4.775884   167A      4.836915
     168A      4.962864   169A      5.001836   170A      5.004127
     171A      5.227815   172A      5.243157   173A      5.250471
     174A      5.352454   175A      5.358739   176A      5.479416

    Beta Occupied:

       1A    -10.168203     2A    -10.168084     3A    -10.167043
       4A    -10.166513     5A     -0.781096     6A     -0.684380
       7A     -0.683598     8A     -0.511747     9A     -0.431334
      10A     -0.430752    11A     -0.421824    12A     -0.376963
      13A     -0.376404    14A     -0.362595    15A     -0.333401
      16A     -0.332839

    Beta Virtual:

      17A     -0.025744    18A      0.077079    19A      0.134780
      20A      0.135296    21A      0.144361    22A      0.144647
      23A      0.163335    24A      0.182058    25A      0.182846
      26A      0.215040    27A      0.218926    28A      0.282147
      29A      0.282521    30A      0.400245    31A      0.400543
      32A      0.419798    33A      0.426734    34A      0.427093
      35A      0.468504    36A      0.497237    37A      0.498057
      38A      0.513909    39A      0.556327    40A      0.584091
      41A      0.584614    42A      0.597536    43A      0.598079
      44A      0.610009    45A      0.628154    46A      0.631886
      47A      0.639102    48A      0.640012    49A      0.666663
      50A      0.667294    51A      0.686085    52A      0.686912
      53A      0.757516    54A      0.829629    55A      0.831499
      56A      0.855269    57A      0.922734    58A      0.923262
      59A      0.945913    60A      0.953431    61A      0.966303
      62A      0.967106    63A      1.008709    64A      1.130931
      65A      1.133367    66A      1.155582    67A      1.167807
      68A      1.168878    69A      1.232302    70A      1.279541
      71A      1.280647    72A      1.285103    73A      1.328924
      74A      1.329755    75A      1.365390    76A      1.370440
      77A      1.372093    78A      1.393504    79A      1.406663
      80A      1.408434    81A      1.421560    82A      1.422764
      83A      1.428206    84A      1.492486    85A      1.509512
      86A      1.546747    87A      1.547737    88A      1.580603
      89A      1.584153    90A      1.674639    91A      1.744085
      92A      1.746217    93A      1.779132    94A      1.833616
      95A      1.836969    96A      1.972564    97A      2.023941
      98A      2.026919    99A      2.039639   100A      2.056965
     101A      2.061910   102A      2.746266   103A      2.747377
     104A      2.811854   105A      2.816057   106A      2.902417
     107A      2.902837   108A      2.924656   109A      2.931872
     110A      2.932083   111A      2.960068   112A      2.967887
     113A      2.969995   114A      3.041957   115A      3.079998
     116A      3.082179   117A      3.086415   118A      3.183838
     119A      3.185225   120A      3.188276   121A      3.289461
     122A      3.290763   123A      3.330004   124A      3.331944
     125A      3.383474   126A      3.491925   127A      3.493778
     128A      3.512413   129A      3.528367   130A      3.574749
     131A      3.580705   132A      3.583096   133A      3.670320
     134A      3.671879   135A      3.692976   136A      3.725135
     137A      3.726337   138A      3.780355   139A      3.782314
     140A      3.817762   141A      3.920548   142A      3.923528
     143A      4.045340   144A      4.116676   145A      4.119569
     146A      4.152876   147A      4.157691   148A      4.187357
     149A      4.207033   150A      4.208789   151A      4.212618
     152A      4.215836   153A      4.322821   154A      4.323944
     155A      4.362335   156A      4.432397   157A      4.432639
     158A      4.446641   159A      4.523859   160A      4.525392
     161A      4.587693   162A      4.590084   163A      4.624728
     164A      4.719817   165A      4.780235   166A      4.782874
     167A      4.839834   168A      4.967658   169A      5.005885
     170A      5.008156   171A      5.233515   172A      5.244961
     173A      5.252256   174A      5.358942   175A      5.365208
     176A      5.481737

    Final Occupation by Irrep:
              A
    DOCC [    16 ]
    SOCC [     1 ]

  @DF-UKS Final Energy:  -157.81304917461131

   => Energetics <=

    Nuclear Repulsion Energy =            125.3949057295778715
    One-Electron Energy =                -458.7494217578620805
    Two-Electron Energy =                 195.8486175682607495
    DFT Exchange-Correlation Energy =     -20.3071507145878662
    Empirical Dispersion Energy =           0.0000000000000000
    VV10 Nonlocal Energy =                  0.0000000000000000
    Total Energy =                       -157.8130491746113080

  UHF NO Occupations:
  HONO-2 :   15  A 1.9996009
  HONO-1 :   16  A 1.9989804
  HONO-0 :   17  A 1.0000000
  LUNO+0 :   18  A 0.0010196
  LUNO+1 :   19  A 0.0003991
  LUNO+2 :   20  A 0.0001979
  LUNO+3 :   21  A 0.0001972

Computation Completed

Properties will be evaluated at   0.000000,   0.000000,   0.000000 [a0]

Properties computed using the SCF density matrix

  Nuclear Dipole Moment: [e a0]
     X:     0.8272      Y:    -0.0102      Z:     0.0025

  Electronic Dipole Moment: [e a0]
     X:    -0.7493      Y:     0.0110      Z:    -0.0049

  Dipole Moment: [e a0]
     X:     0.0779      Y:     0.0008      Z:    -0.0024     Total:     0.0780

  Dipole Moment: [D]
     X:     0.1980      Y:     0.0019      Z:    -0.0062     Total:     0.1981

*** tstop() called on n082 at Fri Nov  5 15:08:09 2021
Module time:
	user time   =     498.79 seconds =       8.31 minutes
	system time =       4.48 seconds =       0.07 minutes
	total time  =        127 seconds =       2.12 minutes
Total time:
	user time   =     498.79 seconds =       8.31 minutes
	system time =       4.48 seconds =       0.07 minutes
	total time  =        127 seconds =       2.12 minutes
Grab this energy -157.8130491746113
    Psi4 stopped on: Friday, 05 November 2021 03:08PM
    Psi4 wall time for execution: 0:02:06.55

*** Psi4 exiting successfully. Buy a developer a beer!
