                               Psi4 1.4a2.dev629

  ==> Input File <==

--------------------------------------------------------------------------
import os
memory 14 GB

molecule {
 C   -0.3233512636   -0.0000019485    0.0000000000
 C    0.0612296747   -1.4013683940   -2.4272312203
 C    0.0611097408    2.8027400618    0.0000000000
 C    0.0612296747   -1.4013683940    2.4272312203
 H    2.0901421787   -1.6436680740   -2.8466962523
 H   -0.7670507477   -0.3855734999   -4.0266810708
 H   -0.7672141834   -3.2943623102   -2.3472944718
 H    2.0900029591    3.2872438278   -0.0000000000
 H   -0.7672915787    3.6799691509    1.6793925890
 H   -0.7672915787    3.6799691509   -1.6793925890
 H    2.0901421787   -1.6436680740    2.8466962523
 H   -0.7672141834   -3.2943623102    2.3472944718
 H   -0.7670507477   -0.3855734999    4.0266810708
units bohr
0 2
}

basis {

assign 6-31g_2dfp_

[ 6-31g_2dfp_ ]

spherical

!----------------------------------------------------------------------
! Basis Set Exchange
! Version v0.8.13
! https://www.basissetexchange.org
!----------------------------------------------------------------------
!   Basis set: 6-31G(2df,p)
! Description: 6-31G(2df,p)
!        Role: orbital
!     Version: 0  (Data from the original Basis Set Exchange)
!----------------------------------------------------------------------

****
H     0
S    3   1.00
     18.7311370              0.03349460
      2.8253937              0.23472695
      0.6401217              0.81375733
S    1   1.00
      0.1612778              1.00000000
P    1   1.00
      1.5000000              1.0000000
P    1   1.00
      0.3750000              1.0000000
****
B     0
S    6   1.00
   2068.8823000              0.0018663
    310.6495700              0.0142515
     70.6830330              0.0695516
     19.8610800              0.2325729
      6.2993048              0.4670787
      2.1270270              0.3634314
SP   3   1.00
      4.7279710             -0.1303938              0.0745976
      1.1903377             -0.1307889              0.3078467
      0.3594117              1.1309444              0.7434568
SP   1   1.00
      0.1267512              1.0000000              1.0000000
D    1   1.00
      0.8020000              1.0000000
D    1   1.00
      0.2005000              1.0000000
F    1   1.00
      0.5000000              1.0000000
****
C     0
S    6   1.00
   3047.5249000              0.0018347
    457.3695100              0.0140373
    103.9486900              0.0688426
     29.2101550              0.2321844
      9.2866630              0.4679413
      3.1639270              0.3623120
SP   3   1.00
      7.8682724             -0.1193324              0.0689991
      1.8812885             -0.1608542              0.3164240
      0.5442493              1.1434564              0.7443083
SP   1   1.00
      0.1687144              1.0000000              1.0000000
D    1   1.00
      1.2520000              1.0000000
D    1   1.00
      0.3130000              1.0000000
F    1   1.00
      0.8000000              1.0000000
****
N     0
S    6   1.00
   4173.5110000              0.0018348
    627.4579000              0.0139950
    142.9021000              0.0685870
     40.2343300              0.2322410
     12.8202100              0.4690700
      4.3904370              0.3604550
SP   3   1.00
     11.6263580             -0.1149610              0.0675800
      2.7162800             -0.1691180              0.3239070
      0.7722180              1.1458520              0.7408950
SP   1   1.00
      0.2120313              1.0000000              1.0000000
D    1   1.00
      1.8260000              1.0000000
D    1   1.00
      0.4565000              1.0000000
F    1   1.00
      1.0000000              1.0000000
****
O     0
S    6   1.00
   5484.6717000              0.0018311
    825.2349500              0.0139501
    188.0469600              0.0684451
     52.9645000              0.2327143
     16.8975700              0.4701930
      5.7996353              0.3585209
SP   3   1.00
     15.5396160             -0.1107775              0.0708743
      3.5999336             -0.1480263              0.3397528
      1.0137618              1.1307670              0.7271586
SP   1   1.00
      0.2700058              1.0000000              1.0000000
D    1   1.00
      2.5840000              1.0000000
D    1   1.00
      0.6460000              1.0000000
F    1   1.00
      1.4000000              1.0000000
****
F     0
S    6   1.00
   7001.7130900              0.0018196169
   1051.3660900              0.0139160796
    239.2856900              0.0684053245
     67.3974453              0.233185760
     21.5199573              0.471267439
      7.40310130             0.356618546
SP   3   1.00
     20.8479528             -0.108506975            0.0716287243
      4.80830834            -0.146451658            0.3459121030
      1.34406986             1.128688580            0.7224699570
SP   1   1.00
      0.358151393            1.0000000              1.0000000
D    1   1.00
      3.5000000              1.0000000
D    1   1.00
      0.8750000              1.0000000
F    1   1.00
      1.8500000              1.0000000
****
Al     0
S    6   1.00
  13983.1000000              0.00194267
   2098.7500000              0.0148599
    477.7050000              0.0728494
    134.3600000              0.2468300
     42.8709000              0.4872580
     14.5189000              0.3234960
SP   6   1.00
    239.6680000             -0.00292619             0.00460285
     57.4419000             -0.0374080              0.0331990
     18.2859000             -0.1144870              0.1362820
      6.5991400              0.1156350              0.3304760
      2.4904900              0.6125950              0.4491460
      0.9445400              0.3937990              0.2657040
SP   3   1.00
      1.2779000             -0.2276060             -0.0175130
      0.3975900              0.00144583             0.2445330
      0.1600950              1.0927900              0.8049340
SP   1   1.00
      0.0556577              1.0000000              1.0000000
D    1   1.00
      0.6500000              1.0000000
D    1   1.00
      0.1625000              1.0000000
F    1   1.00
      0.2500000              1.0000000
****
Si     0
S    6   1.00
  16115.9000000              0.00195948
   2425.5800000              0.01492880
    553.8670000              0.07284780
    156.3400000              0.24613000
     50.0683000              0.48591400
     17.0178000              0.32500200
SP   6   1.00
    292.7180000             -0.00278094             0.00443826
     69.8731000             -0.03571460             0.03266790
     22.3363000             -0.11498500             0.13472100
      8.1503900              0.09356340             0.32867800
      3.1345800              0.60301700             0.44964000
      1.2254300              0.41895900             0.26137200
SP   3   1.00
      1.7273800             -0.24463000            -0.01779510
      0.5729220              0.00431572             0.25353900
      0.2221920              1.09818000             0.80066900
SP   1   1.00
      0.0778369              1.00000000             1.00000000
D    1   1.00
      0.9000000              1.0000000
D    1   1.00
      0.2250000              1.0000000
F    1   1.00
      0.3200000              1.0000000
****
P     0
S    6   1.00
  19413.3000000              0.0018516
   2909.4200000              0.0142062
    661.3640000              0.0699995
    185.7590000              0.2400790
     59.1943000              0.4847620
     20.0310000              0.3352000
SP   6   1.00
    339.4780000             -0.00278217             0.00456462
     81.0101000             -0.0360499              0.03369360
     25.8780000             -0.1166310              0.13975500
      9.4522100              0.0968328              0.33936200
      3.6656600              0.6144180              0.45092100
      1.4674600              0.4037980              0.23858600
SP   3   1.00
      2.1562300             -0.2529230             -0.01776530
      0.7489970              0.0328517              0.27405800
      0.2831450              1.0812500              0.78542100
SP   1   1.00
      0.0998317              1.0000000              1.00000000
D    1   1.00
      1.1000000              1.0000000
D    1   1.00
      0.2750000              1.0000000
F    1   1.00
      0.4500000              1.0000000
****
S     0
S    6   1.00
  21917.1000000              0.0018690
   3301.4900000              0.0142300
    754.1460000              0.0696960
    212.7110000              0.2384870
     67.9896000              0.4833070
     23.0515000              0.3380740
SP   6   1.00
    423.7350000             -0.0023767              0.0040610
    100.7100000             -0.0316930              0.0306810
     32.1599000             -0.1133170              0.1304520
     11.8079000              0.0560900              0.3272050
      4.6311000              0.5922550              0.4528510
      1.8702500              0.4550060              0.2560420
SP   3   1.00
      2.6158400             -0.2503740             -0.0145110
      0.9221670              0.0669570              0.3102630
      0.3412870              1.0545100              0.7544830
SP   1   1.00
      0.1171670              1.0000000              1.0000000
D    1   1.00
      1.3000000              1.0000000
D    1   1.00
      0.3250000              1.0000000
F    1   1.00
      0.5500000              1.0000000
****
Cl     0
S    6   1.00
  25180.1000000              0.0018330
   3780.3500000              0.0140340
    860.4740000              0.0690970
    242.1450000              0.2374520
     77.3349000              0.4830340
     26.2470000              0.3398560
SP   6   1.00
    491.7650000             -0.0022974              0.0039894
    116.9840000             -0.0307140              0.0303180
     37.4153000             -0.1125280              0.1298800
     13.7834000              0.0450160              0.3279510
      5.4521500              0.5893530              0.4535270
      2.2258800              0.4652060              0.2521540
SP   3   1.00
      3.1864900             -0.2518300             -0.0142990
      1.1442700              0.0615890              0.3235720
      0.4203770              1.0601800              0.7435070
SP   1   1.00
      0.1426570              1.0000000              1.0000000
D    1   1.00
      1.5000000              1.0000000
D    1   1.00
      0.3750000              1.0000000
F    1   1.00
      0.7000000              1.0000000
****
}

set {
reference uhf
freeze_core true
e_convergence 10
d_convergence 10
dft_spherical_points 1202
dft_radial_points 99
}

e = energy('b3lyp')

print_out('Grab this energy {0}'.format(e))
--------------------------------------------------------------------------

    Molecular point group: cs

    Geometry (in Bohr), charge = 0, multiplicity = 2:

       Center              X                  Y                   Z               Mass
    ------------   -----------------  -----------------  -----------------  -----------------
         C           -0.323400919945    -0.000001774406     0.000000000000    12.000000000000
         C            0.061180018355    -1.401368219906    -2.427231220300    12.000000000000
         C            0.061060084455     2.802740235894     0.000000000000    12.000000000000
         C            0.061180018355    -1.401368219906     2.427231220300    12.000000000000
         H            2.090092522355    -1.643667899906    -2.846696252300     1.007825032230
         H           -0.767100404045    -0.385573325806    -4.026681070800     1.007825032230
         H           -0.767263839745    -3.294362136106    -2.347294471800     1.007825032230
         H            2.089953302755     3.287244001894     0.000000000000     1.007825032230
         H           -0.767341235045     3.679969324994     1.679392589000     1.007825032230
         H           -0.767341235045     3.679969324994    -1.679392589000     1.007825032230
         H            2.090092522355    -1.643667899906     2.846696252300     1.007825032230
         H           -0.767263839745    -3.294362136106     2.347294471800     1.007825032230
         H           -0.767100404045    -0.385573325806     4.026681070800     1.007825032230

  Charge       = 0
  Multiplicity = 2
  Basis Set: ANONYMOUS9AA19B2B
    Blend: 6-31G_2DFP_
  Basis Set: (ANONYMOUS9AA19B2B AUX)
    Blend: DEF2-UNIVERSAL-JKFIT

    Orbital Energies [Eh]
    ---------------------

    Alpha Occupied:

       1Ap   -10.180461     2Ap   -10.167513     1App  -10.167513
       3Ap   -10.167467     4Ap    -0.797548     5Ap    -0.685818
       2App   -0.685818     6Ap    -0.530299     7Ap    -0.441013
       3App   -0.434465     8Ap    -0.434464     9Ap    -0.382478
       4App   -0.382477     5App   -0.363496    10Ap    -0.337834
       6App   -0.337834    11Ap    -0.169002

    Alpha Virtual:

      12Ap     0.075747    13Ap     0.133846     7App    0.133847
      14Ap     0.142352     8App    0.142353    15Ap     0.154475
      16Ap     0.178437     9App    0.178437    17Ap     0.203366
      10App    0.214471    11App    0.275720    18Ap     0.275722
      19Ap     0.399288    12App    0.399292    20Ap     0.403227
      13App    0.423877    21Ap     0.423877    22Ap     0.456279
      23Ap     0.495176    14App    0.495177    15App    0.511947
      24Ap     0.513903    25Ap     0.578519    16App    0.578528
      17App    0.591133    26Ap     0.591134    27Ap     0.601963
      28Ap     0.623910    18App    0.631306    19App    0.635626
      29Ap     0.635630    30Ap     0.662962    20App    0.662962
      31Ap     0.683318    21App    0.683319    32Ap     0.734815
      22App    0.824568    33Ap     0.824571    23App    0.853263
      24App    0.914354    34Ap     0.914360    25App    0.943457
      35Ap     0.943510    26App    0.960696    36Ap     0.960713
      37Ap     1.003523    38Ap     1.127606    27App    1.127619
      39Ap     1.140932    40Ap     1.163616    28App    1.163628
      41Ap     1.222463    42Ap     1.273829    29App    1.273832
      43Ap     1.279639    30App    1.323444    44Ap     1.323446
      45Ap     1.354806    31App    1.365410    46Ap     1.365415
      32App    1.392368    47Ap     1.403749    33App    1.403751
      34App    1.416180    48Ap     1.416187    35App    1.427400
      36App    1.490086    49Ap     1.498304    37App    1.542159
      50Ap     1.542162    51Ap     1.574170    38App    1.574173
      52Ap     1.668449    53Ap     1.737477    39App    1.737489
      54Ap     1.766821    40App    1.829350    55Ap     1.829351
      41App    1.969506    56Ap     2.017090    42App    2.017093
      57Ap     2.017435    58Ap     2.051133    43App    2.051133
      44App    2.737334    59Ap     2.737335    60Ap     2.790482
      45App    2.810828    61Ap     2.889279    46App    2.889285
      62Ap     2.894459    63Ap     2.929259    47App    2.929267
      48App    2.958425    64Ap     2.963753    49App    2.963767
      65Ap     3.032936    50App    3.070381    66Ap     3.070394
      51App    3.083028    67Ap     3.169344    52App    3.169351
      68Ap     3.179690    53App    3.285679    69Ap     3.285679
      70Ap     3.327424    54App    3.327429    71Ap     3.376400
      55App    3.491063    72Ap     3.491083    56App    3.514156
      73Ap     3.525611    57App    3.567951    74Ap     3.567971
      58App    3.576949    75Ap     3.666449    59App    3.666457
      76Ap     3.678396    60App    3.693379    77Ap     3.693396
      78Ap     3.776186    61App    3.776212    79Ap     3.788849
      80Ap     3.910193    62App    3.910198    81Ap     4.031556
      82Ap     4.109164    63App    4.109167    83Ap     4.144827
      64App    4.144835    84Ap     4.169605    85Ap     4.200395
      65App    4.200994    86Ap     4.200998    66App    4.206805
      87Ap     4.313823    67App    4.313843    68App    4.357196
      88Ap     4.423063    69App    4.423064    70App    4.443356
      71App    4.514076    89Ap     4.514078    72App    4.576061
      90Ap     4.576073    91Ap     4.616466    92Ap     4.706140
      93Ap     4.772017    73App    4.772025    74App    4.833230
      94Ap     4.963386    75App    5.002729    95Ap     5.002741
      96Ap     5.223272    76App    5.241792    97Ap     5.241793
      98Ap     5.350745    77App    5.350758    78App    5.474906

    Beta Occupied:

       1Ap   -10.168268     1App  -10.168267     2Ap   -10.168238
       3Ap   -10.166643     4Ap    -0.780861     5Ap    -0.683628
       2App   -0.683628     6Ap    -0.511282     3App   -0.430845
       7Ap    -0.430845     8Ap    -0.421718     9Ap    -0.376570
       4App   -0.376569     5App   -0.362482     6App   -0.332952
      10Ap    -0.332952

    Beta Virtual:

      11Ap    -0.025806    12Ap     0.076757    13Ap     0.134719
       7App    0.134720    14Ap     0.144248     8App    0.144248
      15Ap     0.162955    16Ap     0.182103     9App    0.182103
      10App    0.214701    17Ap     0.218778    11App    0.282078
      18Ap     0.282080    19Ap     0.400455    12App    0.400460
      20Ap     0.419652    13App    0.426684    21Ap     0.426685
      22Ap     0.468129    23Ap     0.497430    14App    0.497431
      15App    0.513679    24Ap     0.556222    25Ap     0.584054
      16App    0.584062    17App    0.597301    26Ap     0.597302
      27Ap     0.609407    28Ap     0.627259    18App    0.631463
      19App    0.638917    29Ap     0.638921    30Ap     0.666519
      20App    0.666519    31Ap     0.685977    21App    0.685979
      32Ap     0.757391    22App    0.829724    33Ap     0.829726
      23App    0.854628    24App    0.922343    34Ap     0.922349
      25App    0.945287    35Ap     0.952404    26App    0.966002
      36Ap     0.966017    37Ap     1.008760    38Ap     1.131654
      27App    1.131665    39Ap     1.154286    40Ap     1.168671
      28App    1.168683    41Ap     1.231510    42Ap     1.279405
      29App    1.279409    43Ap     1.285430    30App    1.328385
      44Ap     1.328387    45Ap     1.364188    31App    1.370716
      46Ap     1.370720    32App    1.393420    47Ap     1.407187
      33App    1.407189    34App    1.421229    48Ap     1.421236
      35App    1.427691    36App    1.491115    49Ap     1.508725
      50Ap     1.546677    37App    1.546677    38App    1.581954
      51Ap     1.581954    52Ap     1.673229    53Ap     1.743235
      39App    1.743246    54Ap     1.777619    40App    1.833211
      55Ap     1.833211    41App    1.970362    56Ap     2.023452
      42App    2.023454    57Ap     2.038823    58Ap     2.057887
      43App    2.057887    44App    2.745688    59Ap     2.745690
      45App    2.811238    60Ap     2.815626    61Ap     2.901962
      46App    2.901968    62Ap     2.924096    63Ap     2.931759
      47App    2.931768    48App    2.959483    64Ap     2.968225
      49App    2.968240    65Ap     3.040909    50App    3.080193
      66Ap     3.080204    51App    3.084830    67Ap     3.185237
      52App    3.185241    68Ap     3.187336    69Ap     3.290483
      53App    3.290483    70Ap     3.331226    54App    3.331232
      71Ap     3.384162    55App    3.493739    72Ap     3.493759
      56App    3.512516    73Ap     3.528678    57App    3.576810
      58App    3.581338    74Ap     3.581360    75Ap     3.671099
      59App    3.671111    76Ap     3.691630    60App    3.725061
      77Ap     3.725076    78Ap     3.780665    61App    3.780690
      79Ap     3.817422    80Ap     3.920060    62App    3.920067
      81Ap     4.042399    82Ap     4.115806    63App    4.115807
      83Ap     4.152124    64App    4.152133    84Ap     4.183756
      65App    4.206937    85Ap     4.206941    86Ap     4.208397
      66App    4.211285    87Ap     4.321437    67App    4.321457
      68App    4.360546    88Ap     4.431243    69App    4.431245
      70App    4.446251    71App    4.521815    89Ap     4.521816
      72App    4.586677    90Ap     4.586689    91Ap     4.623645
      92Ap     4.716488    93Ap     4.778976    73App    4.778984
      74App    4.836143    94Ap     4.968186    75App    5.006765
      95Ap     5.006777    96Ap     5.228997    76App    5.243572
      97Ap     5.243573    98Ap     5.357225    77App    5.357237
      78App    5.477231

    Final Occupation by Irrep:
             Ap   App
    DOCC [    10,    6 ]
    SOCC [     1,    0 ]

  @DF-UKS Final Energy:  -157.81307454528229

   => Energetics <=

    Nuclear Repulsion Energy =            125.3292957925340403
    One-Electron Energy =                -458.6230436276453588
    Two-Electron Energy =                 195.7839089496673921
    DFT Exchange-Correlation Energy =     -20.3032356598383359
    Empirical Dispersion Energy =           0.0000000000000000
    VV10 Nonlocal Energy =                  0.0000000000000000
    Total Energy =                       -157.8130745452822907

  UHF NO Occupations:
  HONO-2 :    9 Ap 1.9996000
  HONO-1 :   10 Ap 1.9989789
  HONO-0 :   11 Ap 1.0000000
  LUNO+0 :   12 Ap 0.0010211
  LUNO+1 :   13 Ap 0.0004000
  LUNO+2 :    7App 0.0001980
  LUNO+3 :   14 Ap 0.0001980

Computation Completed

Properties will be evaluated at   0.000000,   0.000000,   0.000000 [a0]

Properties computed using the SCF density matrix

  Nuclear Dipole Moment: [e a0]
     X:     0.8268      Y:    -0.0000      Z:     0.0000

  Electronic Dipole Moment: [e a0]
     X:    -0.7494      Y:     0.0000      Z:     0.0000

  Dipole Moment: [e a0]
     X:     0.0774      Y:     0.0000      Z:     0.0000     Total:     0.0774

  Dipole Moment: [D]
     X:     0.1968      Y:     0.0000      Z:     0.0000     Total:     0.1968

*** tstop() called on n080 at Fri Nov  5 13:23:23 2021
Module time:
	user time   =     496.88 seconds =       8.28 minutes
	system time =       4.59 seconds =       0.08 minutes
	total time  =        126 seconds =       2.10 minutes
Total time:
	user time   =     496.88 seconds =       8.28 minutes
	system time =       4.59 seconds =       0.08 minutes
	total time  =        126 seconds =       2.10 minutes
Grab this energy -157.8130745452823
    Psi4 stopped on: Friday, 05 November 2021 01:23PM
    Psi4 wall time for execution: 0:02:06.10

*** Psi4 exiting successfully. Buy a developer a beer!
