                               Psi4 1.4a2.dev629

  ==> Input File <==

--------------------------------------------------------------------------
import os
memory 14 GB

molecule {
 C   -0.3233313761   -0.0070042927   -0.0000000000
 C    0.0607609987   -1.3988389718   -2.4316204238
 C    0.0617795650    2.7946876939    0.0000000000
 C    0.0607609987   -1.3988389718    2.4316204238
 H    2.0866590434   -1.6399596299   -2.8524578720
 H   -0.7668849204   -0.3771331904   -4.0233444265
 H   -0.7646414804   -3.2917905170   -2.3669851577
 H    2.0873502561    3.2835338054    0.0000000000
 H   -0.7650968022    3.6721015489    1.6770705379
 H   -0.7650968022    3.6721015489   -1.6770705379
 H    2.0866590434   -1.6399596299    2.8524578720
 H   -0.7646414804   -3.2917905170    2.3669851577
 H   -0.7668849204   -0.3771331904    4.0233444265
units bohr
0 2
}

basis {

assign 6-31g_2dfp_

[ 6-31g_2dfp_ ]

spherical

!----------------------------------------------------------------------
! Basis Set Exchange
! Version v0.8.13
! https://www.basissetexchange.org
!----------------------------------------------------------------------
!   Basis set: 6-31G(2df,p)
! Description: 6-31G(2df,p)
!        Role: orbital
!     Version: 0  (Data from the original Basis Set Exchange)
!----------------------------------------------------------------------

****
H     0
S    3   1.00
     18.7311370              0.03349460
      2.8253937              0.23472695
      0.6401217              0.81375733
S    1   1.00
      0.1612778              1.00000000
P    1   1.00
      1.5000000              1.0000000
P    1   1.00
      0.3750000              1.0000000
****
B     0
S    6   1.00
   2068.8823000              0.0018663
    310.6495700              0.0142515
     70.6830330              0.0695516
     19.8610800              0.2325729
      6.2993048              0.4670787
      2.1270270              0.3634314
SP   3   1.00
      4.7279710             -0.1303938              0.0745976
      1.1903377             -0.1307889              0.3078467
      0.3594117              1.1309444              0.7434568
SP   1   1.00
      0.1267512              1.0000000              1.0000000
D    1   1.00
      0.8020000              1.0000000
D    1   1.00
      0.2005000              1.0000000
F    1   1.00
      0.5000000              1.0000000
****
C     0
S    6   1.00
   3047.5249000              0.0018347
    457.3695100              0.0140373
    103.9486900              0.0688426
     29.2101550              0.2321844
      9.2866630              0.4679413
      3.1639270              0.3623120
SP   3   1.00
      7.8682724             -0.1193324              0.0689991
      1.8812885             -0.1608542              0.3164240
      0.5442493              1.1434564              0.7443083
SP   1   1.00
      0.1687144              1.0000000              1.0000000
D    1   1.00
      1.2520000              1.0000000
D    1   1.00
      0.3130000              1.0000000
F    1   1.00
      0.8000000              1.0000000
****
N     0
S    6   1.00
   4173.5110000              0.0018348
    627.4579000              0.0139950
    142.9021000              0.0685870
     40.2343300              0.2322410
     12.8202100              0.4690700
      4.3904370              0.3604550
SP   3   1.00
     11.6263580             -0.1149610              0.0675800
      2.7162800             -0.1691180              0.3239070
      0.7722180              1.1458520              0.7408950
SP   1   1.00
      0.2120313              1.0000000              1.0000000
D    1   1.00
      1.8260000              1.0000000
D    1   1.00
      0.4565000              1.0000000
F    1   1.00
      1.0000000              1.0000000
****
O     0
S    6   1.00
   5484.6717000              0.0018311
    825.2349500              0.0139501
    188.0469600              0.0684451
     52.9645000              0.2327143
     16.8975700              0.4701930
      5.7996353              0.3585209
SP   3   1.00
     15.5396160             -0.1107775              0.0708743
      3.5999336             -0.1480263              0.3397528
      1.0137618              1.1307670              0.7271586
SP   1   1.00
      0.2700058              1.0000000              1.0000000
D    1   1.00
      2.5840000              1.0000000
D    1   1.00
      0.6460000              1.0000000
F    1   1.00
      1.4000000              1.0000000
****
F     0
S    6   1.00
   7001.7130900              0.0018196169
   1051.3660900              0.0139160796
    239.2856900              0.0684053245
     67.3974453              0.233185760
     21.5199573              0.471267439
      7.40310130             0.356618546
SP   3   1.00
     20.8479528             -0.108506975            0.0716287243
      4.80830834            -0.146451658            0.3459121030
      1.34406986             1.128688580            0.7224699570
SP   1   1.00
      0.358151393            1.0000000              1.0000000
D    1   1.00
      3.5000000              1.0000000
D    1   1.00
      0.8750000              1.0000000
F    1   1.00
      1.8500000              1.0000000
****
Al     0
S    6   1.00
  13983.1000000              0.00194267
   2098.7500000              0.0148599
    477.7050000              0.0728494
    134.3600000              0.2468300
     42.8709000              0.4872580
     14.5189000              0.3234960
SP   6   1.00
    239.6680000             -0.00292619             0.00460285
     57.4419000             -0.0374080              0.0331990
     18.2859000             -0.1144870              0.1362820
      6.5991400              0.1156350              0.3304760
      2.4904900              0.6125950              0.4491460
      0.9445400              0.3937990              0.2657040
SP   3   1.00
      1.2779000             -0.2276060             -0.0175130
      0.3975900              0.00144583             0.2445330
      0.1600950              1.0927900              0.8049340
SP   1   1.00
      0.0556577              1.0000000              1.0000000
D    1   1.00
      0.6500000              1.0000000
D    1   1.00
      0.1625000              1.0000000
F    1   1.00
      0.2500000              1.0000000
****
Si     0
S    6   1.00
  16115.9000000              0.00195948
   2425.5800000              0.01492880
    553.8670000              0.07284780
    156.3400000              0.24613000
     50.0683000              0.48591400
     17.0178000              0.32500200
SP   6   1.00
    292.7180000             -0.00278094             0.00443826
     69.8731000             -0.03571460             0.03266790
     22.3363000             -0.11498500             0.13472100
      8.1503900              0.09356340             0.32867800
      3.1345800              0.60301700             0.44964000
      1.2254300              0.41895900             0.26137200
SP   3   1.00
      1.7273800             -0.24463000            -0.01779510
      0.5729220              0.00431572             0.25353900
      0.2221920              1.09818000             0.80066900
SP   1   1.00
      0.0778369              1.00000000             1.00000000
D    1   1.00
      0.9000000              1.0000000
D    1   1.00
      0.2250000              1.0000000
F    1   1.00
      0.3200000              1.0000000
****
P     0
S    6   1.00
  19413.3000000              0.0018516
   2909.4200000              0.0142062
    661.3640000              0.0699995
    185.7590000              0.2400790
     59.1943000              0.4847620
     20.0310000              0.3352000
SP   6   1.00
    339.4780000             -0.00278217             0.00456462
     81.0101000             -0.0360499              0.03369360
     25.8780000             -0.1166310              0.13975500
      9.4522100              0.0968328              0.33936200
      3.6656600              0.6144180              0.45092100
      1.4674600              0.4037980              0.23858600
SP   3   1.00
      2.1562300             -0.2529230             -0.01776530
      0.7489970              0.0328517              0.27405800
      0.2831450              1.0812500              0.78542100
SP   1   1.00
      0.0998317              1.0000000              1.00000000
D    1   1.00
      1.1000000              1.0000000
D    1   1.00
      0.2750000              1.0000000
F    1   1.00
      0.4500000              1.0000000
****
S     0
S    6   1.00
  21917.1000000              0.0018690
   3301.4900000              0.0142300
    754.1460000              0.0696960
    212.7110000              0.2384870
     67.9896000              0.4833070
     23.0515000              0.3380740
SP   6   1.00
    423.7350000             -0.0023767              0.0040610
    100.7100000             -0.0316930              0.0306810
     32.1599000             -0.1133170              0.1304520
     11.8079000              0.0560900              0.3272050
      4.6311000              0.5922550              0.4528510
      1.8702500              0.4550060              0.2560420
SP   3   1.00
      2.6158400             -0.2503740             -0.0145110
      0.9221670              0.0669570              0.3102630
      0.3412870              1.0545100              0.7544830
SP   1   1.00
      0.1171670              1.0000000              1.0000000
D    1   1.00
      1.3000000              1.0000000
D    1   1.00
      0.3250000              1.0000000
F    1   1.00
      0.5500000              1.0000000
****
Cl     0
S    6   1.00
  25180.1000000              0.0018330
   3780.3500000              0.0140340
    860.4740000              0.0690970
    242.1450000              0.2374520
     77.3349000              0.4830340
     26.2470000              0.3398560
SP   6   1.00
    491.7650000             -0.0022974              0.0039894
    116.9840000             -0.0307140              0.0303180
     37.4153000             -0.1125280              0.1298800
     13.7834000              0.0450160              0.3279510
      5.4521500              0.5893530              0.4535270
      2.2258800              0.4652060              0.2521540
SP   3   1.00
      3.1864900             -0.2518300             -0.0142990
      1.1442700              0.0615890              0.3235720
      0.4203770              1.0601800              0.7435070
SP   1   1.00
      0.1426570              1.0000000              1.0000000
D    1   1.00
      1.5000000              1.0000000
D    1   1.00
      0.3750000              1.0000000
F    1   1.00
      0.7000000              1.0000000
****
}

set {
reference uhf
freeze_core true
e_convergence 10
d_convergence 10
dft_spherical_points 1202
dft_radial_points 99
}

e = energy('b3lyp')

print_out('Grab this energy {0}'.format(e))
--------------------------------------------------------------------------

    Molecular point group: cs

    Geometry (in Bohr), charge = 0, multiplicity = 2:

       Center              X                  Y                   Z               Mass
    ------------   -----------------  -----------------  -----------------  -----------------
         C           -0.323333335134    -0.005078842482     0.000000000000    12.000000000000
         C            0.060759039666    -1.396913521582    -2.431620423800    12.000000000000
         C            0.061777605966     2.796613144118     0.000000000000    12.000000000000
         C            0.060759039666    -1.396913521582     2.431620423800    12.000000000000
         H            2.086657084366    -1.638034179682    -2.852457872000     1.007825032230
         H           -0.766886879434    -0.375207740182    -4.023344426500     1.007825032230
         H           -0.764643439434    -3.289865066782    -2.366985157700     1.007825032230
         H            2.087348297066     3.285459255618     0.000000000000     1.007825032230
         H           -0.765098761234     3.674026999118     1.677070537900     1.007825032230
         H           -0.765098761234     3.674026999118    -1.677070537900     1.007825032230
         H            2.086657084366    -1.638034179682     2.852457872000     1.007825032230
         H           -0.764643439434    -3.289865066782     2.366985157700     1.007825032230
         H           -0.766886879434    -0.375207740182     4.023344426500     1.007825032230

  Charge       = 0
  Multiplicity = 2
  Basis Set: ANONYMOUS72DE6F17
    Blend: 6-31G_2DFP_
  Basis Set: (ANONYMOUS72DE6F17 AUX)
    Blend: DEF2-UNIVERSAL-JKFIT

    Orbital Energies [Eh]
    ---------------------

    Alpha Occupied:

       1Ap   -10.180342     1App  -10.167095     2Ap   -10.167068
       3Ap   -10.166883     4Ap    -0.797768     2App   -0.686527
       5Ap    -0.685845     6Ap    -0.530777     7Ap    -0.441133
       3App   -0.435006     8Ap    -0.434329     4App   -0.382777
       9Ap    -0.382420     5App   -0.363606     6App   -0.338338
      10Ap    -0.337662    11Ap    -0.168961

    Alpha Virtual:

      12Ap     0.076072     7App    0.133948    13Ap     0.134364
       8App    0.142429    14Ap     0.142827    15Ap     0.154880
       9App    0.178514    16Ap     0.179042    17Ap     0.203544
      10App    0.214815    18Ap     0.275887    11App    0.276084
      12App    0.399131    19Ap     0.399310    20Ap     0.403367
      13App    0.423910    21Ap     0.424296    22Ap     0.456593
      14App    0.494923    23Ap     0.495846    15App    0.512179
      24Ap     0.513985    25Ap     0.578752    16App    0.578842
      26Ap     0.591360    17App    0.591921    27Ap     0.602575
      28Ap     0.624774    18App    0.631774    29Ap     0.635986
      19App    0.636506    20App    0.663161    30Ap     0.663661
      21App    0.683646    31Ap     0.684063    32Ap     0.734993
      22App    0.824362    33Ap     0.826435    23App    0.853913
      24App    0.914921    34Ap     0.915102    25App    0.944030
      35Ap     0.944481    26App    0.960998    36Ap     0.961872
      37Ap     1.003481    27App    1.126772    38Ap     1.129473
      39Ap     1.142220    28App    1.162681    40Ap     1.163854
      41Ap     1.223324    29App    1.274148    42Ap     1.274849
      43Ap     1.279376    44Ap     1.324260    30App    1.324425
      45Ap     1.355998    31App    1.365428    46Ap     1.366624
      32App    1.392475    33App    1.403584    47Ap     1.404563
      34App    1.417013    48Ap     1.417231    35App    1.427915
      36App    1.491427    49Ap     1.499071    37App    1.542239
      50Ap     1.543450    38App    1.572659    51Ap     1.576337
      52Ap     1.669814    39App    1.738739    53Ap     1.740051
      54Ap     1.768373    40App    1.831384    55Ap     1.831413
      41App    1.971744    42App    2.017580    56Ap     2.018123
      57Ap     2.020646    43App    2.050959    58Ap     2.054431
      44App    2.737944    59Ap     2.739029    60Ap     2.790921
      45App    2.811431    61Ap     2.889571    46App    2.890324
      62Ap     2.894950    47App    2.929343    63Ap     2.929650
      48App    2.958983    49App    2.963371    64Ap     2.965423
      65Ap     3.034007    50App    3.070104    66Ap     3.072421
      51App    3.084423    52App    3.168240    67Ap     3.169354
      68Ap     3.180579    69Ap     3.284536    53App    3.286061
      54App    3.326551    70Ap     3.327805    71Ap     3.375664
      55App    3.489679    72Ap     3.490452    56App    3.514090
      73Ap     3.525344    57App    3.567089    74Ap     3.569246
      58App    3.575650    59App    3.666118    75Ap     3.666641
      76Ap     3.679623    77Ap     3.693292    60App    3.695013
      61App    3.776396    78Ap     3.777107    79Ap     3.789265
      62App    3.911099    80Ap     3.913377    81Ap     4.034472
      63App    4.111268    82Ap     4.111488    64App    4.147344
      83Ap     4.148834    84Ap     4.173261    65App    4.201317
      85Ap     4.202629    86Ap     4.204787    66App    4.210995
      87Ap     4.315134    67App    4.316764    68App    4.358984
      69App    4.424027    88Ap     4.424850    70App    4.443547
      71App    4.516464    89Ap     4.517257    72App    4.577560
      90Ap     4.579029    91Ap     4.617491    92Ap     4.709443
      73App    4.772200    93Ap     4.777002    74App    4.836903
      94Ap     4.962860    75App    5.002313    95Ap     5.003594
      96Ap     5.228007    76App    5.246502    97Ap     5.247130
      98Ap     5.355482    77App    5.355514    78App    5.479339

    Beta Occupied:

       1App  -10.167847     1Ap   -10.167831     2Ap   -10.167648
       3Ap   -10.166520     4Ap    -0.781093     2App   -0.684326
       5Ap    -0.683652     6Ap    -0.511748     3App   -0.431376
       7Ap    -0.430717     8Ap    -0.421815     4App   -0.376868
       9Ap    -0.376500     5App   -0.362590     6App   -0.333461
      10Ap    -0.332785

    Beta Virtual:

      11Ap    -0.025743    12Ap     0.077081     7App    0.134819
      13Ap     0.135272     8App    0.144303    14Ap     0.144693
      15Ap     0.163340     9App    0.182194    16Ap     0.182705
      10App    0.215045    17Ap     0.218927    18Ap     0.282257
      11App    0.282410    12App    0.400323    19Ap     0.400482
      20Ap     0.419779    13App    0.426704    21Ap     0.427131
      22Ap     0.468503    14App    0.497181    23Ap     0.498109
      15App    0.513915    24Ap     0.556329    25Ap     0.584275
      16App    0.584424    26Ap     0.597562    17App    0.598071
      27Ap     0.610002    28Ap     0.628148    18App    0.631931
      29Ap     0.639238    19App    0.639827    20App    0.666697
      30Ap     0.667251    21App    0.686252    31Ap     0.686729
      32Ap     0.757515    22App    0.829498    33Ap     0.831636
      23App    0.855267    24App    0.922842    34Ap     0.923113
      25App    0.945901    35Ap     0.953377    26App    0.966378
      36Ap     0.967121    37Ap     1.008714    27App    1.130735
      38Ap     1.133574    39Ap     1.155594    28App    1.167800
      40Ap     1.168878    41Ap     1.232293    29App    1.279740
      42Ap     1.280453    43Ap     1.285128    44Ap     1.329217
      30App    1.329448    45Ap     1.365414    31App    1.370528
      46Ap     1.371997    32App    1.393537    33App    1.407116
      47Ap     1.407977    34App    1.422047    48Ap     1.422284
      35App    1.428190    36App    1.492480    49Ap     1.509514
      37App    1.546549    50Ap     1.547956    38App    1.580670
      51Ap     1.584068    52Ap     1.674661    39App    1.744513
      53Ap     1.745807    54Ap     1.779148    40App    1.835219
      55Ap     1.835288    41App    1.972605    42App    2.023909
      56Ap     2.026939    57Ap     2.039681    43App    2.057786
      58Ap     2.061030    44App    2.746250    59Ap     2.747396
      45App    2.811844    60Ap     2.816056    61Ap     2.902365
      46App    2.902914    62Ap     2.924648    47App    2.931901
      63Ap     2.932056    48App    2.960054    49App    2.967956
      64Ap     2.969918    65Ap     3.041941    50App    3.079811
      66Ap     3.082430    51App    3.086351    52App    3.184134
      67Ap     3.184953    68Ap     3.188258    69Ap     3.289378
      53App    3.290817    54App    3.330331    70Ap     3.331637
      71Ap     3.383481    55App    3.492378    72Ap     3.493195
      56App    3.512475    73Ap     3.528389    57App    3.574356
      58App    3.581627    74Ap     3.582537    59App    3.671077
      75Ap     3.671188    76Ap     3.692942    77Ap     3.725263
      60App    3.726279    61App    3.780985    78Ap     3.781649
      79Ap     3.817725    62App    3.920899    80Ap     3.923211
      81Ap     4.045361    63App    4.117977    82Ap     4.118406
      64App    4.154631    83Ap     4.155972    84Ap     4.187317
      65App    4.207216    85Ap     4.210349    86Ap     4.210979
      66App    4.215498    87Ap     4.322531    67App    4.324243
      68App    4.362350    69App    4.432298    88Ap     4.432995
      70App    4.446449    71App    4.524338    89Ap     4.524959
      72App    4.588079    90Ap     4.589710    91Ap     4.624685
      92Ap     4.719790    73App    4.779159    93Ap     4.783948
      74App    4.839819    94Ap     4.967654    75App    5.006362
      95Ap     5.007624    96Ap     5.233718    76App    5.248283
      97Ap     5.248923    98Ap     5.361959    77App    5.361998
      78App    5.481660

    Final Occupation by Irrep:
             Ap   App
    DOCC [    10,    6 ]
    SOCC [     1,    0 ]

  @DF-UKS Final Energy:  -157.81306515564810

   => Energetics <=

    Nuclear Repulsion Energy =            125.3948638112173626
    One-Electron Energy =                -458.7493779571796040
    Two-Electron Energy =                 195.8485932756654222
    DFT Exchange-Correlation Energy =     -20.3071442853512742
    Empirical Dispersion Energy =           0.0000000000000000
    VV10 Nonlocal Energy =                  0.0000000000000000
    Total Energy =                       -157.8130651556481041

  UHF NO Occupations:
  HONO-2 :    9 Ap 1.9996009
  HONO-1 :   10 Ap 1.9989804
  HONO-0 :   11 Ap 1.0000000
  LUNO+0 :   12 Ap 0.0010196
  LUNO+1 :   13 Ap 0.0003991
  LUNO+2 :   14 Ap 0.0001982
  LUNO+3 :    7App 0.0001969

Computation Completed

Properties will be evaluated at   0.000000,   0.000000,   0.000000 [a0]

Properties computed using the SCF density matrix

  Nuclear Dipole Moment: [e a0]
     X:     0.8272      Y:     0.0135      Z:     0.0000

  Electronic Dipole Moment: [e a0]
     X:    -0.7493      Y:    -0.0143      Z:     0.0000

  Dipole Moment: [e a0]
     X:     0.0779      Y:    -0.0008      Z:     0.0000     Total:     0.0779

  Dipole Moment: [D]
     X:     0.1980      Y:    -0.0019      Z:     0.0000     Total:     0.1981

*** tstop() called on n054 at Fri Nov  5 15:34:36 2021
Module time:
	user time   =     538.43 seconds =       8.97 minutes
	system time =      11.80 seconds =       0.20 minutes
	total time  =        139 seconds =       2.32 minutes
Total time:
	user time   =     538.43 seconds =       8.97 minutes
	system time =      11.80 seconds =       0.20 minutes
	total time  =        139 seconds =       2.32 minutes
Grab this energy -157.8130651556481
    Psi4 stopped on: Friday, 05 November 2021 03:34PM
    Psi4 wall time for execution: 0:02:18.38

*** Psi4 exiting successfully. Buy a developer a beer!
