                               Psi4 1.4a2.dev629

  ==> Input File <==

--------------------------------------------------------------------------
import os
memory 14 GB

molecule {
 C   -0.3233404734   -0.0000034404    0.0017511897
 C    0.0603108879   -1.4018631383   -2.4267827181
 C    0.0610188023    2.8017584143    0.0013029055
 C    0.0619683636   -1.3998944891    2.4259789149
 H    2.0839300619   -1.6460219408   -2.8448267584
 H   -0.7660955251   -0.3865572563   -4.0254869455
 H   -0.7685943347   -3.2951690530   -2.3543360788
 H    2.0867909148    3.2881072525    0.0059484433
 H   -0.7679781005    3.6872944812    1.6751173914
 H   -0.7633050016    3.6732117999   -1.6778549121
 H    2.0899399231   -1.6421750428    2.8500609152
 H   -0.7625396857   -3.2888219607    2.3436513007
 H   -0.7647137094   -0.3898899400    4.0254763522
units bohr
0 2
}

basis {

assign 6-31g_2dfp_

[ 6-31g_2dfp_ ]

spherical

!----------------------------------------------------------------------
! Basis Set Exchange
! Version v0.8.13
! https://www.basissetexchange.org
!----------------------------------------------------------------------
!   Basis set: 6-31G(2df,p)
! Description: 6-31G(2df,p)
!        Role: orbital
!     Version: 0  (Data from the original Basis Set Exchange)
!----------------------------------------------------------------------

****
H     0
S    3   1.00
     18.7311370              0.03349460
      2.8253937              0.23472695
      0.6401217              0.81375733
S    1   1.00
      0.1612778              1.00000000
P    1   1.00
      1.5000000              1.0000000
P    1   1.00
      0.3750000              1.0000000
****
B     0
S    6   1.00
   2068.8823000              0.0018663
    310.6495700              0.0142515
     70.6830330              0.0695516
     19.8610800              0.2325729
      6.2993048              0.4670787
      2.1270270              0.3634314
SP   3   1.00
      4.7279710             -0.1303938              0.0745976
      1.1903377             -0.1307889              0.3078467
      0.3594117              1.1309444              0.7434568
SP   1   1.00
      0.1267512              1.0000000              1.0000000
D    1   1.00
      0.8020000              1.0000000
D    1   1.00
      0.2005000              1.0000000
F    1   1.00
      0.5000000              1.0000000
****
C     0
S    6   1.00
   3047.5249000              0.0018347
    457.3695100              0.0140373
    103.9486900              0.0688426
     29.2101550              0.2321844
      9.2866630              0.4679413
      3.1639270              0.3623120
SP   3   1.00
      7.8682724             -0.1193324              0.0689991
      1.8812885             -0.1608542              0.3164240
      0.5442493              1.1434564              0.7443083
SP   1   1.00
      0.1687144              1.0000000              1.0000000
D    1   1.00
      1.2520000              1.0000000
D    1   1.00
      0.3130000              1.0000000
F    1   1.00
      0.8000000              1.0000000
****
N     0
S    6   1.00
   4173.5110000              0.0018348
    627.4579000              0.0139950
    142.9021000              0.0685870
     40.2343300              0.2322410
     12.8202100              0.4690700
      4.3904370              0.3604550
SP   3   1.00
     11.6263580             -0.1149610              0.0675800
      2.7162800             -0.1691180              0.3239070
      0.7722180              1.1458520              0.7408950
SP   1   1.00
      0.2120313              1.0000000              1.0000000
D    1   1.00
      1.8260000              1.0000000
D    1   1.00
      0.4565000              1.0000000
F    1   1.00
      1.0000000              1.0000000
****
O     0
S    6   1.00
   5484.6717000              0.0018311
    825.2349500              0.0139501
    188.0469600              0.0684451
     52.9645000              0.2327143
     16.8975700              0.4701930
      5.7996353              0.3585209
SP   3   1.00
     15.5396160             -0.1107775              0.0708743
      3.5999336             -0.1480263              0.3397528
      1.0137618              1.1307670              0.7271586
SP   1   1.00
      0.2700058              1.0000000              1.0000000
D    1   1.00
      2.5840000              1.0000000
D    1   1.00
      0.6460000              1.0000000
F    1   1.00
      1.4000000              1.0000000
****
F     0
S    6   1.00
   7001.7130900              0.0018196169
   1051.3660900              0.0139160796
    239.2856900              0.0684053245
     67.3974453              0.233185760
     21.5199573              0.471267439
      7.40310130             0.356618546
SP   3   1.00
     20.8479528             -0.108506975            0.0716287243
      4.80830834            -0.146451658            0.3459121030
      1.34406986             1.128688580            0.7224699570
SP   1   1.00
      0.358151393            1.0000000              1.0000000
D    1   1.00
      3.5000000              1.0000000
D    1   1.00
      0.8750000              1.0000000
F    1   1.00
      1.8500000              1.0000000
****
Al     0
S    6   1.00
  13983.1000000              0.00194267
   2098.7500000              0.0148599
    477.7050000              0.0728494
    134.3600000              0.2468300
     42.8709000              0.4872580
     14.5189000              0.3234960
SP   6   1.00
    239.6680000             -0.00292619             0.00460285
     57.4419000             -0.0374080              0.0331990
     18.2859000             -0.1144870              0.1362820
      6.5991400              0.1156350              0.3304760
      2.4904900              0.6125950              0.4491460
      0.9445400              0.3937990              0.2657040
SP   3   1.00
      1.2779000             -0.2276060             -0.0175130
      0.3975900              0.00144583             0.2445330
      0.1600950              1.0927900              0.8049340
SP   1   1.00
      0.0556577              1.0000000              1.0000000
D    1   1.00
      0.6500000              1.0000000
D    1   1.00
      0.1625000              1.0000000
F    1   1.00
      0.2500000              1.0000000
****
Si     0
S    6   1.00
  16115.9000000              0.00195948
   2425.5800000              0.01492880
    553.8670000              0.07284780
    156.3400000              0.24613000
     50.0683000              0.48591400
     17.0178000              0.32500200
SP   6   1.00
    292.7180000             -0.00278094             0.00443826
     69.8731000             -0.03571460             0.03266790
     22.3363000             -0.11498500             0.13472100
      8.1503900              0.09356340             0.32867800
      3.1345800              0.60301700             0.44964000
      1.2254300              0.41895900             0.26137200
SP   3   1.00
      1.7273800             -0.24463000            -0.01779510
      0.5729220              0.00431572             0.25353900
      0.2221920              1.09818000             0.80066900
SP   1   1.00
      0.0778369              1.00000000             1.00000000
D    1   1.00
      0.9000000              1.0000000
D    1   1.00
      0.2250000              1.0000000
F    1   1.00
      0.3200000              1.0000000
****
P     0
S    6   1.00
  19413.3000000              0.0018516
   2909.4200000              0.0142062
    661.3640000              0.0699995
    185.7590000              0.2400790
     59.1943000              0.4847620
     20.0310000              0.3352000
SP   6   1.00
    339.4780000             -0.00278217             0.00456462
     81.0101000             -0.0360499              0.03369360
     25.8780000             -0.1166310              0.13975500
      9.4522100              0.0968328              0.33936200
      3.6656600              0.6144180              0.45092100
      1.4674600              0.4037980              0.23858600
SP   3   1.00
      2.1562300             -0.2529230             -0.01776530
      0.7489970              0.0328517              0.27405800
      0.2831450              1.0812500              0.78542100
SP   1   1.00
      0.0998317              1.0000000              1.00000000
D    1   1.00
      1.1000000              1.0000000
D    1   1.00
      0.2750000              1.0000000
F    1   1.00
      0.4500000              1.0000000
****
S     0
S    6   1.00
  21917.1000000              0.0018690
   3301.4900000              0.0142300
    754.1460000              0.0696960
    212.7110000              0.2384870
     67.9896000              0.4833070
     23.0515000              0.3380740
SP   6   1.00
    423.7350000             -0.0023767              0.0040610
    100.7100000             -0.0316930              0.0306810
     32.1599000             -0.1133170              0.1304520
     11.8079000              0.0560900              0.3272050
      4.6311000              0.5922550              0.4528510
      1.8702500              0.4550060              0.2560420
SP   3   1.00
      2.6158400             -0.2503740             -0.0145110
      0.9221670              0.0669570              0.3102630
      0.3412870              1.0545100              0.7544830
SP   1   1.00
      0.1171670              1.0000000              1.0000000
D    1   1.00
      1.3000000              1.0000000
D    1   1.00
      0.3250000              1.0000000
F    1   1.00
      0.5500000              1.0000000
****
Cl     0
S    6   1.00
  25180.1000000              0.0018330
   3780.3500000              0.0140340
    860.4740000              0.0690970
    242.1450000              0.2374520
     77.3349000              0.4830340
     26.2470000              0.3398560
SP   6   1.00
    491.7650000             -0.0022974              0.0039894
    116.9840000             -0.0307140              0.0303180
     37.4153000             -0.1125280              0.1298800
     13.7834000              0.0450160              0.3279510
      5.4521500              0.5893530              0.4535270
      2.2258800              0.4652060              0.2521540
SP   3   1.00
      3.1864900             -0.2518300             -0.0142990
      1.1442700              0.0615890              0.3235720
      0.4203770              1.0601800              0.7435070
SP   1   1.00
      0.1426570              1.0000000              1.0000000
D    1   1.00
      1.5000000              1.0000000
D    1   1.00
      0.3750000              1.0000000
F    1   1.00
      0.7000000              1.0000000
****
}

set {
reference uhf
freeze_core true
e_convergence 10
d_convergence 10
dft_spherical_points 1202
dft_radial_points 99
}

e = energy('b3lyp')

print_out('Grab this energy {0}'.format(e))
--------------------------------------------------------------------------

    Molecular point group: c1

    Geometry (in Bohr), charge = 0, multiplicity = 2:

       Center              X                  Y                   Z               Mass
    ------------   -----------------  -----------------  -----------------  -----------------
         C           -0.323340004447    -0.000002499957     0.001317767253    12.000000000000
         C            0.060311356853    -1.401862197857    -2.427216140547    12.000000000000
         C            0.061019271253     2.801759354743     0.000869483053    12.000000000000
         C            0.061968832553    -1.399893548657     2.425545492453    12.000000000000
         H            2.083930530853    -1.646021000357    -2.845260180847     1.007825032230
         H           -0.766095056147    -0.386556315857    -4.025920367947     1.007825032230
         H           -0.768593865747    -3.295168112557    -2.354769501247     1.007825032230
         H            2.086791383753     3.288108192943     0.005515020853     1.007825032230
         H           -0.767977631547     3.687295421643     1.674683968953     1.007825032230
         H           -0.763304532647     3.673212740343    -1.678288334547     1.007825032230
         H            2.089940392053    -1.642174102357     2.849627492753     1.007825032230
         H           -0.762539216747    -3.288821020257     2.343217878253     1.007825032230
         H           -0.764713240447    -0.389888999557     4.025042929753     1.007825032230

  Charge       = 0
  Multiplicity = 2
  Basis Set: ANONYMOUS5A359212
    Blend: 6-31G_2DFP_
  Basis Set: (ANONYMOUS5A359212 AUX)
    Blend: DEF2-UNIVERSAL-JKFIT

    Orbital Energies [Eh]
    ---------------------

    Alpha Occupied:

       1A    -10.180342     2A    -10.167203     3A    -10.167015
       4A    -10.166826     5A     -0.797767     6A     -0.686280
       7A     -0.686095     8A     -0.530775     9A     -0.441129
      10A     -0.434687    11A     -0.434653    12A     -0.382788
      13A     -0.382409    14A     -0.363609    15A     -0.338086
      16A     -0.337911    17A     -0.168961

    Alpha Virtual:

      18A      0.076072    19A      0.134137    20A      0.134171
      21A      0.142360    22A      0.142894    23A      0.154882
      24A      0.178601    25A      0.178952    26A      0.203553
      27A      0.214802    28A      0.275738    29A      0.276233
      30A      0.399064    31A      0.399387    32A      0.403349
      33A      0.424052    34A      0.424146    35A      0.456595
      36A      0.495341    37A      0.495437    38A      0.512161
      39A      0.513980    40A      0.578393    41A      0.579223
      42A      0.591595    43A      0.591672    44A      0.602584
      45A      0.624755    46A      0.631737    47A      0.636094
      48A      0.636454    49A      0.663405    50A      0.663421
      51A      0.683710    52A      0.683996    53A      0.734993
      54A      0.825130    55A      0.825679    56A      0.853914
      57A      0.914845    58A      0.915205    59A      0.944118
      60A      0.944590    61A      0.960539    62A      0.962072
      63A      1.003466    64A      1.127904    65A      1.128284
      66A      1.142201    67A      1.163237    68A      1.163349
      69A      1.223329    70A      1.274231    71A      1.274743
      72A      1.279363    73A      1.324279    74A      1.324427
      75A      1.355974    76A      1.365890    77A      1.366220
      78A      1.392453    79A      1.403878    80A      1.404228
      81A      1.417040    82A      1.417156    83A      1.427930
      84A      1.491507    85A      1.499059    86A      1.542565
      87A      1.543101    88A      1.573955    89A      1.574946
      90A      1.669836    91A      1.739128    92A      1.739687
      93A      1.768340    94A      1.830477    95A      1.832318
      96A      1.971711    97A      2.018039    98A      2.019012
      99A      2.019348   100A      2.052305   101A      2.052994
     102A      2.738194   103A      2.738772   104A      2.790931
     105A      2.811419   106A      2.889456   107A      2.890314
     108A      2.895100   109A      2.929212   110A      2.929785
     111A      2.958986   112A      2.964351   113A      2.964412
     114A      3.034013   115A      3.070506   116A      3.072054
     117A      3.084345   118A      3.168355   119A      3.169217
     120A      3.180577   121A      3.285159   122A      3.285480
     123A      3.325952   124A      3.328363   125A      3.375620
     126A      3.489239   127A      3.491049   128A      3.514027
     129A      3.525312   130A      3.568003   131A      3.568783
     132A      3.575168   133A      3.665726   134A      3.666951
     135A      3.679642   136A      3.693941   137A      3.694382
     138A      3.775646   139A      3.777994   140A      3.789150
     141A      3.911838   142A      3.912625   143A      4.034455
     144A      4.110223   145A      4.112487   146A      4.147260
     147A      4.148956   148A      4.173252   149A      4.202096
     150A      4.202965   151A      4.203767   152A      4.210842
     153A      4.315322   154A      4.316511   155A      4.359065
     156A      4.424131   157A      4.424810   158A      4.443426
     159A      4.516623   160A      4.517050   161A      4.577912
     162A      4.578606   163A      4.617556   164A      4.709392
     165A      4.772958   166A      4.776281   167A      4.836928
     168A      4.962874   169A      5.002751   170A      5.003138
     171A      5.228058   172A      5.245799   173A      5.247835
     174A      5.354736   175A      5.356271   176A      5.479358

    Beta Occupied:

       1A    -10.167958     2A    -10.167775     3A    -10.167591
       4A    -10.166519     5A     -0.781092     6A     -0.684080
       7A     -0.683900     8A     -0.511747     9A     -0.431084
      10A     -0.431009    11A     -0.421816    12A     -0.376884
      13A     -0.376483    14A     -0.362593    15A     -0.333202
      16A     -0.333042

    Beta Virtual:

      17A     -0.025744    18A      0.077081    19A      0.135025
      20A      0.135061    21A      0.144253    22A      0.144745
      23A      0.163340    24A      0.182287    25A      0.182610
      26A      0.215031    27A      0.218933    28A      0.282101
      29A      0.282566    30A      0.400241    31A      0.400555
      32A      0.419787    33A      0.426864    34A      0.426959
      35A      0.468503    36A      0.497605    37A      0.497694
      38A      0.513897    39A      0.556325    40A      0.583938
      41A      0.584781    42A      0.597794    43A      0.597832
      44A      0.610005    45A      0.628133    46A      0.631907
      47A      0.639394    48A      0.639711    49A      0.666962
      50A      0.666991    51A      0.686340    52A      0.686636
      53A      0.757516    54A      0.830279    55A      0.830866
      56A      0.855268    57A      0.922807    58A      0.923185
      59A      0.945955    60A      0.953508    61A      0.965920
      62A      0.967317    63A      1.008705    64A      1.132052
      65A      1.132193    66A      1.155577    67A      1.168197
      68A      1.168537    69A      1.232302    70A      1.279843
      71A      1.280326    72A      1.285115    73A      1.329280
      74A      1.329405    75A      1.365381    76A      1.371151
      77A      1.371458    78A      1.393512    79A      1.407358
      80A      1.407669    81A      1.422086    82A      1.422202
      83A      1.428212    84A      1.492556    85A      1.509499
      86A      1.547075    87A      1.547413    88A      1.581737
      89A      1.582905    90A      1.674683    91A      1.744881
      92A      1.745462    93A      1.779116    94A      1.834340
      95A      1.836167    96A      1.972572    97A      2.025328
      98A      2.025570    99A      2.039673   100A      2.059008
     101A      2.059726   102A      2.746535   103A      2.747105
     104A      2.811833   105A      2.816065   106A      2.902239
     107A      2.903024   108A      2.924682   109A      2.931694
     110A      2.932272   111A      2.960054   112A      2.968875
     113A      2.968971   114A      3.041948   115A      3.080382
     116A      3.081997   117A      3.086163   118A      3.184073
     119A      3.185004   120A      3.188253   121A      3.289896
     122A      3.290340   123A      3.329785   124A      3.332140
     125A      3.383438   126A      3.491974   127A      3.493775
     128A      3.512393   129A      3.528364   130A      3.575023
     131A      3.581509   132A      3.581948   133A      3.670754
     134A      3.671485   135A      3.692918   136A      3.725482
     137A      3.726064   138A      3.780195   139A      3.782509
     140A      3.817686   141A      3.921665   142A      3.922430
     143A      4.045342   144A      4.117126   145A      4.119221
     146A      4.154525   147A      4.156107   148A      4.187306
     149A      4.208497   150A      4.209289   151A      4.210892
     152A      4.215315   153A      4.322707   154A      4.324000
     155A      4.362433   156A      4.432381   157A      4.432988
     158A      4.446315   159A      4.524410   160A      4.524843
     161A      4.588498   162A      4.589219   163A      4.624751
     164A      4.719733   165A      4.779926   166A      4.783224
     167A      4.839845   168A      4.967669   169A      5.006815
     170A      5.007153   171A      5.233773   172A      5.247578
     173A      5.249626   174A      5.361202   175A      5.362765
     176A      5.481680

    Final Occupation by Irrep:
              A
    DOCC [    16 ]
    SOCC [     1 ]

  @DF-UKS Final Energy:  -157.81306381165297

   => Energetics <=

    Nuclear Repulsion Energy =            125.3946284048764142
    One-Electron Energy =                -458.7489049746600358
    Two-Electron Energy =                 195.8483567315688845
    DFT Exchange-Correlation Energy =     -20.3071439734382224
    Empirical Dispersion Energy =           0.0000000000000000
    VV10 Nonlocal Energy =                  0.0000000000000000
    Total Energy =                       -157.8130638116529667

  UHF NO Occupations:
  HONO-2 :   15  A 1.9996008
  HONO-1 :   16  A 1.9989804
  HONO-0 :   17  A 1.0000000
  LUNO+0 :   18  A 0.0010196
  LUNO+1 :   19  A 0.0003992
  LUNO+2 :   20  A 0.0001977
  LUNO+3 :   21  A 0.0001974

Computation Completed

Properties will be evaluated at   0.000000,   0.000000,   0.000000 [a0]

Properties computed using the SCF density matrix

  Nuclear Dipole Moment: [e a0]
     X:     0.8272      Y:    -0.0000      Z:    -0.0031

  Electronic Dipole Moment: [e a0]
     X:    -0.7493      Y:     0.0000      Z:     0.0023

  Dipole Moment: [e a0]
     X:     0.0779      Y:     0.0000      Z:    -0.0007     Total:     0.0779

  Dipole Moment: [D]
     X:     0.1980      Y:     0.0000      Z:    -0.0019     Total:     0.1980

*** tstop() called on n036 at Fri Nov  5 15:17:45 2021
Module time:
	user time   =     634.57 seconds =      10.58 minutes
	system time =      12.02 seconds =       0.20 minutes
	total time  =        163 seconds =       2.72 minutes
Total time:
	user time   =     634.57 seconds =      10.58 minutes
	system time =      12.02 seconds =       0.20 minutes
	total time  =        163 seconds =       2.72 minutes
Grab this energy -157.81306381165297
    Psi4 stopped on: Friday, 05 November 2021 03:17PM
    Psi4 wall time for execution: 0:02:42.57

*** Psi4 exiting successfully. Buy a developer a beer!
