                               Psi4 1.4a2.dev629

  ==> Input File <==

--------------------------------------------------------------------------
import os
memory 14 GB

molecule {
 C   -0.3265084346   -0.0000021231    0.0000017734
 C    0.0598154793   -1.4009286618   -2.4265593743
 C    0.0596951682    2.8019388702    0.0000464924
 C    0.0598144881   -1.4010060243    2.4265128856
 H    2.0872672088   -1.6401962397   -2.8499968254
 H   -0.7683907679   -0.3895966901   -4.0246713966
 H   -0.7605286991   -3.2938323215   -2.3473824317
 H    2.0871264607    3.2883661738    0.0046530718
 H   -0.7686278657    3.6802412672    1.6749075443
 H   -0.7606118508    3.6797752618   -1.6788862938
 H    2.0872635426   -1.6482622870    2.8453409946
 H   -0.7685556690   -3.2906084509    2.3497706718
 H   -0.7603669373   -0.3859130880    4.0262628879
units bohr
0 2
}

basis {

assign 6-31g_2dfp_

[ 6-31g_2dfp_ ]

spherical

!----------------------------------------------------------------------
! Basis Set Exchange
! Version v0.8.13
! https://www.basissetexchange.org
!----------------------------------------------------------------------
!   Basis set: 6-31G(2df,p)
! Description: 6-31G(2df,p)
!        Role: orbital
!     Version: 0  (Data from the original Basis Set Exchange)
!----------------------------------------------------------------------

****
H     0
S    3   1.00
     18.7311370              0.03349460
      2.8253937              0.23472695
      0.6401217              0.81375733
S    1   1.00
      0.1612778              1.00000000
P    1   1.00
      1.5000000              1.0000000
P    1   1.00
      0.3750000              1.0000000
****
B     0
S    6   1.00
   2068.8823000              0.0018663
    310.6495700              0.0142515
     70.6830330              0.0695516
     19.8610800              0.2325729
      6.2993048              0.4670787
      2.1270270              0.3634314
SP   3   1.00
      4.7279710             -0.1303938              0.0745976
      1.1903377             -0.1307889              0.3078467
      0.3594117              1.1309444              0.7434568
SP   1   1.00
      0.1267512              1.0000000              1.0000000
D    1   1.00
      0.8020000              1.0000000
D    1   1.00
      0.2005000              1.0000000
F    1   1.00
      0.5000000              1.0000000
****
C     0
S    6   1.00
   3047.5249000              0.0018347
    457.3695100              0.0140373
    103.9486900              0.0688426
     29.2101550              0.2321844
      9.2866630              0.4679413
      3.1639270              0.3623120
SP   3   1.00
      7.8682724             -0.1193324              0.0689991
      1.8812885             -0.1608542              0.3164240
      0.5442493              1.1434564              0.7443083
SP   1   1.00
      0.1687144              1.0000000              1.0000000
D    1   1.00
      1.2520000              1.0000000
D    1   1.00
      0.3130000              1.0000000
F    1   1.00
      0.8000000              1.0000000
****
N     0
S    6   1.00
   4173.5110000              0.0018348
    627.4579000              0.0139950
    142.9021000              0.0685870
     40.2343300              0.2322410
     12.8202100              0.4690700
      4.3904370              0.3604550
SP   3   1.00
     11.6263580             -0.1149610              0.0675800
      2.7162800             -0.1691180              0.3239070
      0.7722180              1.1458520              0.7408950
SP   1   1.00
      0.2120313              1.0000000              1.0000000
D    1   1.00
      1.8260000              1.0000000
D    1   1.00
      0.4565000              1.0000000
F    1   1.00
      1.0000000              1.0000000
****
O     0
S    6   1.00
   5484.6717000              0.0018311
    825.2349500              0.0139501
    188.0469600              0.0684451
     52.9645000              0.2327143
     16.8975700              0.4701930
      5.7996353              0.3585209
SP   3   1.00
     15.5396160             -0.1107775              0.0708743
      3.5999336             -0.1480263              0.3397528
      1.0137618              1.1307670              0.7271586
SP   1   1.00
      0.2700058              1.0000000              1.0000000
D    1   1.00
      2.5840000              1.0000000
D    1   1.00
      0.6460000              1.0000000
F    1   1.00
      1.4000000              1.0000000
****
F     0
S    6   1.00
   7001.7130900              0.0018196169
   1051.3660900              0.0139160796
    239.2856900              0.0684053245
     67.3974453              0.233185760
     21.5199573              0.471267439
      7.40310130             0.356618546
SP   3   1.00
     20.8479528             -0.108506975            0.0716287243
      4.80830834            -0.146451658            0.3459121030
      1.34406986             1.128688580            0.7224699570
SP   1   1.00
      0.358151393            1.0000000              1.0000000
D    1   1.00
      3.5000000              1.0000000
D    1   1.00
      0.8750000              1.0000000
F    1   1.00
      1.8500000              1.0000000
****
Al     0
S    6   1.00
  13983.1000000              0.00194267
   2098.7500000              0.0148599
    477.7050000              0.0728494
    134.3600000              0.2468300
     42.8709000              0.4872580
     14.5189000              0.3234960
SP   6   1.00
    239.6680000             -0.00292619             0.00460285
     57.4419000             -0.0374080              0.0331990
     18.2859000             -0.1144870              0.1362820
      6.5991400              0.1156350              0.3304760
      2.4904900              0.6125950              0.4491460
      0.9445400              0.3937990              0.2657040
SP   3   1.00
      1.2779000             -0.2276060             -0.0175130
      0.3975900              0.00144583             0.2445330
      0.1600950              1.0927900              0.8049340
SP   1   1.00
      0.0556577              1.0000000              1.0000000
D    1   1.00
      0.6500000              1.0000000
D    1   1.00
      0.1625000              1.0000000
F    1   1.00
      0.2500000              1.0000000
****
Si     0
S    6   1.00
  16115.9000000              0.00195948
   2425.5800000              0.01492880
    553.8670000              0.07284780
    156.3400000              0.24613000
     50.0683000              0.48591400
     17.0178000              0.32500200
SP   6   1.00
    292.7180000             -0.00278094             0.00443826
     69.8731000             -0.03571460             0.03266790
     22.3363000             -0.11498500             0.13472100
      8.1503900              0.09356340             0.32867800
      3.1345800              0.60301700             0.44964000
      1.2254300              0.41895900             0.26137200
SP   3   1.00
      1.7273800             -0.24463000            -0.01779510
      0.5729220              0.00431572             0.25353900
      0.2221920              1.09818000             0.80066900
SP   1   1.00
      0.0778369              1.00000000             1.00000000
D    1   1.00
      0.9000000              1.0000000
D    1   1.00
      0.2250000              1.0000000
F    1   1.00
      0.3200000              1.0000000
****
P     0
S    6   1.00
  19413.3000000              0.0018516
   2909.4200000              0.0142062
    661.3640000              0.0699995
    185.7590000              0.2400790
     59.1943000              0.4847620
     20.0310000              0.3352000
SP   6   1.00
    339.4780000             -0.00278217             0.00456462
     81.0101000             -0.0360499              0.03369360
     25.8780000             -0.1166310              0.13975500
      9.4522100              0.0968328              0.33936200
      3.6656600              0.6144180              0.45092100
      1.4674600              0.4037980              0.23858600
SP   3   1.00
      2.1562300             -0.2529230             -0.01776530
      0.7489970              0.0328517              0.27405800
      0.2831450              1.0812500              0.78542100
SP   1   1.00
      0.0998317              1.0000000              1.00000000
D    1   1.00
      1.1000000              1.0000000
D    1   1.00
      0.2750000              1.0000000
F    1   1.00
      0.4500000              1.0000000
****
S     0
S    6   1.00
  21917.1000000              0.0018690
   3301.4900000              0.0142300
    754.1460000              0.0696960
    212.7110000              0.2384870
     67.9896000              0.4833070
     23.0515000              0.3380740
SP   6   1.00
    423.7350000             -0.0023767              0.0040610
    100.7100000             -0.0316930              0.0306810
     32.1599000             -0.1133170              0.1304520
     11.8079000              0.0560900              0.3272050
      4.6311000              0.5922550              0.4528510
      1.8702500              0.4550060              0.2560420
SP   3   1.00
      2.6158400             -0.2503740             -0.0145110
      0.9221670              0.0669570              0.3102630
      0.3412870              1.0545100              0.7544830
SP   1   1.00
      0.1171670              1.0000000              1.0000000
D    1   1.00
      1.3000000              1.0000000
D    1   1.00
      0.3250000              1.0000000
F    1   1.00
      0.5500000              1.0000000
****
Cl     0
S    6   1.00
  25180.1000000              0.0018330
   3780.3500000              0.0140340
    860.4740000              0.0690970
    242.1450000              0.2374520
     77.3349000              0.4830340
     26.2470000              0.3398560
SP   6   1.00
    491.7650000             -0.0022974              0.0039894
    116.9840000             -0.0307140              0.0303180
     37.4153000             -0.1125280              0.1298800
     13.7834000              0.0450160              0.3279510
      5.4521500              0.5893530              0.4535270
      2.2258800              0.4652060              0.2521540
SP   3   1.00
      3.1864900             -0.2518300             -0.0142990
      1.1442700              0.0615890              0.3235720
      0.4203770              1.0601800              0.7435070
SP   1   1.00
      0.1426570              1.0000000              1.0000000
D    1   1.00
      1.5000000              1.0000000
D    1   1.00
      0.3750000              1.0000000
F    1   1.00
      0.7000000              1.0000000
****
}

set {
reference uhf
freeze_core true
e_convergence 10
d_convergence 10
dft_spherical_points 1202
dft_radial_points 99
}

e = energy('b3lyp')

print_out('Grab this energy {0}'.format(e))
--------------------------------------------------------------------------

    Molecular point group: c1

    Geometry (in Bohr), charge = 0, multiplicity = 2:

       Center              X                  Y                   Z               Mass
    ------------   -----------------  -----------------  -----------------  -----------------
         C           -0.325132580843    -0.000002090705     0.000001431118    12.000000000000
         C            0.061191333057    -1.400928629405    -2.426559716582    12.000000000000
         C            0.061071021957     2.801938902595     0.000046150118    12.000000000000
         C            0.061190341857    -1.401005991905     2.426512543318    12.000000000000
         H            2.088643062557    -1.640196207305    -2.849997167682     1.007825032230
         H           -0.767014914143    -0.389596657705    -4.024671738882     1.007825032230
         H           -0.759152845343    -3.293832289105    -2.347382773982     1.007825032230
         H            2.088502314457     3.288366206195     0.004652729518     1.007825032230
         H           -0.767252011943     3.680241299595     1.674907202018     1.007825032230
         H           -0.759235997043     3.679775294195    -1.678886636082     1.007825032230
         H            2.088639396357    -1.648262254605     2.845340652318     1.007825032230
         H           -0.767179815243    -3.290608418505     2.349770329518     1.007825032230
         H           -0.758991083543    -0.385913055605     4.026262545618     1.007825032230

  Charge       = 0
  Multiplicity = 2
  Basis Set: ANONYMOUSAB084E61
    Blend: 6-31G_2DFP_
  Basis Set: (ANONYMOUSAB084E61 AUX)
    Blend: DEF2-UNIVERSAL-JKFIT

    Orbital Energies [Eh]
    ---------------------

    Alpha Occupied:

       1A    -10.180455     2A    -10.167054     3A    -10.167054
       4A    -10.167008     5A     -0.797712     6A     -0.686174
       7A     -0.686174     8A     -0.530797     9A     -0.440888
      10A     -0.434817    11A     -0.434816    12A     -0.382352
      13A     -0.382351    14A     -0.363893    15A     -0.338048
      16A     -0.338048    17A     -0.169076

    Alpha Virtual:

      18A      0.076090    19A      0.134161    20A      0.134162
      21A      0.142711    22A      0.142712    23A      0.154814
      24A      0.178674    25A      0.178674    26A      0.203500
      27A      0.214934    28A      0.275846    29A      0.275848
      30A      0.399209    31A      0.399214    32A      0.403303
      33A      0.424091    34A      0.424091    35A      0.456589
      36A      0.495441    37A      0.495442    38A      0.512044
      39A      0.513996    40A      0.578903    41A      0.578912
      42A      0.591329    43A      0.591331    44A      0.602259
      45A      0.624904    46A      0.631920    47A      0.636374
      48A      0.636378    49A      0.663240    50A      0.663240
      51A      0.683874    52A      0.683876    53A      0.734865
      54A      0.825232    55A      0.825235    56A      0.853962
      57A      0.914856    58A      0.914862    59A      0.943922
      60A      0.944685    61A      0.961380    62A      0.961397
      63A      1.004345    64A      1.128326    65A      1.128339
      66A      1.141852    67A      1.163125    68A      1.163137
      69A      1.222903    70A      1.274199    71A      1.274202
      72A      1.279200    73A      1.324469    74A      1.324471
      75A      1.354950    76A      1.366396    77A      1.366401
      78A      1.392547    79A      1.403425    80A      1.403427
      81A      1.416506    82A      1.416512    83A      1.427726
      84A      1.491929    85A      1.498603    86A      1.543208
      87A      1.543211    88A      1.574540    89A      1.574543
      90A      1.670359    91A      1.739202    92A      1.739214
      93A      1.768106    94A      1.831721    95A      1.831722
      96A      1.972282    97A      2.018030    98A      2.018737
      99A      2.018740   100A      2.052263   101A      2.052265
     102A      2.738155   103A      2.738156   104A      2.790699
     105A      2.811701   106A      2.889774   107A      2.889780
     108A      2.894979   109A      2.929644   110A      2.929652
     111A      2.959160   112A      2.964335   113A      2.964349
     114A      3.033968   115A      3.070658   116A      3.070671
     117A      3.084413   118A      3.168761   119A      3.168768
     120A      3.180776   121A      3.285664   122A      3.285664
     123A      3.328092   124A      3.328098   125A      3.375321
     126A      3.489973   127A      3.489993   128A      3.513540
     129A      3.525495   130A      3.567957   131A      3.567977
     132A      3.574701   133A      3.666378   134A      3.666386
     135A      3.680683   136A      3.693825   137A      3.693841
     138A      3.775913   139A      3.775939   140A      3.787798
     141A      3.912322   142A      3.912328   143A      4.033287
     144A      4.111751   145A      4.111756   146A      4.148350
     147A      4.148358   148A      4.173102   149A      4.202267
     150A      4.202750   151A      4.202753   152A      4.210743
     153A      4.315747   154A      4.315767   155A      4.359068
     156A      4.423820   157A      4.423823   158A      4.444317
     159A      4.516978   160A      4.516979   161A      4.578367
     162A      4.578379   163A      4.616658   164A      4.709030
     165A      4.774338   166A      4.774346   167A      4.836667
     168A      4.962925   169A      5.002236   170A      5.002248
     171A      5.227978   172A      5.246820   173A      5.246820
     174A      5.355946   175A      5.355959   176A      5.478831

    Beta Occupied:

       1A    -10.167806     2A    -10.167806     3A    -10.167782
       4A    -10.166634     5A     -0.781053     6A     -0.683981
       7A     -0.683980     8A     -0.511773     9A     -0.431199
      10A     -0.431198    11A     -0.421579    12A     -0.376425
      13A     -0.376424    14A     -0.362879    15A     -0.333168
      16A     -0.333168

    Beta Virtual:

      17A     -0.025891    18A      0.077100    19A      0.135084
      20A      0.135084    21A      0.144572    22A      0.144572
      23A      0.163305    24A      0.182334    25A      0.182334
      26A      0.215159    27A      0.218862    28A      0.282205
      29A      0.282208    30A      0.400383    31A      0.400387
      32A      0.419810    33A      0.426898    34A      0.426899
      35A      0.468434    36A      0.497701    37A      0.497702
      38A      0.513795    39A      0.556282    40A      0.584444
      41A      0.584452    42A      0.597525    43A      0.597526
      44A      0.609708    45A      0.628247    46A      0.632075
      47A      0.639644    48A      0.639648    49A      0.666831
      50A      0.666831    51A      0.686507    52A      0.686508
      53A      0.757395    54A      0.830421    55A      0.830423
      56A      0.855317    57A      0.922831    58A      0.922838
      59A      0.945841    60A      0.953498    61A      0.966668
      62A      0.966684    63A      1.009633    64A      1.132249
      65A      1.132261    66A      1.155243    67A      1.168259
      68A      1.168271    69A      1.231868    70A      1.279813
      71A      1.279817    72A      1.284946    73A      1.329517
      74A      1.329519    75A      1.364344    76A      1.371643
      77A      1.371647    78A      1.393620    79A      1.406872
      80A      1.406875    81A      1.421541    82A      1.421548
      83A      1.427976    84A      1.492997    85A      1.509010
      86A      1.547725    87A      1.547726    88A      1.582309
      89A      1.582310    90A      1.675191    91A      1.744972
      92A      1.744983    93A      1.778893    94A      1.835570
      95A      1.835571    96A      1.973140    97A      2.025103
      98A      2.025106    99A      2.039428   100A      2.059000
     101A      2.059001   102A      2.746493   103A      2.746494
     104A      2.812060   105A      2.815836   106A      2.902476
     107A      2.902482   108A      2.924605   109A      2.932097
     110A      2.932106   111A      2.960222   112A      2.968895
     113A      2.968909   114A      3.041942   115A      3.080593
     116A      3.080605   117A      3.086235   118A      3.184441
     119A      3.184445   120A      3.188513   121A      3.290420
     122A      3.290420   123A      3.331912   124A      3.331917
     125A      3.383101   126A      3.492712   127A      3.492732
     128A      3.511910   129A      3.528500   130A      3.574555
     131A      3.581365   132A      3.581387   133A      3.671053
     134A      3.671064   135A      3.693958   136A      3.725486
     137A      3.725502   138A      3.780477   139A      3.780503
     140A      3.816371   141A      3.922140   142A      3.922148
     143A      4.044187   144A      4.118544   145A      4.118546
     146A      4.155574   147A      4.155583   148A      4.187194
     149A      4.208685   150A      4.208688   151A      4.210221
     152A      4.215251   153A      4.323176   154A      4.323196
     155A      4.362443   156A      4.432095   157A      4.432097
     158A      4.447167   159A      4.524772   160A      4.524773
     161A      4.588945   162A      4.588957   163A      4.623777
     164A      4.719464   165A      4.781268   166A      4.781276
     167A      4.839581   168A      4.967736   169A      5.006287
     170A      5.006299   171A      5.233662   172A      5.248594
     173A      5.248594   174A      5.362409   175A      5.362423
     176A      5.481151

    Final Occupation by Irrep:
              A
    DOCC [    16 ]
    SOCC [     1 ]

  @DF-UKS Final Energy:  -157.81306702596143

   => Energetics <=

    Nuclear Repulsion Energy =            125.3858471395283516
    One-Electron Energy =                -458.7312664841851415
    Two-Electron Energy =                 195.8392388645627307
    DFT Exchange-Correlation Energy =     -20.3068865458673962
    Empirical Dispersion Energy =           0.0000000000000000
    VV10 Nonlocal Energy =                  0.0000000000000000
    Total Energy =                       -157.8130670259614305

  UHF NO Occupations:
  HONO-2 :   15  A 1.9995999
  HONO-1 :   16  A 1.9989813
  HONO-0 :   17  A 1.0000000
  LUNO+0 :   18  A 0.0010187
  LUNO+1 :   19  A 0.0004001
  LUNO+2 :   20  A 0.0001976
  LUNO+3 :   21  A 0.0001976

Computation Completed

Properties will be evaluated at   0.000000,   0.000000,   0.000000 [a0]

Properties computed using the SCF density matrix

  Nuclear Dipole Moment: [e a0]
     X:     0.8369      Y:    -0.0000      Z:    -0.0000

  Electronic Dipole Moment: [e a0]
     X:    -0.7591      Y:     0.0000      Z:     0.0000

  Dipole Moment: [e a0]
     X:     0.0778      Y:     0.0000      Z:    -0.0000     Total:     0.0778

  Dipole Moment: [D]
     X:     0.1977      Y:     0.0000      Z:    -0.0000     Total:     0.1977

*** tstop() called on n040 at Fri Nov  5 13:39:15 2021
Module time:
	user time   =     633.89 seconds =      10.56 minutes
	system time =      12.32 seconds =       0.21 minutes
	total time  =        162 seconds =       2.70 minutes
Total time:
	user time   =     633.89 seconds =      10.56 minutes
	system time =      12.32 seconds =       0.21 minutes
	total time  =        162 seconds =       2.70 minutes
Grab this energy -157.81306702596143
    Psi4 stopped on: Friday, 05 November 2021 01:39PM
    Psi4 wall time for execution: 0:02:42.51

*** Psi4 exiting successfully. Buy a developer a beer!
