                               Psi4 1.4a2.dev629

  ==> Input File <==

--------------------------------------------------------------------------
import os
memory 14 GB

molecule {
 C   -0.3233321010   -0.0002202857    0.0049988920
 C    0.0615802567   -1.3945432933   -2.4208063641
 C    0.0611868357    2.8040145793   -0.0062387603
 C    0.0605361756   -1.4067864523    2.4295639250
 H    2.0875703681   -1.6353348380   -2.8437269154
 H   -0.7657485756   -0.3790987681   -4.0187971446
 H   -0.7632654480   -3.2862481045   -2.3491474485
 H    2.0868731616    3.2873984117   -0.0111379710
 H   -0.7630223569    3.6871639385    1.6671933454
 H   -0.7685343032    3.6719796406   -1.6860723834
 H    2.0862226311   -1.6529167599    2.8518943962
 H   -0.7678530463   -3.2977892129    2.3495714960
 H   -0.7648214746   -0.3976431690    4.0327049327
units bohr
0 2
}

basis {

assign 6-31g_2dfp_

[ 6-31g_2dfp_ ]

spherical

!----------------------------------------------------------------------
! Basis Set Exchange
! Version v0.8.13
! https://www.basissetexchange.org
!----------------------------------------------------------------------
!   Basis set: 6-31G(2df,p)
! Description: 6-31G(2df,p)
!        Role: orbital
!     Version: 0  (Data from the original Basis Set Exchange)
!----------------------------------------------------------------------

****
H     0
S    3   1.00
     18.7311370              0.03349460
      2.8253937              0.23472695
      0.6401217              0.81375733
S    1   1.00
      0.1612778              1.00000000
P    1   1.00
      1.5000000              1.0000000
P    1   1.00
      0.3750000              1.0000000
****
B     0
S    6   1.00
   2068.8823000              0.0018663
    310.6495700              0.0142515
     70.6830330              0.0695516
     19.8610800              0.2325729
      6.2993048              0.4670787
      2.1270270              0.3634314
SP   3   1.00
      4.7279710             -0.1303938              0.0745976
      1.1903377             -0.1307889              0.3078467
      0.3594117              1.1309444              0.7434568
SP   1   1.00
      0.1267512              1.0000000              1.0000000
D    1   1.00
      0.8020000              1.0000000
D    1   1.00
      0.2005000              1.0000000
F    1   1.00
      0.5000000              1.0000000
****
C     0
S    6   1.00
   3047.5249000              0.0018347
    457.3695100              0.0140373
    103.9486900              0.0688426
     29.2101550              0.2321844
      9.2866630              0.4679413
      3.1639270              0.3623120
SP   3   1.00
      7.8682724             -0.1193324              0.0689991
      1.8812885             -0.1608542              0.3164240
      0.5442493              1.1434564              0.7443083
SP   1   1.00
      0.1687144              1.0000000              1.0000000
D    1   1.00
      1.2520000              1.0000000
D    1   1.00
      0.3130000              1.0000000
F    1   1.00
      0.8000000              1.0000000
****
N     0
S    6   1.00
   4173.5110000              0.0018348
    627.4579000              0.0139950
    142.9021000              0.0685870
     40.2343300              0.2322410
     12.8202100              0.4690700
      4.3904370              0.3604550
SP   3   1.00
     11.6263580             -0.1149610              0.0675800
      2.7162800             -0.1691180              0.3239070
      0.7722180              1.1458520              0.7408950
SP   1   1.00
      0.2120313              1.0000000              1.0000000
D    1   1.00
      1.8260000              1.0000000
D    1   1.00
      0.4565000              1.0000000
F    1   1.00
      1.0000000              1.0000000
****
O     0
S    6   1.00
   5484.6717000              0.0018311
    825.2349500              0.0139501
    188.0469600              0.0684451
     52.9645000              0.2327143
     16.8975700              0.4701930
      5.7996353              0.3585209
SP   3   1.00
     15.5396160             -0.1107775              0.0708743
      3.5999336             -0.1480263              0.3397528
      1.0137618              1.1307670              0.7271586
SP   1   1.00
      0.2700058              1.0000000              1.0000000
D    1   1.00
      2.5840000              1.0000000
D    1   1.00
      0.6460000              1.0000000
F    1   1.00
      1.4000000              1.0000000
****
F     0
S    6   1.00
   7001.7130900              0.0018196169
   1051.3660900              0.0139160796
    239.2856900              0.0684053245
     67.3974453              0.233185760
     21.5199573              0.471267439
      7.40310130             0.356618546
SP   3   1.00
     20.8479528             -0.108506975            0.0716287243
      4.80830834            -0.146451658            0.3459121030
      1.34406986             1.128688580            0.7224699570
SP   1   1.00
      0.358151393            1.0000000              1.0000000
D    1   1.00
      3.5000000              1.0000000
D    1   1.00
      0.8750000              1.0000000
F    1   1.00
      1.8500000              1.0000000
****
Al     0
S    6   1.00
  13983.1000000              0.00194267
   2098.7500000              0.0148599
    477.7050000              0.0728494
    134.3600000              0.2468300
     42.8709000              0.4872580
     14.5189000              0.3234960
SP   6   1.00
    239.6680000             -0.00292619             0.00460285
     57.4419000             -0.0374080              0.0331990
     18.2859000             -0.1144870              0.1362820
      6.5991400              0.1156350              0.3304760
      2.4904900              0.6125950              0.4491460
      0.9445400              0.3937990              0.2657040
SP   3   1.00
      1.2779000             -0.2276060             -0.0175130
      0.3975900              0.00144583             0.2445330
      0.1600950              1.0927900              0.8049340
SP   1   1.00
      0.0556577              1.0000000              1.0000000
D    1   1.00
      0.6500000              1.0000000
D    1   1.00
      0.1625000              1.0000000
F    1   1.00
      0.2500000              1.0000000
****
Si     0
S    6   1.00
  16115.9000000              0.00195948
   2425.5800000              0.01492880
    553.8670000              0.07284780
    156.3400000              0.24613000
     50.0683000              0.48591400
     17.0178000              0.32500200
SP   6   1.00
    292.7180000             -0.00278094             0.00443826
     69.8731000             -0.03571460             0.03266790
     22.3363000             -0.11498500             0.13472100
      8.1503900              0.09356340             0.32867800
      3.1345800              0.60301700             0.44964000
      1.2254300              0.41895900             0.26137200
SP   3   1.00
      1.7273800             -0.24463000            -0.01779510
      0.5729220              0.00431572             0.25353900
      0.2221920              1.09818000             0.80066900
SP   1   1.00
      0.0778369              1.00000000             1.00000000
D    1   1.00
      0.9000000              1.0000000
D    1   1.00
      0.2250000              1.0000000
F    1   1.00
      0.3200000              1.0000000
****
P     0
S    6   1.00
  19413.3000000              0.0018516
   2909.4200000              0.0142062
    661.3640000              0.0699995
    185.7590000              0.2400790
     59.1943000              0.4847620
     20.0310000              0.3352000
SP   6   1.00
    339.4780000             -0.00278217             0.00456462
     81.0101000             -0.0360499              0.03369360
     25.8780000             -0.1166310              0.13975500
      9.4522100              0.0968328              0.33936200
      3.6656600              0.6144180              0.45092100
      1.4674600              0.4037980              0.23858600
SP   3   1.00
      2.1562300             -0.2529230             -0.01776530
      0.7489970              0.0328517              0.27405800
      0.2831450              1.0812500              0.78542100
SP   1   1.00
      0.0998317              1.0000000              1.00000000
D    1   1.00
      1.1000000              1.0000000
D    1   1.00
      0.2750000              1.0000000
F    1   1.00
      0.4500000              1.0000000
****
S     0
S    6   1.00
  21917.1000000              0.0018690
   3301.4900000              0.0142300
    754.1460000              0.0696960
    212.7110000              0.2384870
     67.9896000              0.4833070
     23.0515000              0.3380740
SP   6   1.00
    423.7350000             -0.0023767              0.0040610
    100.7100000             -0.0316930              0.0306810
     32.1599000             -0.1133170              0.1304520
     11.8079000              0.0560900              0.3272050
      4.6311000              0.5922550              0.4528510
      1.8702500              0.4550060              0.2560420
SP   3   1.00
      2.6158400             -0.2503740             -0.0145110
      0.9221670              0.0669570              0.3102630
      0.3412870              1.0545100              0.7544830
SP   1   1.00
      0.1171670              1.0000000              1.0000000
D    1   1.00
      1.3000000              1.0000000
D    1   1.00
      0.3250000              1.0000000
F    1   1.00
      0.5500000              1.0000000
****
Cl     0
S    6   1.00
  25180.1000000              0.0018330
   3780.3500000              0.0140340
    860.4740000              0.0690970
    242.1450000              0.2374520
     77.3349000              0.4830340
     26.2470000              0.3398560
SP   6   1.00
    491.7650000             -0.0022974              0.0039894
    116.9840000             -0.0307140              0.0303180
     37.4153000             -0.1125280              0.1298800
     13.7834000              0.0450160              0.3279510
      5.4521500              0.5893530              0.4535270
      2.2258800              0.4652060              0.2521540
SP   3   1.00
      3.1864900             -0.2518300             -0.0142990
      1.1442700              0.0615890              0.3235720
      0.4203770              1.0601800              0.7435070
SP   1   1.00
      0.1426570              1.0000000              1.0000000
D    1   1.00
      1.5000000              1.0000000
D    1   1.00
      0.3750000              1.0000000
F    1   1.00
      0.7000000              1.0000000
****
}

set {
reference uhf
freeze_core true
e_convergence 10
d_convergence 10
dft_spherical_points 1202
dft_radial_points 99
}

e = energy('b3lyp')

print_out('Grab this energy {0}'.format(e))
--------------------------------------------------------------------------

    Molecular point group: c1

    Geometry (in Bohr), charge = 0, multiplicity = 2:

       Center              X                  Y                   Z               Mass
    ------------   -----------------  -----------------  -----------------  -----------------
         C           -0.323334248924    -0.000694546034     0.003550930258    12.000000000000
         C            0.061578108776    -1.395017553634    -2.422254325842    12.000000000000
         C            0.061184687776     2.803540318966    -0.007686722042    12.000000000000
         C            0.060534027676    -1.407260712634     2.428115963258    12.000000000000
         H            2.087568220176    -1.635809098334    -2.845174877142     1.007825032230
         H           -0.765750723524    -0.379573028434    -4.020245106342     1.007825032230
         H           -0.763267595924    -3.286722364834    -2.350595410242     1.007825032230
         H            2.086871013676     3.286924151366    -0.012585932742     1.007825032230
         H           -0.763024504824     3.686689678166     1.665745383658     1.007825032230
         H           -0.768536451124     3.671505380266    -1.687520345142     1.007825032230
         H            2.086220483176    -1.653391020234     2.850446434458     1.007825032230
         H           -0.767855194224    -3.298263473234     2.348123534258     1.007825032230
         H           -0.764823622524    -0.398117429334     4.031256970958     1.007825032230

  Charge       = 0
  Multiplicity = 2
  Basis Set: ANONYMOUS2BD25B9B
    Blend: 6-31G_2DFP_
  Basis Set: (ANONYMOUS2BD25B9B AUX)
    Blend: DEF2-UNIVERSAL-JKFIT

    Orbital Energies [Eh]
    ---------------------

    Alpha Occupied:

       1A    -10.180341     2A    -10.167307     3A    -10.166974
       4A    -10.166764     5A     -0.797769     6A     -0.686407
       7A     -0.685964     8A     -0.530777     9A     -0.441126
      10A     -0.434949    11A     -0.434393    12A     -0.382769
      13A     -0.382428    14A     -0.363612    15A     -0.338341
      16A     -0.337653    17A     -0.168961

    Alpha Virtual:

      18A      0.076072    19A      0.133915    20A      0.134394
      21A      0.142477    22A      0.142779    23A      0.154880
      24A      0.178541    25A      0.179017    26A      0.203542
      27A      0.214807    28A      0.275706    29A      0.276267
      30A      0.399066    31A      0.399322    32A      0.403417
      33A      0.423960    34A      0.424245    35A      0.456595
      36A      0.494986    37A      0.495784    38A      0.512172
      39A      0.513988    40A      0.578552    41A      0.579052
      42A      0.591569    43A      0.591709    44A      0.602576
      45A      0.624768    46A      0.631764    47A      0.635982
      48A      0.636523    49A      0.663187    50A      0.663639
      51A      0.683611    52A      0.684098    53A      0.734993
      54A      0.824576    55A      0.826226    56A      0.853914
      57A      0.914787    58A      0.915268    59A      0.944052
      60A      0.944517    61A      0.961127    62A      0.961664
      63A      1.003469    64A      1.126955    65A      1.129277
      66A      1.142222    67A      1.162705    68A      1.163829
      69A      1.223332    70A      1.273903    71A      1.275070
      72A      1.279376    73A      1.324244    74A      1.324465
      75A      1.355990    76A      1.365276    77A      1.366783
      78A      1.392431    79A      1.403245    80A      1.404916
      81A      1.416594    82A      1.417643    83A      1.427942
      84A      1.491432    85A      1.499065    86A      1.542468
      87A      1.543199    88A      1.572626    89A      1.576373
      90A      1.669817    91A      1.738336    92A      1.740469
      93A      1.768347    94A      1.830686    95A      1.832124
      96A      1.971725    97A      2.017460    98A      2.018338
      99A      2.020561   100A      2.050048   101A      2.055337
     102A      2.738194   103A      2.738776   104A      2.790921
     105A      2.811439   106A      2.889811   107A      2.890080
     108A      2.894951   109A      2.929305   110A      2.929680
     111A      2.958985   112A      2.963495   113A      2.965290
     114A      3.034011   115A      3.070263   116A      3.072279
     117A      3.084382   118A      3.168017   119A      3.169567
     120A      3.180580   121A      3.284602   122A      3.286013
     123A      3.326198   124A      3.328133   125A      3.375661
     126A      3.489524   127A      3.490712   128A      3.514034
     129A      3.525306   130A      3.567175   131A      3.569482
     132A      3.575359   133A      3.665695   134A      3.667056
     135A      3.679672   136A      3.693625   137A      3.694596
     138A      3.775922   139A      3.777585   140A      3.789297
     141A      3.910622   142A      3.913838   143A      4.034472
     144A      4.110009   145A      4.112756   146A      4.146423
     147A      4.149780   148A      4.173234   149A      4.201329
     150A      4.202630   151A      4.204790   152A      4.210983
     153A      4.315209   154A      4.316668   155A      4.359002
     156A      4.423423   157A      4.425279   158A      4.443642
     159A      4.515802   160A      4.517908   161A      4.577196
     162A      4.579334   163A      4.617541   164A      4.709440
     165A      4.773220   166A      4.775947   167A      4.836958
     168A      4.962826   169A      5.001766   170A      5.004198
     171A      5.228025   172A      5.246567   173A      5.247078
     174A      5.354794   175A      5.356208   176A      5.479328

    Beta Occupied:

       1A    -10.168065     2A    -10.167730     3A    -10.167530
       4A    -10.166518     5A     -0.781095     6A     -0.684214
       7A     -0.683762     8A     -0.511748     9A     -0.431329
      10A     -0.430756    11A     -0.421823    12A     -0.376873
      13A     -0.376494    14A     -0.362595    15A     -0.333468
      16A     -0.332773

    Beta Virtual:

      17A     -0.025743    18A      0.077081    19A      0.134795
      20A      0.135294    21A      0.144360    22A      0.144638
      23A      0.163340    24A      0.182207    25A      0.182694
      26A      0.215037    27A      0.218925    28A      0.282053
      29A      0.282615    30A      0.400280    31A      0.400507
      32A      0.419800    33A      0.426756    34A      0.427071
      35A      0.468506    36A      0.497242    37A      0.498053
      38A      0.513907    39A      0.556328    40A      0.584130
      41A      0.584577    42A      0.597742    43A      0.597892
      44A      0.609997    45A      0.628148    46A      0.631925
      47A      0.639254    48A      0.639818    49A      0.666723
      50A      0.667228    51A      0.686195    52A      0.686786
      53A      0.757516    54A      0.829733    55A      0.831405
      56A      0.855268    57A      0.922745    58A      0.923251
      59A      0.945911    60A      0.953431    61A      0.966382
      62A      0.967018    63A      1.008706    64A      1.130991
      65A      1.133306    66A      1.155584    67A      1.167748
      68A      1.168941    69A      1.232302    70A      1.279494
      71A      1.280675    72A      1.285129    73A      1.329228
      74A      1.329461    75A      1.365406    76A      1.370421
      77A      1.372116    78A      1.393494    79A      1.406756
      80A      1.408345    81A      1.421637    82A      1.422684
      83A      1.428222    84A      1.492483    85A      1.509508
      86A      1.546771    87A      1.547707    88A      1.580643
      89A      1.584101    90A      1.674663    91A      1.744102
      92A      1.746227    93A      1.779126    94A      1.834535
      95A      1.835985    96A      1.972588    97A      2.023867
      98A      2.027024    99A      2.039632   100A      2.056848
     101A      2.061976   102A      2.746495   103A      2.747146
     104A      2.811851   105A      2.816056   106A      2.902549
     107A      2.902725   108A      2.924647   109A      2.931877
     110A      2.932079   111A      2.960054   112A      2.968062
     113A      2.969804   114A      3.041947   115A      3.080004
     116A      3.082234   117A      3.086332   118A      3.183858
     119A      3.185149   120A      3.188324   121A      3.289469
     122A      3.290748   123A      3.329997   124A      3.331944
     125A      3.383478   126A      3.492238   127A      3.493451
     128A      3.512411   129A      3.528359   130A      3.574747
     131A      3.580814   132A      3.582988   133A      3.670408
     134A      3.671842   135A      3.692967   136A      3.725293
     137A      3.726182   138A      3.780448   139A      3.782189
     140A      3.817762   141A      3.920463   142A      3.923631
     143A      4.045359   144A      4.116814   145A      4.119578
     146A      4.153704   147A      4.156923   148A      4.187292
     149A      4.207256   150A      4.210248   151A      4.211049
     152A      4.215497   153A      4.322620   154A      4.324135
     155A      4.362365   156A      4.431629   157A      4.433430
     158A      4.446604   159A      4.523670   160A      4.525611
     161A      4.587717   162A      4.590016   163A      4.624735
     164A      4.719786   165A      4.780139   166A      4.782931
     167A      4.839879   168A      4.967620   169A      5.005816
     170A      5.008227   171A      5.233738   172A      5.248355
     173A      5.248861   174A      5.361254   175A      5.362709
     176A      5.481650

    Final Occupation by Irrep:
              A
    DOCC [    16 ]
    SOCC [     1 ]

  @DF-UKS Final Energy:  -157.81306275998290

   => Energetics <=

    Nuclear Repulsion Energy =            125.3948365324889096
    One-Electron Energy =                -458.7493208160648237
    Two-Electron Energy =                 195.8485674368325249
    DFT Exchange-Correlation Energy =     -20.3071459132394985
    Empirical Dispersion Energy =           0.0000000000000000
    VV10 Nonlocal Energy =                  0.0000000000000000
    Total Energy =                       -157.8130627599828983

  UHF NO Occupations:
  HONO-2 :   15  A 1.9996009
  HONO-1 :   16  A 1.9989804
  HONO-0 :   17  A 1.0000000
  LUNO+0 :   18  A 0.0010196
  LUNO+1 :   19  A 0.0003991
  LUNO+2 :   20  A 0.0001980
  LUNO+3 :   21  A 0.0001970

Computation Completed

Properties will be evaluated at   0.000000,   0.000000,   0.000000 [a0]

Properties computed using the SCF density matrix

  Nuclear Dipole Moment: [e a0]
     X:     0.8272      Y:    -0.0034      Z:    -0.0102

  Electronic Dipole Moment: [e a0]
     X:    -0.7493      Y:     0.0034      Z:     0.0109

  Dipole Moment: [e a0]
     X:     0.0779      Y:     0.0001      Z:     0.0007     Total:     0.0779

  Dipole Moment: [D]
     X:     0.1980      Y:     0.0002      Z:     0.0019     Total:     0.1980

*** tstop() called on n036 at Fri Nov  5 13:06:15 2021
Module time:
	user time   =     635.41 seconds =      10.59 minutes
	system time =      12.20 seconds =       0.20 minutes
	total time  =        163 seconds =       2.72 minutes
Total time:
	user time   =     635.41 seconds =      10.59 minutes
	system time =      12.20 seconds =       0.20 minutes
	total time  =        163 seconds =       2.72 minutes
Grab this energy -157.8130627599829
    Psi4 stopped on: Friday, 05 November 2021 01:06PM
    Psi4 wall time for execution: 0:02:42.81

*** Psi4 exiting successfully. Buy a developer a beer!
