                               Psi4 1.4a2.dev629

  ==> Input File <==

--------------------------------------------------------------------------
import os
memory 14 GB

molecule {
 C   -0.3233413800   -0.0000020507   -0.0000000012
 C    0.0611391444   -1.4015727545   -2.4259795718
 C    0.0610192812    2.8017595349   -0.0008026168
 C    0.0611390140   -1.4001825004    2.4267820044
 H    2.0869338747   -1.6421911762   -2.8485447597
 H   -0.7645337477   -0.3892742652   -4.0299216815
 H   -0.7664358128   -3.2886780419   -2.3458642729
 H    2.0867950314    3.2881061201    0.0022030853
 H   -0.7647748348    3.6846255308    1.6778084030
 H   -0.7665132616    3.6758878647   -1.6751853571
 H    2.0869340290   -1.6460074313    2.8463425747
 H   -0.7646968052   -3.2953183277    2.3521192546
 H   -0.7662724094   -0.3871768162    4.0210429390
units bohr
0 2
}

basis {

assign 6-31g_2dfp_

[ 6-31g_2dfp_ ]

spherical

!----------------------------------------------------------------------
! Basis Set Exchange
! Version v0.8.13
! https://www.basissetexchange.org
!----------------------------------------------------------------------
!   Basis set: 6-31G(2df,p)
! Description: 6-31G(2df,p)
!        Role: orbital
!     Version: 0  (Data from the original Basis Set Exchange)
!----------------------------------------------------------------------

****
H     0
S    3   1.00
     18.7311370              0.03349460
      2.8253937              0.23472695
      0.6401217              0.81375733
S    1   1.00
      0.1612778              1.00000000
P    1   1.00
      1.5000000              1.0000000
P    1   1.00
      0.3750000              1.0000000
****
B     0
S    6   1.00
   2068.8823000              0.0018663
    310.6495700              0.0142515
     70.6830330              0.0695516
     19.8610800              0.2325729
      6.2993048              0.4670787
      2.1270270              0.3634314
SP   3   1.00
      4.7279710             -0.1303938              0.0745976
      1.1903377             -0.1307889              0.3078467
      0.3594117              1.1309444              0.7434568
SP   1   1.00
      0.1267512              1.0000000              1.0000000
D    1   1.00
      0.8020000              1.0000000
D    1   1.00
      0.2005000              1.0000000
F    1   1.00
      0.5000000              1.0000000
****
C     0
S    6   1.00
   3047.5249000              0.0018347
    457.3695100              0.0140373
    103.9486900              0.0688426
     29.2101550              0.2321844
      9.2866630              0.4679413
      3.1639270              0.3623120
SP   3   1.00
      7.8682724             -0.1193324              0.0689991
      1.8812885             -0.1608542              0.3164240
      0.5442493              1.1434564              0.7443083
SP   1   1.00
      0.1687144              1.0000000              1.0000000
D    1   1.00
      1.2520000              1.0000000
D    1   1.00
      0.3130000              1.0000000
F    1   1.00
      0.8000000              1.0000000
****
N     0
S    6   1.00
   4173.5110000              0.0018348
    627.4579000              0.0139950
    142.9021000              0.0685870
     40.2343300              0.2322410
     12.8202100              0.4690700
      4.3904370              0.3604550
SP   3   1.00
     11.6263580             -0.1149610              0.0675800
      2.7162800             -0.1691180              0.3239070
      0.7722180              1.1458520              0.7408950
SP   1   1.00
      0.2120313              1.0000000              1.0000000
D    1   1.00
      1.8260000              1.0000000
D    1   1.00
      0.4565000              1.0000000
F    1   1.00
      1.0000000              1.0000000
****
O     0
S    6   1.00
   5484.6717000              0.0018311
    825.2349500              0.0139501
    188.0469600              0.0684451
     52.9645000              0.2327143
     16.8975700              0.4701930
      5.7996353              0.3585209
SP   3   1.00
     15.5396160             -0.1107775              0.0708743
      3.5999336             -0.1480263              0.3397528
      1.0137618              1.1307670              0.7271586
SP   1   1.00
      0.2700058              1.0000000              1.0000000
D    1   1.00
      2.5840000              1.0000000
D    1   1.00
      0.6460000              1.0000000
F    1   1.00
      1.4000000              1.0000000
****
F     0
S    6   1.00
   7001.7130900              0.0018196169
   1051.3660900              0.0139160796
    239.2856900              0.0684053245
     67.3974453              0.233185760
     21.5199573              0.471267439
      7.40310130             0.356618546
SP   3   1.00
     20.8479528             -0.108506975            0.0716287243
      4.80830834            -0.146451658            0.3459121030
      1.34406986             1.128688580            0.7224699570
SP   1   1.00
      0.358151393            1.0000000              1.0000000
D    1   1.00
      3.5000000              1.0000000
D    1   1.00
      0.8750000              1.0000000
F    1   1.00
      1.8500000              1.0000000
****
Al     0
S    6   1.00
  13983.1000000              0.00194267
   2098.7500000              0.0148599
    477.7050000              0.0728494
    134.3600000              0.2468300
     42.8709000              0.4872580
     14.5189000              0.3234960
SP   6   1.00
    239.6680000             -0.00292619             0.00460285
     57.4419000             -0.0374080              0.0331990
     18.2859000             -0.1144870              0.1362820
      6.5991400              0.1156350              0.3304760
      2.4904900              0.6125950              0.4491460
      0.9445400              0.3937990              0.2657040
SP   3   1.00
      1.2779000             -0.2276060             -0.0175130
      0.3975900              0.00144583             0.2445330
      0.1600950              1.0927900              0.8049340
SP   1   1.00
      0.0556577              1.0000000              1.0000000
D    1   1.00
      0.6500000              1.0000000
D    1   1.00
      0.1625000              1.0000000
F    1   1.00
      0.2500000              1.0000000
****
Si     0
S    6   1.00
  16115.9000000              0.00195948
   2425.5800000              0.01492880
    553.8670000              0.07284780
    156.3400000              0.24613000
     50.0683000              0.48591400
     17.0178000              0.32500200
SP   6   1.00
    292.7180000             -0.00278094             0.00443826
     69.8731000             -0.03571460             0.03266790
     22.3363000             -0.11498500             0.13472100
      8.1503900              0.09356340             0.32867800
      3.1345800              0.60301700             0.44964000
      1.2254300              0.41895900             0.26137200
SP   3   1.00
      1.7273800             -0.24463000            -0.01779510
      0.5729220              0.00431572             0.25353900
      0.2221920              1.09818000             0.80066900
SP   1   1.00
      0.0778369              1.00000000             1.00000000
D    1   1.00
      0.9000000              1.0000000
D    1   1.00
      0.2250000              1.0000000
F    1   1.00
      0.3200000              1.0000000
****
P     0
S    6   1.00
  19413.3000000              0.0018516
   2909.4200000              0.0142062
    661.3640000              0.0699995
    185.7590000              0.2400790
     59.1943000              0.4847620
     20.0310000              0.3352000
SP   6   1.00
    339.4780000             -0.00278217             0.00456462
     81.0101000             -0.0360499              0.03369360
     25.8780000             -0.1166310              0.13975500
      9.4522100              0.0968328              0.33936200
      3.6656600              0.6144180              0.45092100
      1.4674600              0.4037980              0.23858600
SP   3   1.00
      2.1562300             -0.2529230             -0.01776530
      0.7489970              0.0328517              0.27405800
      0.2831450              1.0812500              0.78542100
SP   1   1.00
      0.0998317              1.0000000              1.00000000
D    1   1.00
      1.1000000              1.0000000
D    1   1.00
      0.2750000              1.0000000
F    1   1.00
      0.4500000              1.0000000
****
S     0
S    6   1.00
  21917.1000000              0.0018690
   3301.4900000              0.0142300
    754.1460000              0.0696960
    212.7110000              0.2384870
     67.9896000              0.4833070
     23.0515000              0.3380740
SP   6   1.00
    423.7350000             -0.0023767              0.0040610
    100.7100000             -0.0316930              0.0306810
     32.1599000             -0.1133170              0.1304520
     11.8079000              0.0560900              0.3272050
      4.6311000              0.5922550              0.4528510
      1.8702500              0.4550060              0.2560420
SP   3   1.00
      2.6158400             -0.2503740             -0.0145110
      0.9221670              0.0669570              0.3102630
      0.3412870              1.0545100              0.7544830
SP   1   1.00
      0.1171670              1.0000000              1.0000000
D    1   1.00
      1.3000000              1.0000000
D    1   1.00
      0.3250000              1.0000000
F    1   1.00
      0.5500000              1.0000000
****
Cl     0
S    6   1.00
  25180.1000000              0.0018330
   3780.3500000              0.0140340
    860.4740000              0.0690970
    242.1450000              0.2374520
     77.3349000              0.4830340
     26.2470000              0.3398560
SP   6   1.00
    491.7650000             -0.0022974              0.0039894
    116.9840000             -0.0307140              0.0303180
     37.4153000             -0.1125280              0.1298800
     13.7834000              0.0450160              0.3279510
      5.4521500              0.5893530              0.4535270
      2.2258800              0.4652060              0.2521540
SP   3   1.00
      3.1864900             -0.2518300             -0.0142990
      1.1442700              0.0615890              0.3235720
      0.4203770              1.0601800              0.7435070
SP   1   1.00
      0.1426570              1.0000000              1.0000000
D    1   1.00
      1.5000000              1.0000000
D    1   1.00
      0.3750000              1.0000000
F    1   1.00
      0.7000000              1.0000000
****
}

set {
reference uhf
freeze_core true
e_convergence 10
d_convergence 10
dft_spherical_points 1202
dft_radial_points 99
}

e = energy('b3lyp')

print_out('Grab this energy {0}'.format(e))
--------------------------------------------------------------------------

    Molecular point group: c1

    Geometry (in Bohr), charge = 0, multiplicity = 2:

       Center              X                  Y                   Z               Mass
    ------------   -----------------  -----------------  -----------------  -----------------
         C           -0.323340618130    -0.000002050718     0.000000034509    12.000000000000
         C            0.061139906270    -1.401572754518    -2.425979536091    12.000000000000
         C            0.061020043070     2.801759534882    -0.000802581091    12.000000000000
         C            0.061139775870    -1.400182500418     2.426782040109    12.000000000000
         H            2.086934636570    -1.642191176218    -2.848544723991     1.007825032230
         H           -0.764532985830    -0.389274265218    -4.029921645791     1.007825032230
         H           -0.766435050930    -3.288678041918    -2.345864237191     1.007825032230
         H            2.086795793270     3.288106120082     0.002203121009     1.007825032230
         H           -0.764774072930     3.684625530782     1.677808438709     1.007825032230
         H           -0.766512499730     3.675887864682    -1.675185321391     1.007825032230
         H            2.086934790870    -1.646007431318     2.846342610409     1.007825032230
         H           -0.764696043330    -3.295318327718     2.352119290309     1.007825032230
         H           -0.766271647530    -0.387176816218     4.021042974709     1.007825032230

  Charge       = 0
  Multiplicity = 2
  Basis Set: ANONYMOUSB0B267C5
    Blend: 6-31G_2DFP_
  Basis Set: (ANONYMOUSB0B267C5 AUX)
    Blend: DEF2-UNIVERSAL-JKFIT

    Orbital Energies [Eh]
    ---------------------

    Alpha Occupied:

       1A    -10.180342     2A    -10.167030     3A    -10.167030
       4A    -10.166985     5A     -0.797766     6A     -0.686188
       7A     -0.686187     8A     -0.530776     9A     -0.441126
      10A     -0.434675    11A     -0.434674    12A     -0.382598
      13A     -0.382596    14A     -0.363609    15A     -0.337998
      16A     -0.337998    17A     -0.168961

    Alpha Virtual:

      18A      0.076072    19A      0.134150    20A      0.134151
      21A      0.142629    22A      0.142629    23A      0.154878
      24A      0.178781    25A      0.178781    26A      0.203538
      27A      0.214810    28A      0.275983    29A      0.275985
      30A      0.399227    31A      0.399231    32A      0.403343
      33A      0.424097    34A      0.424097    35A      0.456593
      36A      0.495391    37A      0.495392    38A      0.512148
      39A      0.513991    40A      0.578811    41A      0.578819
      42A      0.591633    43A      0.591635    44A      0.602570
      45A      0.624620    46A      0.631923    47A      0.636245
      48A      0.636248    49A      0.663410    50A      0.663411
      51A      0.683857    52A      0.683858    53A      0.734992
      54A      0.825406    55A      0.825408    56A      0.853916
      57A      0.915022    58A      0.915028    59A      0.944038
      60A      0.944689    61A      0.961282    62A      0.961299
      63A      1.003469    64A      1.128093    65A      1.128106
      66A      1.142218    67A      1.163267    68A      1.163279
      69A      1.223318    70A      1.274501    71A      1.274505
      72A      1.279350    73A      1.324351    74A      1.324353
      75A      1.355948    76A      1.366047    77A      1.366052
      78A      1.392475    79A      1.404021    80A      1.404023
      81A      1.417127    82A      1.417134    83A      1.427916
      84A      1.491439    85A      1.499148    86A      1.542826
      87A      1.542829    88A      1.574448    89A      1.574451
      90A      1.669824    91A      1.739421    92A      1.739432
      93A      1.768330    94A      1.831394    95A      1.831394
      96A      1.971732    97A      2.018312    98A      2.019051
      99A      2.019055   100A      2.052641   101A      2.052642
     102A      2.738484   103A      2.738484   104A      2.790921
     105A      2.811429   106A      2.889951   107A      2.889957
     108A      2.894932   109A      2.929494   110A      2.929503
     111A      2.959001   112A      2.964377   113A      2.964391
     114A      3.034019   115A      3.071275   116A      3.071289
     117A      3.084340   118A      3.168783   119A      3.168791
     120A      3.180582   121A      3.285314   122A      3.285314
     123A      3.327167   124A      3.327173   125A      3.375623
     126A      3.490138   127A      3.490158   128A      3.513804
     129A      3.525544   130A      3.568371   131A      3.568391
     132A      3.575159   133A      3.666391   134A      3.666399
     135A      3.679655   136A      3.694079   137A      3.694095
     138A      3.776851   139A      3.776877   140A      3.789116
     141A      3.912233   142A      3.912239   143A      4.034460
     144A      4.111368   145A      4.111372   146A      4.148118
     147A      4.148126   148A      4.173226   149A      4.202639
     150A      4.203061   151A      4.203065   152A      4.210846
     153A      4.315931   154A      4.315951   155A      4.358936
     156A      4.424445   157A      4.424447   158A      4.443438
     159A      4.516854   160A      4.516855   161A      4.578265
     162A      4.578278   163A      4.617562   164A      4.709460
     165A      4.774599   166A      4.774607   167A      4.836879
     168A      4.962893   169A      5.002937   170A      5.002949
     171A      5.228041   172A      5.246835   173A      5.246835
     174A      5.355503   175A      5.355516   176A      5.479361

    Beta Occupied:

       1A    -10.167783     2A    -10.167783     3A    -10.167758
       4A    -10.166520     5A     -0.781091     6A     -0.683990
       7A     -0.683990     8A     -0.511747     9A     -0.431045
      10A     -0.431045    11A     -0.421825    12A     -0.376683
      13A     -0.376681    14A     -0.362592    15A     -0.333121
      16A     -0.333121

    Beta Virtual:

      17A     -0.025743    18A      0.077081    19A      0.135039
      20A      0.135040    21A      0.144500    22A      0.144501
      23A      0.163338    24A      0.182451    25A      0.182452
      26A      0.215009    27A      0.218951    28A      0.282331
      29A      0.282333    30A      0.400396    31A      0.400400
      32A      0.419790    33A      0.426908    34A      0.426909
      35A      0.468501    36A      0.497651    37A      0.497652
      38A      0.513895    39A      0.556325    40A      0.584360
      41A      0.584368    42A      0.597813    43A      0.597814
      44A      0.609991    45A      0.627905    46A      0.632172
      47A      0.639531    48A      0.639535    49A      0.666974
      50A      0.666975    51A      0.686491    52A      0.686493
      53A      0.757515    54A      0.830574    55A      0.830577
      56A      0.855269    57A      0.922993    58A      0.922999
      59A      0.945940    60A      0.953554    61A      0.966588
      62A      0.966604    63A      1.008708    64A      1.132119
      65A      1.132131    66A      1.155597    67A      1.168343
      68A      1.168356    69A      1.232291    70A      1.280097
      71A      1.280101    72A      1.285102    73A      1.329340
      74A      1.329342    75A      1.365355    76A      1.371289
      77A      1.371294    78A      1.393543    79A      1.407492
      80A      1.407495    81A      1.422173    82A      1.422180
      83A      1.428186    84A      1.492515    85A      1.509561
      86A      1.547234    87A      1.547235    88A      1.582321
      89A      1.582322    90A      1.674671    91A      1.745182
      92A      1.745193    93A      1.779110    94A      1.835250
      95A      1.835250    96A      1.972596    97A      2.025454
      98A      2.025457    99A      2.039682   100A      2.059355
     101A      2.059356   102A      2.746819   103A      2.746820
     104A      2.811829   105A      2.816069   106A      2.902638
     107A      2.902644   108A      2.924636   109A      2.931974
     110A      2.931983   111A      2.960070   112A      2.968922
     113A      2.968937   114A      3.041953   115A      3.081187
     116A      3.081199   117A      3.086156   118A      3.184539
     119A      3.184544   120A      3.188256   121A      3.290112
     122A      3.290112   123A      3.330972   124A      3.330978
     125A      3.383440   126A      3.492870   127A      3.492890
     128A      3.512226   129A      3.528531   130A      3.575022
     131A      3.581703   132A      3.581725   133A      3.671127
     134A      3.671139   135A      3.692948   136A      3.725723
     137A      3.725739   138A      3.781379   139A      3.781405
     140A      3.817663   141A      3.922048   142A      3.922056
     143A      4.045347   144A      4.118184   145A      4.118186
     146A      4.155325   147A      4.155334   148A      4.187287
     149A      4.209000   150A      4.209003   151A      4.210606
     152A      4.215319   153A      4.323372   154A      4.323392
     155A      4.362301   156A      4.432663   157A      4.432666
     158A      4.446317   159A      4.524642   160A      4.524643
     161A      4.588868   162A      4.588880   163A      4.624752
     164A      4.719804   165A      4.781553   166A      4.781560
     167A      4.839797   168A      4.967687   169A      5.006976
     170A      5.006989   171A      5.233757   172A      5.248620
     173A      5.248620   174A      5.361982   175A      5.361995
     176A      5.481682

    Final Occupation by Irrep:
              A
    DOCC [    16 ]
    SOCC [     1 ]

  @DF-UKS Final Energy:  -157.81306115900608

   => Energetics <=

    Nuclear Repulsion Energy =            125.3946134297590334
    One-Electron Energy =                -458.7488651570445768
    Two-Electron Energy =                 195.8483350454502556
    DFT Exchange-Correlation Energy =     -20.3071444771707910
    Empirical Dispersion Energy =           0.0000000000000000
    VV10 Nonlocal Energy =                  0.0000000000000000
    Total Energy =                       -157.8130611590060823

  UHF NO Occupations:
  HONO-2 :   15  A 1.9996009
  HONO-1 :   16  A 1.9989805
  HONO-0 :   17  A 1.0000000
  LUNO+0 :   18  A 0.0010195
  LUNO+1 :   19  A 0.0003991
  LUNO+2 :   20  A 0.0001975
  LUNO+3 :   21  A 0.0001975

Computation Completed

Properties will be evaluated at   0.000000,   0.000000,   0.000000 [a0]

Properties computed using the SCF density matrix

  Nuclear Dipole Moment: [e a0]
     X:     0.8272      Y:    -0.0000      Z:     0.0000

  Electronic Dipole Moment: [e a0]
     X:    -0.7493      Y:     0.0000      Z:    -0.0000

  Dipole Moment: [e a0]
     X:     0.0779      Y:     0.0000      Z:     0.0000     Total:     0.0779

  Dipole Moment: [D]
     X:     0.1981      Y:     0.0000      Z:     0.0000     Total:     0.1981

*** tstop() called on n083 at Fri Nov  5 12:49:00 2021
Module time:
	user time   =     466.54 seconds =       7.78 minutes
	system time =       4.39 seconds =       0.07 minutes
	total time  =        118 seconds =       1.97 minutes
Total time:
	user time   =     466.54 seconds =       7.78 minutes
	system time =       4.39 seconds =       0.07 minutes
	total time  =        118 seconds =       1.97 minutes
Grab this energy -157.81306115900608
    Psi4 stopped on: Friday, 05 November 2021 12:49PM
    Psi4 wall time for execution: 0:01:58.45

*** Psi4 exiting successfully. Buy a developer a beer!
