                               Psi4 1.4a2.dev629

  ==> Input File <==

--------------------------------------------------------------------------
import os
memory 14 GB

molecule {
 C   -0.3233409556    0.0004916702    0.0004972032
 C    0.0622826216   -1.4007574933   -2.4258582199
 C    0.0611174780    2.8026167797    0.0003839411
 C    0.0598990431   -1.4005090307    2.4261955062
 H    2.0854564279   -1.6442851136   -2.8475332136
 H   -0.7655163615   -0.3842482154   -4.0277956496
 H   -0.7643227432   -3.2964179037   -2.3469117803
 H    2.0826176602    3.2885980424    0.0001824165
 H   -0.7622751875    3.6792676061    1.6721559228
 H   -0.7646685780    3.6801978059   -1.6727610305
 H    2.0926001617   -1.6437017497    2.8468852041
 H   -0.7688315942   -3.2922621239    2.3499489948
 H   -0.7676258492   -0.3890145874    4.0246107052
units bohr
0 2
}

basis {

assign 6-31g_2dfp_

[ 6-31g_2dfp_ ]

spherical

!----------------------------------------------------------------------
! Basis Set Exchange
! Version v0.8.13
! https://www.basissetexchange.org
!----------------------------------------------------------------------
!   Basis set: 6-31G(2df,p)
! Description: 6-31G(2df,p)
!        Role: orbital
!     Version: 0  (Data from the original Basis Set Exchange)
!----------------------------------------------------------------------

****
H     0
S    3   1.00
     18.7311370              0.03349460
      2.8253937              0.23472695
      0.6401217              0.81375733
S    1   1.00
      0.1612778              1.00000000
P    1   1.00
      1.5000000              1.0000000
P    1   1.00
      0.3750000              1.0000000
****
B     0
S    6   1.00
   2068.8823000              0.0018663
    310.6495700              0.0142515
     70.6830330              0.0695516
     19.8610800              0.2325729
      6.2993048              0.4670787
      2.1270270              0.3634314
SP   3   1.00
      4.7279710             -0.1303938              0.0745976
      1.1903377             -0.1307889              0.3078467
      0.3594117              1.1309444              0.7434568
SP   1   1.00
      0.1267512              1.0000000              1.0000000
D    1   1.00
      0.8020000              1.0000000
D    1   1.00
      0.2005000              1.0000000
F    1   1.00
      0.5000000              1.0000000
****
C     0
S    6   1.00
   3047.5249000              0.0018347
    457.3695100              0.0140373
    103.9486900              0.0688426
     29.2101550              0.2321844
      9.2866630              0.4679413
      3.1639270              0.3623120
SP   3   1.00
      7.8682724             -0.1193324              0.0689991
      1.8812885             -0.1608542              0.3164240
      0.5442493              1.1434564              0.7443083
SP   1   1.00
      0.1687144              1.0000000              1.0000000
D    1   1.00
      1.2520000              1.0000000
D    1   1.00
      0.3130000              1.0000000
F    1   1.00
      0.8000000              1.0000000
****
N     0
S    6   1.00
   4173.5110000              0.0018348
    627.4579000              0.0139950
    142.9021000              0.0685870
     40.2343300              0.2322410
     12.8202100              0.4690700
      4.3904370              0.3604550
SP   3   1.00
     11.6263580             -0.1149610              0.0675800
      2.7162800             -0.1691180              0.3239070
      0.7722180              1.1458520              0.7408950
SP   1   1.00
      0.2120313              1.0000000              1.0000000
D    1   1.00
      1.8260000              1.0000000
D    1   1.00
      0.4565000              1.0000000
F    1   1.00
      1.0000000              1.0000000
****
O     0
S    6   1.00
   5484.6717000              0.0018311
    825.2349500              0.0139501
    188.0469600              0.0684451
     52.9645000              0.2327143
     16.8975700              0.4701930
      5.7996353              0.3585209
SP   3   1.00
     15.5396160             -0.1107775              0.0708743
      3.5999336             -0.1480263              0.3397528
      1.0137618              1.1307670              0.7271586
SP   1   1.00
      0.2700058              1.0000000              1.0000000
D    1   1.00
      2.5840000              1.0000000
D    1   1.00
      0.6460000              1.0000000
F    1   1.00
      1.4000000              1.0000000
****
F     0
S    6   1.00
   7001.7130900              0.0018196169
   1051.3660900              0.0139160796
    239.2856900              0.0684053245
     67.3974453              0.233185760
     21.5199573              0.471267439
      7.40310130             0.356618546
SP   3   1.00
     20.8479528             -0.108506975            0.0716287243
      4.80830834            -0.146451658            0.3459121030
      1.34406986             1.128688580            0.7224699570
SP   1   1.00
      0.358151393            1.0000000              1.0000000
D    1   1.00
      3.5000000              1.0000000
D    1   1.00
      0.8750000              1.0000000
F    1   1.00
      1.8500000              1.0000000
****
Al     0
S    6   1.00
  13983.1000000              0.00194267
   2098.7500000              0.0148599
    477.7050000              0.0728494
    134.3600000              0.2468300
     42.8709000              0.4872580
     14.5189000              0.3234960
SP   6   1.00
    239.6680000             -0.00292619             0.00460285
     57.4419000             -0.0374080              0.0331990
     18.2859000             -0.1144870              0.1362820
      6.5991400              0.1156350              0.3304760
      2.4904900              0.6125950              0.4491460
      0.9445400              0.3937990              0.2657040
SP   3   1.00
      1.2779000             -0.2276060             -0.0175130
      0.3975900              0.00144583             0.2445330
      0.1600950              1.0927900              0.8049340
SP   1   1.00
      0.0556577              1.0000000              1.0000000
D    1   1.00
      0.6500000              1.0000000
D    1   1.00
      0.1625000              1.0000000
F    1   1.00
      0.2500000              1.0000000
****
Si     0
S    6   1.00
  16115.9000000              0.00195948
   2425.5800000              0.01492880
    553.8670000              0.07284780
    156.3400000              0.24613000
     50.0683000              0.48591400
     17.0178000              0.32500200
SP   6   1.00
    292.7180000             -0.00278094             0.00443826
     69.8731000             -0.03571460             0.03266790
     22.3363000             -0.11498500             0.13472100
      8.1503900              0.09356340             0.32867800
      3.1345800              0.60301700             0.44964000
      1.2254300              0.41895900             0.26137200
SP   3   1.00
      1.7273800             -0.24463000            -0.01779510
      0.5729220              0.00431572             0.25353900
      0.2221920              1.09818000             0.80066900
SP   1   1.00
      0.0778369              1.00000000             1.00000000
D    1   1.00
      0.9000000              1.0000000
D    1   1.00
      0.2250000              1.0000000
F    1   1.00
      0.3200000              1.0000000
****
P     0
S    6   1.00
  19413.3000000              0.0018516
   2909.4200000              0.0142062
    661.3640000              0.0699995
    185.7590000              0.2400790
     59.1943000              0.4847620
     20.0310000              0.3352000
SP   6   1.00
    339.4780000             -0.00278217             0.00456462
     81.0101000             -0.0360499              0.03369360
     25.8780000             -0.1166310              0.13975500
      9.4522100              0.0968328              0.33936200
      3.6656600              0.6144180              0.45092100
      1.4674600              0.4037980              0.23858600
SP   3   1.00
      2.1562300             -0.2529230             -0.01776530
      0.7489970              0.0328517              0.27405800
      0.2831450              1.0812500              0.78542100
SP   1   1.00
      0.0998317              1.0000000              1.00000000
D    1   1.00
      1.1000000              1.0000000
D    1   1.00
      0.2750000              1.0000000
F    1   1.00
      0.4500000              1.0000000
****
S     0
S    6   1.00
  21917.1000000              0.0018690
   3301.4900000              0.0142300
    754.1460000              0.0696960
    212.7110000              0.2384870
     67.9896000              0.4833070
     23.0515000              0.3380740
SP   6   1.00
    423.7350000             -0.0023767              0.0040610
    100.7100000             -0.0316930              0.0306810
     32.1599000             -0.1133170              0.1304520
     11.8079000              0.0560900              0.3272050
      4.6311000              0.5922550              0.4528510
      1.8702500              0.4550060              0.2560420
SP   3   1.00
      2.6158400             -0.2503740             -0.0145110
      0.9221670              0.0669570              0.3102630
      0.3412870              1.0545100              0.7544830
SP   1   1.00
      0.1171670              1.0000000              1.0000000
D    1   1.00
      1.3000000              1.0000000
D    1   1.00
      0.3250000              1.0000000
F    1   1.00
      0.5500000              1.0000000
****
Cl     0
S    6   1.00
  25180.1000000              0.0018330
   3780.3500000              0.0140340
    860.4740000              0.0690970
    242.1450000              0.2374520
     77.3349000              0.4830340
     26.2470000              0.3398560
SP   6   1.00
    491.7650000             -0.0022974              0.0039894
    116.9840000             -0.0307140              0.0303180
     37.4153000             -0.1125280              0.1298800
     13.7834000              0.0450160              0.3279510
      5.4521500              0.5893530              0.4535270
      2.2258800              0.4652060              0.2521540
SP   3   1.00
      3.1864900             -0.2518300             -0.0142990
      1.1442700              0.0615890              0.3235720
      0.4203770              1.0601800              0.7435070
SP   1   1.00
      0.1426570              1.0000000              1.0000000
D    1   1.00
      1.5000000              1.0000000
D    1   1.00
      0.3750000              1.0000000
F    1   1.00
      0.7000000              1.0000000
****
}

set {
reference uhf
freeze_core true
e_convergence 10
d_convergence 10
dft_spherical_points 1202
dft_radial_points 99
}

e = energy('b3lyp')

print_out('Grab this energy {0}'.format(e))
--------------------------------------------------------------------------

    Molecular point group: c1

    Geometry (in Bohr), charge = 0, multiplicity = 2:

       Center              X                  Y                   Z               Mass
    ------------   -----------------  -----------------  -----------------  -----------------
         C           -0.323340603503     0.000137331363     0.000262524691    12.000000000000
         C            0.062282973697    -1.401111832137    -2.426092898409    12.000000000000
         C            0.061117830097     2.802262440863     0.000149262591    12.000000000000
         C            0.059899395197    -1.400863369537     2.425960827691    12.000000000000
         H            2.085456779997    -1.644639452437    -2.847767892109     1.007825032230
         H           -0.765516009403    -0.384602554237    -4.028030328109     1.007825032230
         H           -0.764322391103    -3.296772242537    -2.347146458809     1.007825032230
         H            2.082618012297     3.288243703563    -0.000052262009     1.007825032230
         H           -0.762274835403     3.678913267263     1.671921244291     1.007825032230
         H           -0.764668225903     3.679843467063    -1.672995709009     1.007825032230
         H            2.092600513797    -1.644056088537     2.846650525591     1.007825032230
         H           -0.768831242103    -3.292616462737     2.349714316291     1.007825032230
         H           -0.767625497103    -0.389368926237     4.024376026691     1.007825032230

  Charge       = 0
  Multiplicity = 2
  Basis Set: ANONYMOUSD9CF2137
    Blend: 6-31G_2DFP_
  Basis Set: (ANONYMOUSD9CF2137 AUX)
    Blend: DEF2-UNIVERSAL-JKFIT

    Orbital Energies [Eh]
    ---------------------

    Alpha Occupied:

       1A    -10.180342     2A    -10.167377     3A    -10.167323
       4A    -10.166344     5A     -0.797767     6A     -0.686511
       7A     -0.685866     8A     -0.530777     9A     -0.441127
      10A     -0.434760    11A     -0.434581    12A     -0.382823
      13A     -0.382373    14A     -0.363612    15A     -0.338043
      16A     -0.337954    17A     -0.168961

    Alpha Virtual:

      18A      0.076069    19A      0.133979    20A      0.134313
      21A      0.142513    22A      0.142752    23A      0.154876
      24A      0.178445    25A      0.179117    26A      0.203548
      27A      0.214806    28A      0.275898    29A      0.276073
      30A      0.399144    31A      0.399311    32A      0.403344
      33A      0.423969    34A      0.424225    35A      0.456591
      36A      0.495227    37A      0.495549    38A      0.512162
      39A      0.513980    40A      0.578604    41A      0.579022
      42A      0.591281    43A      0.591959    44A      0.602601
      45A      0.624766    46A      0.631678    47A      0.635882
      48A      0.636711    49A      0.663011    50A      0.663830
      51A      0.683504    52A      0.684221    53A      0.734995
      54A      0.825002    55A      0.825794    56A      0.853922
      57A      0.914811    58A      0.915240    59A      0.944130
      60A      0.944609    61A      0.961028    62A      0.961572
      63A      1.003454    64A      1.127784    65A      1.128432
      66A      1.142213    67A      1.163118    68A      1.163426
      69A      1.223326    70A      1.274240    71A      1.274722
      72A      1.279368    73A      1.323998    74A      1.324708
      75A      1.355946    76A      1.365780    77A      1.366320
      78A      1.392454    79A      1.403456    80A      1.404651
      81A      1.416501    82A      1.417723    83A      1.427916
      84A      1.491488    85A      1.499083    86A      1.542379
      87A      1.543304    88A      1.574125    89A      1.574773
      90A      1.669794    91A      1.739185    92A      1.739581
      93A      1.768364    94A      1.829628    95A      1.833237
      96A      1.971686    97A      2.017814    98A      2.019073
      99A      2.019492   100A      2.051760   101A      2.053604
     102A      2.737880   103A      2.739092   104A      2.790925
     105A      2.811427   106A      2.889649   107A      2.890184
     108A      2.895007   109A      2.929390   110A      2.929601
     111A      2.959008   112A      2.963773   113A      2.964996
     114A      3.034029   115A      3.071034   116A      3.071517
     117A      3.084396   118A      3.168530   119A      3.169029
     120A      3.180609   121A      3.284984   122A      3.285653
     123A      3.326952   124A      3.327370   125A      3.375619
     126A      3.489316   127A      3.490999   128A      3.514016
     129A      3.525340   130A      3.568254   131A      3.568481
     132A      3.575205   133A      3.665331   134A      3.667359
     135A      3.679643   136A      3.693645   137A      3.694658
     138A      3.776235   139A      3.777393   140A      3.789129
     141A      3.911773   142A      3.912666   143A      4.034422
     144A      4.110429   145A      4.112165   146A      4.146010
     147A      4.150075   148A      4.173305   149A      4.200453
     150A      4.202991   151A      4.205247   152A      4.211238
     153A      4.314895   154A      4.317078   155A      4.358951
     156A      4.424056   157A      4.424780   158A      4.443549
     159A      4.516106   160A      4.517558   161A      4.577817
     162A      4.578751   163A      4.617558   164A      4.709486
     165A      4.774140   166A      4.775055   167A      4.836870
     168A      4.962870   169A      5.002009   170A      5.003927
     171A      5.227803   172A      5.242582   173A      5.251005
     174A      5.352360   175A      5.358903   176A      5.479463

    Beta Occupied:

       1A    -10.168137     2A    -10.168084     3A    -10.167106
       4A    -10.166515     5A     -0.781092     6A     -0.684313
       7A     -0.683669     8A     -0.511748     9A     -0.431145
      10A     -0.430944    11A     -0.421821    12A     -0.376919
      13A     -0.376446    14A     -0.362596    15A     -0.333156
      16A     -0.333087

    Beta Virtual:

      17A     -0.025744    18A      0.077078    19A      0.134871
      20A      0.135205    21A      0.144437    22A      0.144568
      23A      0.163333    24A      0.182121    25A      0.182784
      26A      0.215035    27A      0.218930    28A      0.282242
      29A      0.282425    30A      0.400311    31A      0.400484
      32A      0.419790    33A      0.426779    34A      0.427038
      35A      0.468499    36A      0.497482    37A      0.497817
      38A      0.513897    39A      0.556324    40A      0.584162
      41A      0.584563    42A      0.597472    43A      0.598134
      44A      0.610017    45A      0.628142    46A      0.631878
      47A      0.639175    48A      0.639945    49A      0.666597
      50A      0.667373    51A      0.686178    52A      0.686816
      53A      0.757518    54A      0.830144    55A      0.830989
      56A      0.855277    57A      0.922796    58A      0.923196
      59A      0.945967    60A      0.953537    61A      0.966343
      62A      0.966868    63A      1.008694    64A      1.131799
      65A      1.132475    66A      1.155586    67A      1.168159
      68A      1.168537    69A      1.232298    70A      1.279827
      71A      1.280328    72A      1.285123    73A      1.328941
      74A      1.329743    75A      1.365349    76A      1.371038
      77A      1.371558    78A      1.393513    79A      1.406880
      80A      1.408159    81A      1.421514    82A      1.422812
      83A      1.428185    84A      1.492537    85A      1.509525
      86A      1.546790    87A      1.547705    88A      1.582012
      89A      1.582631    90A      1.674639    91A      1.744964
      92A      1.745337    93A      1.779133    94A      1.833508
      95A      1.837069    96A      1.972551    97A      2.024957
      98A      2.025914    99A      2.039667   100A      2.058526
     101A      2.060281   102A      2.746212   103A      2.747432
     104A      2.811839   105A      2.816061   106A      2.902432
     107A      2.902827   108A      2.924657   109A      2.931909
     110A      2.932046   111A      2.960072   112A      2.968281
     113A      2.969580   114A      3.041961   115A      3.080820
     116A      3.081497   117A      3.086268   118A      3.184169
     119A      3.184852   120A      3.188328   121A      3.289766
     122A      3.290468   123A      3.330735   124A      3.331196
     125A      3.383436   126A      3.492085   127A      3.493692
     128A      3.512382   129A      3.528385   130A      3.574943
     131A      3.581586   132A      3.581947   133A      3.670017
     134A      3.672185   135A      3.692966   136A      3.725266
     137A      3.726255   138A      3.780795   139A      3.781893
     140A      3.817670   141A      3.921596   142A      3.922476
     143A      4.045303   144A      4.117411   145A      4.118790
     146A      4.153452   147A      4.157093   148A      4.187345
     149A      4.207024   150A      4.209324   151A      4.212189
     152A      4.215725   153A      4.322407   154A      4.324439
     155A      4.362316   156A      4.432268   157A      4.432949
     158A      4.446481   159A      4.523910   160A      4.525336
     161A      4.588458   162A      4.589309   163A      4.624751
     164A      4.719830   165A      4.781085   166A      4.782016
     167A      4.839786   168A      4.967667   169A      5.006073
     170A      5.007941   171A      5.233507   172A      5.244386
     173A      5.252786   174A      5.358850   175A      5.365370
     176A      5.481783

    Final Occupation by Irrep:
              A
    DOCC [    16 ]
    SOCC [     1 ]

  @DF-UKS Final Energy:  -157.81304741834350

   => Energetics <=

    Nuclear Repulsion Energy =            125.3946883685774765
    One-Electron Energy =                -458.7489769266245503
    Two-Electron Energy =                 195.8483919134126552
    DFT Exchange-Correlation Energy =     -20.3071507737090862
    Empirical Dispersion Energy =           0.0000000000000000
    VV10 Nonlocal Energy =                  0.0000000000000000
    Total Energy =                       -157.8130474183435012

  UHF NO Occupations:
  HONO-2 :   15  A 1.9996008
  HONO-1 :   16  A 1.9989804
  HONO-0 :   17  A 1.0000000
  LUNO+0 :   18  A 0.0010196
  LUNO+1 :   19  A 0.0003992
  LUNO+2 :   20  A 0.0001976
  LUNO+3 :   21  A 0.0001975

Computation Completed

Properties will be evaluated at   0.000000,   0.000000,   0.000000 [a0]

Properties computed using the SCF density matrix

  Nuclear Dipole Moment: [e a0]
     X:     0.8272      Y:    -0.0025      Z:    -0.0017

  Electronic Dipole Moment: [e a0]
     X:    -0.7493      Y:     0.0050      Z:     0.0023

  Dipole Moment: [e a0]
     X:     0.0779      Y:     0.0024      Z:     0.0006     Total:     0.0780

  Dipole Moment: [D]
     X:     0.1980      Y:     0.0062      Z:     0.0016     Total:     0.1981

*** tstop() called on n089 at Fri Nov  5 14:06:55 2021
Module time:
	user time   =     504.94 seconds =       8.42 minutes
	system time =       4.62 seconds =       0.08 minutes
	total time  =        128 seconds =       2.13 minutes
Total time:
	user time   =     504.94 seconds =       8.42 minutes
	system time =       4.62 seconds =       0.08 minutes
	total time  =        128 seconds =       2.13 minutes
Grab this energy -157.8130474183435
    Psi4 stopped on: Friday, 05 November 2021 02:06PM
    Psi4 wall time for execution: 0:02:08.11

*** Psi4 exiting successfully. Buy a developer a beer!
