                               Psi4 1.4a2.dev629

  ==> Input File <==

--------------------------------------------------------------------------
import os
memory 14 GB

molecule {
 C   -0.3233404075    0.0002549769    0.0000000000
 C    0.0621654209   -1.4014509684   -2.4260445036
 C    0.0589708694    2.8017674036   -0.0000000000
 C    0.0621654209   -1.4014509684    2.4260445036
 H    2.0868370073   -1.6439231498   -2.8475444626
 H   -0.7656086870   -0.3881638507   -4.0254609917
 H   -0.7660079011   -3.2917992309   -2.3491384237
 H    2.0870019212    3.2880958903    0.0000000000
 H   -0.7650059700    3.6802659075    1.6767084805
 H   -0.7650059700    3.6802659075   -1.6767084805
 H    2.0868370073   -1.6439231498    2.8475444626
 H   -0.7660079011   -3.2917992309    2.3491384237
 H   -0.7656086870   -0.3881638507    4.0254609917
units bohr
0 2
}

basis {

assign 6-31g_2dfp_

[ 6-31g_2dfp_ ]

spherical

!----------------------------------------------------------------------
! Basis Set Exchange
! Version v0.8.13
! https://www.basissetexchange.org
!----------------------------------------------------------------------
!   Basis set: 6-31G(2df,p)
! Description: 6-31G(2df,p)
!        Role: orbital
!     Version: 0  (Data from the original Basis Set Exchange)
!----------------------------------------------------------------------

****
H     0
S    3   1.00
     18.7311370              0.03349460
      2.8253937              0.23472695
      0.6401217              0.81375733
S    1   1.00
      0.1612778              1.00000000
P    1   1.00
      1.5000000              1.0000000
P    1   1.00
      0.3750000              1.0000000
****
B     0
S    6   1.00
   2068.8823000              0.0018663
    310.6495700              0.0142515
     70.6830330              0.0695516
     19.8610800              0.2325729
      6.2993048              0.4670787
      2.1270270              0.3634314
SP   3   1.00
      4.7279710             -0.1303938              0.0745976
      1.1903377             -0.1307889              0.3078467
      0.3594117              1.1309444              0.7434568
SP   1   1.00
      0.1267512              1.0000000              1.0000000
D    1   1.00
      0.8020000              1.0000000
D    1   1.00
      0.2005000              1.0000000
F    1   1.00
      0.5000000              1.0000000
****
C     0
S    6   1.00
   3047.5249000              0.0018347
    457.3695100              0.0140373
    103.9486900              0.0688426
     29.2101550              0.2321844
      9.2866630              0.4679413
      3.1639270              0.3623120
SP   3   1.00
      7.8682724             -0.1193324              0.0689991
      1.8812885             -0.1608542              0.3164240
      0.5442493              1.1434564              0.7443083
SP   1   1.00
      0.1687144              1.0000000              1.0000000
D    1   1.00
      1.2520000              1.0000000
D    1   1.00
      0.3130000              1.0000000
F    1   1.00
      0.8000000              1.0000000
****
N     0
S    6   1.00
   4173.5110000              0.0018348
    627.4579000              0.0139950
    142.9021000              0.0685870
     40.2343300              0.2322410
     12.8202100              0.4690700
      4.3904370              0.3604550
SP   3   1.00
     11.6263580             -0.1149610              0.0675800
      2.7162800             -0.1691180              0.3239070
      0.7722180              1.1458520              0.7408950
SP   1   1.00
      0.2120313              1.0000000              1.0000000
D    1   1.00
      1.8260000              1.0000000
D    1   1.00
      0.4565000              1.0000000
F    1   1.00
      1.0000000              1.0000000
****
O     0
S    6   1.00
   5484.6717000              0.0018311
    825.2349500              0.0139501
    188.0469600              0.0684451
     52.9645000              0.2327143
     16.8975700              0.4701930
      5.7996353              0.3585209
SP   3   1.00
     15.5396160             -0.1107775              0.0708743
      3.5999336             -0.1480263              0.3397528
      1.0137618              1.1307670              0.7271586
SP   1   1.00
      0.2700058              1.0000000              1.0000000
D    1   1.00
      2.5840000              1.0000000
D    1   1.00
      0.6460000              1.0000000
F    1   1.00
      1.4000000              1.0000000
****
F     0
S    6   1.00
   7001.7130900              0.0018196169
   1051.3660900              0.0139160796
    239.2856900              0.0684053245
     67.3974453              0.233185760
     21.5199573              0.471267439
      7.40310130             0.356618546
SP   3   1.00
     20.8479528             -0.108506975            0.0716287243
      4.80830834            -0.146451658            0.3459121030
      1.34406986             1.128688580            0.7224699570
SP   1   1.00
      0.358151393            1.0000000              1.0000000
D    1   1.00
      3.5000000              1.0000000
D    1   1.00
      0.8750000              1.0000000
F    1   1.00
      1.8500000              1.0000000
****
Al     0
S    6   1.00
  13983.1000000              0.00194267
   2098.7500000              0.0148599
    477.7050000              0.0728494
    134.3600000              0.2468300
     42.8709000              0.4872580
     14.5189000              0.3234960
SP   6   1.00
    239.6680000             -0.00292619             0.00460285
     57.4419000             -0.0374080              0.0331990
     18.2859000             -0.1144870              0.1362820
      6.5991400              0.1156350              0.3304760
      2.4904900              0.6125950              0.4491460
      0.9445400              0.3937990              0.2657040
SP   3   1.00
      1.2779000             -0.2276060             -0.0175130
      0.3975900              0.00144583             0.2445330
      0.1600950              1.0927900              0.8049340
SP   1   1.00
      0.0556577              1.0000000              1.0000000
D    1   1.00
      0.6500000              1.0000000
D    1   1.00
      0.1625000              1.0000000
F    1   1.00
      0.2500000              1.0000000
****
Si     0
S    6   1.00
  16115.9000000              0.00195948
   2425.5800000              0.01492880
    553.8670000              0.07284780
    156.3400000              0.24613000
     50.0683000              0.48591400
     17.0178000              0.32500200
SP   6   1.00
    292.7180000             -0.00278094             0.00443826
     69.8731000             -0.03571460             0.03266790
     22.3363000             -0.11498500             0.13472100
      8.1503900              0.09356340             0.32867800
      3.1345800              0.60301700             0.44964000
      1.2254300              0.41895900             0.26137200
SP   3   1.00
      1.7273800             -0.24463000            -0.01779510
      0.5729220              0.00431572             0.25353900
      0.2221920              1.09818000             0.80066900
SP   1   1.00
      0.0778369              1.00000000             1.00000000
D    1   1.00
      0.9000000              1.0000000
D    1   1.00
      0.2250000              1.0000000
F    1   1.00
      0.3200000              1.0000000
****
P     0
S    6   1.00
  19413.3000000              0.0018516
   2909.4200000              0.0142062
    661.3640000              0.0699995
    185.7590000              0.2400790
     59.1943000              0.4847620
     20.0310000              0.3352000
SP   6   1.00
    339.4780000             -0.00278217             0.00456462
     81.0101000             -0.0360499              0.03369360
     25.8780000             -0.1166310              0.13975500
      9.4522100              0.0968328              0.33936200
      3.6656600              0.6144180              0.45092100
      1.4674600              0.4037980              0.23858600
SP   3   1.00
      2.1562300             -0.2529230             -0.01776530
      0.7489970              0.0328517              0.27405800
      0.2831450              1.0812500              0.78542100
SP   1   1.00
      0.0998317              1.0000000              1.00000000
D    1   1.00
      1.1000000              1.0000000
D    1   1.00
      0.2750000              1.0000000
F    1   1.00
      0.4500000              1.0000000
****
S     0
S    6   1.00
  21917.1000000              0.0018690
   3301.4900000              0.0142300
    754.1460000              0.0696960
    212.7110000              0.2384870
     67.9896000              0.4833070
     23.0515000              0.3380740
SP   6   1.00
    423.7350000             -0.0023767              0.0040610
    100.7100000             -0.0316930              0.0306810
     32.1599000             -0.1133170              0.1304520
     11.8079000              0.0560900              0.3272050
      4.6311000              0.5922550              0.4528510
      1.8702500              0.4550060              0.2560420
SP   3   1.00
      2.6158400             -0.2503740             -0.0145110
      0.9221670              0.0669570              0.3102630
      0.3412870              1.0545100              0.7544830
SP   1   1.00
      0.1171670              1.0000000              1.0000000
D    1   1.00
      1.3000000              1.0000000
D    1   1.00
      0.3250000              1.0000000
F    1   1.00
      0.5500000              1.0000000
****
Cl     0
S    6   1.00
  25180.1000000              0.0018330
   3780.3500000              0.0140340
    860.4740000              0.0690970
    242.1450000              0.2374520
     77.3349000              0.4830340
     26.2470000              0.3398560
SP   6   1.00
    491.7650000             -0.0022974              0.0039894
    116.9840000             -0.0307140              0.0303180
     37.4153000             -0.1125280              0.1298800
     13.7834000              0.0450160              0.3279510
      5.4521500              0.5893530              0.4535270
      2.2258800              0.4652060              0.2521540
SP   3   1.00
      3.1864900             -0.2518300             -0.0142990
      1.1442700              0.0615890              0.3235720
      0.4203770              1.0601800              0.7435070
SP   1   1.00
      0.1426570              1.0000000              1.0000000
D    1   1.00
      1.5000000              1.0000000
D    1   1.00
      0.3750000              1.0000000
F    1   1.00
      0.7000000              1.0000000
****
}

set {
reference uhf
freeze_core true
e_convergence 10
d_convergence 10
dft_spherical_points 1202
dft_radial_points 99
}

e = energy('b3lyp')

print_out('Grab this energy {0}'.format(e))
--------------------------------------------------------------------------

    Molecular point group: cs

    Geometry (in Bohr), charge = 0, multiplicity = 2:

       Center              X                  Y                   Z               Mass
    ------------   -----------------  -----------------  -----------------  -----------------
         C           -0.323340655683     0.000424815144     0.000000000000    12.000000000000
         C            0.062165172717    -1.401281130156    -2.426044503600    12.000000000000
         C            0.058970621217     2.801937241844     0.000000000000    12.000000000000
         C            0.062165172717    -1.401281130156     2.426044503600    12.000000000000
         H            2.086836759117    -1.643753311556    -2.847544462600     1.007825032230
         H           -0.765608935183    -0.387994012456    -4.025460991700     1.007825032230
         H           -0.766008149283    -3.291629392656    -2.349138423700     1.007825032230
         H            2.087001673017     3.288265728544     0.000000000000     1.007825032230
         H           -0.765006218183     3.680435745744     1.676708480500     1.007825032230
         H           -0.765006218183     3.680435745744    -1.676708480500     1.007825032230
         H            2.086836759117    -1.643753311556     2.847544462600     1.007825032230
         H           -0.766008149283    -3.291629392656     2.349138423700     1.007825032230
         H           -0.765608935183    -0.387994012456     4.025460991700     1.007825032230

  Charge       = 0
  Multiplicity = 2
  Basis Set: ANONYMOUS11C97245
    Blend: 6-31G_2DFP_
  Basis Set: (ANONYMOUS11C97245 AUX)
    Blend: DEF2-UNIVERSAL-JKFIT

    Orbital Energies [Eh]
    ---------------------

    Alpha Occupied:

       1Ap   -10.180342     2Ap   -10.167054     1App  -10.167014
       3Ap   -10.166977     4Ap    -0.797765     5Ap    -0.686220
       2App   -0.686153     6Ap    -0.530776     7Ap    -0.441125
       3App   -0.434772     8Ap    -0.434568     4App   -0.382749
       9Ap    -0.382449     5App   -0.363612    10Ap    -0.338084
       6App   -0.337914    11Ap    -0.168961

    Alpha Virtual:

      12Ap     0.076072    13Ap     0.134122     7App    0.134190
      14Ap     0.142565     8App    0.142691    15Ap     0.154879
      16Ap     0.178665     9App    0.178892    17Ap     0.203547
      10App    0.214802    11App    0.275930    18Ap     0.276041
      12App    0.399074    19Ap     0.399380    20Ap     0.403347
      13App    0.424049    21Ap     0.424145    22Ap     0.456593
      14App    0.495361    23Ap     0.495418    15App    0.512160
      24Ap     0.513979    25Ap     0.578728    16App    0.578908
      26Ap     0.591512    17App    0.591753    27Ap     0.602571
      28Ap     0.624761    18App    0.631775    29Ap     0.636141
      19App    0.636352    30Ap     0.663244    20App    0.663582
      21App    0.683704    31Ap     0.684000    32Ap     0.734995
      22App    0.825392    33Ap     0.825423    23App    0.853916
      34Ap     0.915009    24App    0.915044    25App    0.944126
      35Ap     0.944614    36Ap     0.961222    26App    0.961361
      37Ap     1.003453    38Ap     1.128001    27App    1.128221
      39Ap     1.142219    40Ap     1.163166    28App    1.163373
      41Ap     1.223323    42Ap     1.274346    29App    1.274636
      43Ap     1.279357    44Ap     1.324105    30App    1.324609
      45Ap     1.355986    31App    1.365748    46Ap     1.366364
      32App    1.392454    47Ap     1.403931    33App    1.404179
      48Ap     1.416822    34App    1.417397    35App    1.427910
      36App    1.491493    49Ap     1.499079    50Ap     1.542784
      37App    1.542867    38App    1.574295    51Ap     1.574599
      52Ap     1.669826    53Ap     1.739003    39App    1.739831
      54Ap     1.768322    40App    1.831197    55Ap     1.831591
      41App    1.971728    56Ap     2.018104    57Ap     2.018624
      42App    2.019661    58Ap     2.052264    43App    2.053008
      59Ap     2.738445    44App    2.738523    60Ap     2.790924
      45App    2.811427    46App    2.889687    61Ap     2.890223
      62Ap     2.894942    47App    2.929471    63Ap     2.929521
      48App    2.958996    64Ap     2.964261    49App    2.964486
      65Ap     3.034008    50App    3.071151    66Ap     3.071411
      51App    3.084357    67Ap     3.168655    52App    3.168909
      68Ap     3.180584    69Ap     3.285282    53App    3.285348
      70Ap     3.327003    54App    3.327318    71Ap     3.375619
      55App    3.489844    72Ap     3.490485    56App    3.514018
      73Ap     3.525327    74Ap     3.568290    57App    3.568488
      58App    3.575140    75Ap     3.666096    59App    3.666694
      76Ap     3.679648    60App    3.694098    77Ap     3.694144
      78Ap     3.776744    61App    3.776862    79Ap     3.789117
      62App    3.912143    80Ap     3.912299    81Ap     4.034457
      63App    4.111288    82Ap     4.111462    64App    4.148072
      83Ap     4.148181    84Ap     4.173242    85Ap     4.202422
      86Ap     4.203121    65App    4.203243    66App    4.210847
      67App    4.315529    87Ap     4.316382    68App    4.358986
      69App    4.424334    88Ap     4.424576    70App    4.443418
      89Ap     4.515785    71App    4.517899    72App    4.578061
      90Ap     4.578493    91Ap     4.617531    92Ap     4.709445
      93Ap     4.774079    73App    4.775096    74App    4.836907
      94Ap     4.962862    95Ap     5.002492    75App    5.003393
      96Ap     5.228049    97Ap     5.246788    76App    5.246828
      77App    5.355243    98Ap     5.355767    78App    5.479349

    Beta Occupied:

       1Ap   -10.167811     1App  -10.167766     2Ap   -10.167747
       3Ap   -10.166519     4Ap    -0.781091     5Ap    -0.684023
       2App   -0.683956     6Ap    -0.511747     3App   -0.431148
       7Ap    -0.430937     8Ap    -0.421821     4App   -0.376843
       9Ap    -0.376525     5App   -0.362596    10Ap    -0.333208
       6App   -0.333035

    Beta Virtual:

      11Ap    -0.025742    12Ap     0.077081    13Ap     0.135021
       7App    0.135071    14Ap     0.144440     8App    0.144557
      15Ap     0.163338    16Ap     0.182334     9App    0.182566
      10App    0.215032    17Ap     0.218930    11App    0.282280
      18Ap     0.282386    12App    0.400242    19Ap     0.400554
      20Ap     0.419791    13App    0.426857    21Ap     0.426959
      22Ap     0.468501    14App    0.497625    23Ap     0.497674
      15App    0.513895    24Ap     0.556325    25Ap     0.584283
      16App    0.584453    26Ap     0.597687    17App    0.597938
      27Ap     0.609996    28Ap     0.628136    18App    0.631931
      29Ap     0.639427    19App    0.639638    30Ap     0.666823
      20App    0.667130    21App    0.686336    31Ap     0.686637
      32Ap     0.757518    22App    0.830563    33Ap     0.830588
      23App    0.855269    34Ap     0.922982    24App    0.923014
      25App    0.945963    35Ap     0.953543    36Ap     0.966521
      26App    0.966674    37Ap     1.008693    38Ap     1.131992
      27App    1.132286    39Ap     1.155599    40Ap     1.168287
      28App    1.168397    41Ap     1.232295    42Ap     1.279939
      29App    1.280238    43Ap     1.285110    44Ap     1.329084
      30App    1.329609    45Ap     1.365402    31App    1.370990
      46Ap     1.371608    32App    1.393511    47Ap     1.407384
      33App    1.407657    48Ap     1.421889    34App    1.422431
      35App    1.428178    36App    1.492541    49Ap     1.509522
      37App    1.547206    50Ap     1.547260    38App    1.582219
      51Ap     1.582419    52Ap     1.674673    53Ap     1.744772
      39App    1.745585    54Ap     1.779102    40App    1.835052
      55Ap     1.835447    41App    1.972587    56Ap     2.024805
      42App    2.026084    57Ap     2.039682    58Ap     2.059004
      43App    2.059696    59Ap     2.746786    44App    2.746854
      45App    2.811838    60Ap     2.816060    46App    2.902384
      61Ap     2.902905    62Ap     2.924652    47App    2.931953
      63Ap     2.931998    48App    2.960057    64Ap     2.968810
      49App    2.969026    65Ap     3.041944    50App    3.081058
      66Ap     3.081314    51App    3.086183    67Ap     3.184422
      52App    3.184641    68Ap     3.188268    69Ap     3.290089
      53App    3.290137    70Ap     3.330794    54App    3.331136
      71Ap     3.383438    55App    3.492575    72Ap     3.493214
      56App    3.512381    73Ap     3.528373    57App    3.574998
      74Ap     3.581694    58App    3.581767    75Ap     3.670897
      59App    3.671381    76Ap     3.692944    77Ap     3.725620
      60App    3.725894    78Ap     3.781281    61App    3.781375
      79Ap     3.817663    62App    3.921944    80Ap     3.922131
      81Ap     4.045344    63App    4.118155    82Ap     4.118226
      64App    4.155235    83Ap     4.155432    84Ap     4.187305
      85Ap     4.208781    65App    4.209184    86Ap     4.210666
      66App    4.215318    67App    4.322943    87Ap     4.323847
      68App    4.362351    69App    4.432559    88Ap     4.432782
      70App    4.446300    89Ap     4.523580    71App    4.525685
      72App    4.588678    90Ap     4.589081    91Ap     4.624723
      92Ap     4.719790    93Ap     4.781051    73App    4.782031
      74App    4.839824    94Ap     4.967657    95Ap     5.006549
      75App    5.007414    96Ap     5.233764    97Ap     5.248572
      76App    5.248612    77App    5.361725    98Ap     5.362246
      78App    5.481670

    Final Occupation by Irrep:
             Ap   App
    DOCC [    10,    6 ]
    SOCC [     1,    0 ]

  @DF-UKS Final Energy:  -157.81307211786151

   => Energetics <=

    Nuclear Repulsion Energy =            125.3945831363746493
    One-Electron Energy =                -458.7488393681454681
    Two-Electron Energy =                 195.8483257980811914
    DFT Exchange-Correlation Energy =     -20.3071416841718815
    Empirical Dispersion Energy =           0.0000000000000000
    VV10 Nonlocal Energy =                  0.0000000000000000
    Total Energy =                       -157.8130721178615090

  UHF NO Occupations:
  HONO-2 :    9 Ap 1.9996009
  HONO-1 :   10 Ap 1.9989805
  HONO-0 :   11 Ap 1.0000000
  LUNO+0 :   12 Ap 0.0010195
  LUNO+1 :   13 Ap 0.0003991
  LUNO+2 :    7App 0.0001977
  LUNO+3 :   14 Ap 0.0001974

Computation Completed

Properties will be evaluated at   0.000000,   0.000000,   0.000000 [a0]

Properties computed using the SCF density matrix

  Nuclear Dipole Moment: [e a0]
     X:     0.8272      Y:     0.0012      Z:    -0.0000

  Electronic Dipole Moment: [e a0]
     X:    -0.7493      Y:    -0.0011      Z:     0.0000

  Dipole Moment: [e a0]
     X:     0.0779      Y:     0.0001      Z:    -0.0000     Total:     0.0779

  Dipole Moment: [D]
     X:     0.1980      Y:     0.0003      Z:    -0.0000     Total:     0.1980

*** tstop() called on n067 at Fri Nov  5 12:27:53 2021
Module time:
	user time   =     548.04 seconds =       9.13 minutes
	system time =      13.47 seconds =       0.22 minutes
	total time  =        141 seconds =       2.35 minutes
Total time:
	user time   =     548.04 seconds =       9.13 minutes
	system time =      13.47 seconds =       0.22 minutes
	total time  =        141 seconds =       2.35 minutes
Grab this energy -157.8130721178615
    Psi4 stopped on: Friday, 05 November 2021 12:27PM
    Psi4 wall time for execution: 0:02:21.20

*** Psi4 exiting successfully. Buy a developer a beer!
