                               Psi4 1.4a2.dev629

  ==> Input File <==

--------------------------------------------------------------------------
import os
memory 14 GB

molecule {
 C   -0.3251182223   -0.0000019644   -0.0010199459
 C    0.0612306397   -1.4016148573   -2.4258562405
 C    0.0604624933    2.8020160803    0.0018032496
 C    0.0599353827   -1.4003957843    2.4273511983
 H    2.0871851562   -1.6408182004   -2.8424622075
 H   -0.7651001732   -0.3902814104   -4.0280451696
 H   -0.7654079647   -3.2929899791   -2.3522736511
 H    2.0871145528    3.2820671651   -0.0007023416
 H   -0.7653749212    3.6835704269    1.6756581681
 H   -0.7650843560    3.6833892348   -1.6762206888
 H    2.0873242236   -1.6413434033    2.8419672499
 H   -0.7648959773   -3.2932620977    2.3518538144
 H   -0.7648787104   -0.3903595238    4.0279465648
units bohr
0 2
}

basis {

assign 6-31g_2dfp_

[ 6-31g_2dfp_ ]

spherical

!----------------------------------------------------------------------
! Basis Set Exchange
! Version v0.8.13
! https://www.basissetexchange.org
!----------------------------------------------------------------------
!   Basis set: 6-31G(2df,p)
! Description: 6-31G(2df,p)
!        Role: orbital
!     Version: 0  (Data from the original Basis Set Exchange)
!----------------------------------------------------------------------

****
H     0
S    3   1.00
     18.7311370              0.03349460
      2.8253937              0.23472695
      0.6401217              0.81375733
S    1   1.00
      0.1612778              1.00000000
P    1   1.00
      1.5000000              1.0000000
P    1   1.00
      0.3750000              1.0000000
****
B     0
S    6   1.00
   2068.8823000              0.0018663
    310.6495700              0.0142515
     70.6830330              0.0695516
     19.8610800              0.2325729
      6.2993048              0.4670787
      2.1270270              0.3634314
SP   3   1.00
      4.7279710             -0.1303938              0.0745976
      1.1903377             -0.1307889              0.3078467
      0.3594117              1.1309444              0.7434568
SP   1   1.00
      0.1267512              1.0000000              1.0000000
D    1   1.00
      0.8020000              1.0000000
D    1   1.00
      0.2005000              1.0000000
F    1   1.00
      0.5000000              1.0000000
****
C     0
S    6   1.00
   3047.5249000              0.0018347
    457.3695100              0.0140373
    103.9486900              0.0688426
     29.2101550              0.2321844
      9.2866630              0.4679413
      3.1639270              0.3623120
SP   3   1.00
      7.8682724             -0.1193324              0.0689991
      1.8812885             -0.1608542              0.3164240
      0.5442493              1.1434564              0.7443083
SP   1   1.00
      0.1687144              1.0000000              1.0000000
D    1   1.00
      1.2520000              1.0000000
D    1   1.00
      0.3130000              1.0000000
F    1   1.00
      0.8000000              1.0000000
****
N     0
S    6   1.00
   4173.5110000              0.0018348
    627.4579000              0.0139950
    142.9021000              0.0685870
     40.2343300              0.2322410
     12.8202100              0.4690700
      4.3904370              0.3604550
SP   3   1.00
     11.6263580             -0.1149610              0.0675800
      2.7162800             -0.1691180              0.3239070
      0.7722180              1.1458520              0.7408950
SP   1   1.00
      0.2120313              1.0000000              1.0000000
D    1   1.00
      1.8260000              1.0000000
D    1   1.00
      0.4565000              1.0000000
F    1   1.00
      1.0000000              1.0000000
****
O     0
S    6   1.00
   5484.6717000              0.0018311
    825.2349500              0.0139501
    188.0469600              0.0684451
     52.9645000              0.2327143
     16.8975700              0.4701930
      5.7996353              0.3585209
SP   3   1.00
     15.5396160             -0.1107775              0.0708743
      3.5999336             -0.1480263              0.3397528
      1.0137618              1.1307670              0.7271586
SP   1   1.00
      0.2700058              1.0000000              1.0000000
D    1   1.00
      2.5840000              1.0000000
D    1   1.00
      0.6460000              1.0000000
F    1   1.00
      1.4000000              1.0000000
****
F     0
S    6   1.00
   7001.7130900              0.0018196169
   1051.3660900              0.0139160796
    239.2856900              0.0684053245
     67.3974453              0.233185760
     21.5199573              0.471267439
      7.40310130             0.356618546
SP   3   1.00
     20.8479528             -0.108506975            0.0716287243
      4.80830834            -0.146451658            0.3459121030
      1.34406986             1.128688580            0.7224699570
SP   1   1.00
      0.358151393            1.0000000              1.0000000
D    1   1.00
      3.5000000              1.0000000
D    1   1.00
      0.8750000              1.0000000
F    1   1.00
      1.8500000              1.0000000
****
Al     0
S    6   1.00
  13983.1000000              0.00194267
   2098.7500000              0.0148599
    477.7050000              0.0728494
    134.3600000              0.2468300
     42.8709000              0.4872580
     14.5189000              0.3234960
SP   6   1.00
    239.6680000             -0.00292619             0.00460285
     57.4419000             -0.0374080              0.0331990
     18.2859000             -0.1144870              0.1362820
      6.5991400              0.1156350              0.3304760
      2.4904900              0.6125950              0.4491460
      0.9445400              0.3937990              0.2657040
SP   3   1.00
      1.2779000             -0.2276060             -0.0175130
      0.3975900              0.00144583             0.2445330
      0.1600950              1.0927900              0.8049340
SP   1   1.00
      0.0556577              1.0000000              1.0000000
D    1   1.00
      0.6500000              1.0000000
D    1   1.00
      0.1625000              1.0000000
F    1   1.00
      0.2500000              1.0000000
****
Si     0
S    6   1.00
  16115.9000000              0.00195948
   2425.5800000              0.01492880
    553.8670000              0.07284780
    156.3400000              0.24613000
     50.0683000              0.48591400
     17.0178000              0.32500200
SP   6   1.00
    292.7180000             -0.00278094             0.00443826
     69.8731000             -0.03571460             0.03266790
     22.3363000             -0.11498500             0.13472100
      8.1503900              0.09356340             0.32867800
      3.1345800              0.60301700             0.44964000
      1.2254300              0.41895900             0.26137200
SP   3   1.00
      1.7273800             -0.24463000            -0.01779510
      0.5729220              0.00431572             0.25353900
      0.2221920              1.09818000             0.80066900
SP   1   1.00
      0.0778369              1.00000000             1.00000000
D    1   1.00
      0.9000000              1.0000000
D    1   1.00
      0.2250000              1.0000000
F    1   1.00
      0.3200000              1.0000000
****
P     0
S    6   1.00
  19413.3000000              0.0018516
   2909.4200000              0.0142062
    661.3640000              0.0699995
    185.7590000              0.2400790
     59.1943000              0.4847620
     20.0310000              0.3352000
SP   6   1.00
    339.4780000             -0.00278217             0.00456462
     81.0101000             -0.0360499              0.03369360
     25.8780000             -0.1166310              0.13975500
      9.4522100              0.0968328              0.33936200
      3.6656600              0.6144180              0.45092100
      1.4674600              0.4037980              0.23858600
SP   3   1.00
      2.1562300             -0.2529230             -0.01776530
      0.7489970              0.0328517              0.27405800
      0.2831450              1.0812500              0.78542100
SP   1   1.00
      0.0998317              1.0000000              1.00000000
D    1   1.00
      1.1000000              1.0000000
D    1   1.00
      0.2750000              1.0000000
F    1   1.00
      0.4500000              1.0000000
****
S     0
S    6   1.00
  21917.1000000              0.0018690
   3301.4900000              0.0142300
    754.1460000              0.0696960
    212.7110000              0.2384870
     67.9896000              0.4833070
     23.0515000              0.3380740
SP   6   1.00
    423.7350000             -0.0023767              0.0040610
    100.7100000             -0.0316930              0.0306810
     32.1599000             -0.1133170              0.1304520
     11.8079000              0.0560900              0.3272050
      4.6311000              0.5922550              0.4528510
      1.8702500              0.4550060              0.2560420
SP   3   1.00
      2.6158400             -0.2503740             -0.0145110
      0.9221670              0.0669570              0.3102630
      0.3412870              1.0545100              0.7544830
SP   1   1.00
      0.1171670              1.0000000              1.0000000
D    1   1.00
      1.3000000              1.0000000
D    1   1.00
      0.3250000              1.0000000
F    1   1.00
      0.5500000              1.0000000
****
Cl     0
S    6   1.00
  25180.1000000              0.0018330
   3780.3500000              0.0140340
    860.4740000              0.0690970
    242.1450000              0.2374520
     77.3349000              0.4830340
     26.2470000              0.3398560
SP   6   1.00
    491.7650000             -0.0022974              0.0039894
    116.9840000             -0.0307140              0.0303180
     37.4153000             -0.1125280              0.1298800
     13.7834000              0.0450160              0.3279510
      5.4521500              0.5893530              0.4535270
      2.2258800              0.4652060              0.2521540
SP   3   1.00
      3.1864900             -0.2518300             -0.0142990
      1.1442700              0.0615890              0.3235720
      0.4203770              1.0601800              0.7435070
SP   1   1.00
      0.1426570              1.0000000              1.0000000
D    1   1.00
      1.5000000              1.0000000
D    1   1.00
      0.3750000              1.0000000
F    1   1.00
      0.7000000              1.0000000
****
}

set {
reference uhf
freeze_core true
e_convergence 10
d_convergence 10
dft_spherical_points 1202
dft_radial_points 99
}

e = energy('b3lyp')

print_out('Grab this energy {0}'.format(e))
--------------------------------------------------------------------------

    Molecular point group: c1

    Geometry (in Bohr), charge = 0, multiplicity = 2:

       Center              X                  Y                   Z               Mass
    ------------   -----------------  -----------------  -----------------  -----------------
         C           -0.324453781041    -0.000002204214    -0.001458755476    12.000000000000
         C            0.061895080959    -1.401615097114    -2.426295050076    12.000000000000
         C            0.061126934559     2.802015840486     0.001364440024    12.000000000000
         C            0.060599823959    -1.400396024114     2.426912388724    12.000000000000
         H            2.087849597459    -1.640818440214    -2.842901017076     1.007825032230
         H           -0.764435731941    -0.390281650214    -4.028483979176     1.007825032230
         H           -0.764743523441    -3.292990218914    -2.352712460676     1.007825032230
         H            2.087778994059     3.282066925286    -0.001141151176     1.007825032230
         H           -0.764710479941     3.683570187086     1.675219358524     1.007825032230
         H           -0.764419914741     3.683388994986    -1.676659498376     1.007825032230
         H            2.087988664859    -1.641343643114     2.841528440324     1.007825032230
         H           -0.764231536041    -3.293262337514     2.351415004824     1.007825032230
         H           -0.764214269141    -0.390359763614     4.027507755224     1.007825032230

  Charge       = 0
  Multiplicity = 2
  Basis Set: ANONYMOUS26D29780
    Blend: 6-31G_2DFP_
  Basis Set: (ANONYMOUS26D29780 AUX)
    Blend: DEF2-UNIVERSAL-JKFIT

    Orbital Energies [Eh]
    ---------------------

    Alpha Occupied:

       1A    -10.180355     2A    -10.167096     3A    -10.167067
       4A    -10.167022     5A     -0.797702     6A     -0.686229
       7A     -0.686070     8A     -0.530764     9A     -0.441295
      10A     -0.434469    11A     -0.434450    12A     -0.382791
      13A     -0.382713    14A     -0.363471    15A     -0.338269
      16A     -0.337683    17A     -0.168871

    Alpha Virtual:

      18A      0.076036    19A      0.134167    20A      0.134244
      21A      0.142496    22A      0.142622    23A      0.154673
      24A      0.178767    25A      0.178865    26A      0.203414
      27A      0.214582    28A      0.275821    29A      0.276072
      30A      0.398894    31A      0.399112    32A      0.403417
      33A      0.424245    34A      0.424255    35A      0.456358
      36A      0.495377    37A      0.495448    38A      0.512350
      39A      0.513924    40A      0.578613    41A      0.578695
      42A      0.591814    43A      0.591855    44A      0.602802
      45A      0.624698    46A      0.631518    47A      0.636154
      48A      0.636162    49A      0.663046    50A      0.663225
      51A      0.683926    52A      0.683949    53A      0.734909
      54A      0.825502    55A      0.825509    56A      0.853575
      57A      0.914779    58A      0.914989    59A      0.943905
      60A      0.945408    61A      0.961506    62A      0.961635
      63A      1.002724    64A      1.127641    65A      1.127677
      66A      1.142799    67A      1.162700    68A      1.162742
      69A      1.223406    70A      1.274331    71A      1.274691
      72A      1.279142    73A      1.324026    74A      1.324130
      75A      1.356408    76A      1.365497    77A      1.365972
      78A      1.392625    79A      1.404074    80A      1.404577
      81A      1.417011    82A      1.417520    83A      1.427302
      84A      1.490895    85A      1.499395    86A      1.542591
      87A      1.542938    88A      1.574757    89A      1.575389
      90A      1.669753    91A      1.739444    92A      1.739656
      93A      1.768484    94A      1.831049    95A      1.831188
      96A      1.971628    97A      2.017708    98A      2.018391
      99A      2.018819   100A      2.051560   101A      2.052763
     102A      2.738854   103A      2.738952   104A      2.790698
     105A      2.810912   106A      2.889122   107A      2.890462
     108A      2.894689   109A      2.928875   110A      2.929205
     111A      2.958933   112A      2.964036   113A      2.964619
     114A      3.033530   115A      3.071624   116A      3.071896
     117A      3.084708   118A      3.168720   119A      3.168959
     120A      3.180448   121A      3.285500   122A      3.285936
     123A      3.326007   124A      3.326095   125A      3.375906
     126A      3.490606   127A      3.490692   128A      3.513739
     129A      3.525155   130A      3.567738   131A      3.567964
     132A      3.574336   133A      3.666219   134A      3.666626
     135A      3.678593   136A      3.694617   137A      3.694672
     138A      3.775634   139A      3.775665   140A      3.790431
     141A      3.911772   142A      3.912476   143A      4.035577
     144A      4.111034   145A      4.111470   146A      4.148166
     147A      4.148547   148A      4.173304   149A      4.202223
     150A      4.202281   151A      4.203077   152A      4.210349
     153A      4.314871   154A      4.316449   155A      4.357790
     156A      4.424384   157A      4.425498   158A      4.442474
     159A      4.515834   160A      4.516189   161A      4.577016
     162A      4.577607   163A      4.616990   164A      4.709175
     165A      4.774066   166A      4.774368   167A      4.837926
     168A      4.962343   169A      5.002780   170A      5.003344
     171A      5.227681   172A      5.246633   173A      5.247115
     174A      5.354903   175A      5.354952   176A      5.479086

    Beta Occupied:

       1A    -10.167850     2A    -10.167822     3A    -10.167788
       4A    -10.166527     5A     -0.781023     6A     -0.684031
       7A     -0.683877     8A     -0.511739     9A     -0.430856
      10A     -0.430824    11A     -0.421984    12A     -0.376895
      13A     -0.376802    14A     -0.362461    15A     -0.333388
      16A     -0.332802

    Beta Virtual:

      17A     -0.025576    18A      0.077049    19A      0.135030
      20A      0.135131    21A      0.144374    22A      0.144463
      23A      0.163083    24A      0.182457    25A      0.182531
      26A      0.214809    27A      0.218836    28A      0.282194
      29A      0.282417    30A      0.400058    31A      0.400276
      32A      0.419841    33A      0.427062    34A      0.427073
      35A      0.468188    36A      0.497626    37A      0.497691
      38A      0.514079    39A      0.556354    40A      0.584144
      41A      0.584225    42A      0.598009    43A      0.598069
      44A      0.610206    45A      0.628072    46A      0.631672
      47A      0.639446    48A      0.639454    49A      0.666582
      50A      0.666769    51A      0.686578    52A      0.686605
      53A      0.757469    54A      0.830657    55A      0.830660
      56A      0.854925    57A      0.922704    58A      0.922915
      59A      0.945742    60A      0.954255    61A      0.966848
      62A      0.966957    63A      1.007936    64A      1.131677
      65A      1.131694    66A      1.156389    67A      1.167773
      68A      1.167838    69A      1.232273    70A      1.279883
      71A      1.280295    72A      1.284831    73A      1.328966
      74A      1.329091    75A      1.365884    76A      1.370721
      77A      1.371248    78A      1.393669    79A      1.407515
      80A      1.408035    81A      1.422133    82A      1.422602
      83A      1.427571    84A      1.491955    85A      1.509862
      86A      1.546991    87A      1.547364    88A      1.582626
      89A      1.583243    90A      1.674598    91A      1.745206
      92A      1.745415    93A      1.779247    94A      1.834908
      95A      1.835043    96A      1.972480    97A      2.024167
      98A      2.024982    99A      2.039873   100A      2.058268
     101A      2.059514   102A      2.747185   103A      2.747271
     104A      2.811319   105A      2.815830   106A      2.901890
     107A      2.903203   108A      2.924409   109A      2.931309
     110A      2.931705   111A      2.959993   112A      2.968554
     113A      2.969113   114A      3.041473   115A      3.081539
     116A      3.081829   117A      3.086522   118A      3.184441
     119A      3.184726   120A      3.188141   121A      3.290352
     122A      3.290727   123A      3.329823   124A      3.329936
     125A      3.383751   126A      3.493254   127A      3.493369
     128A      3.512096   129A      3.528238   130A      3.574197
     131A      3.581183   132A      3.581326   133A      3.670966
     134A      3.671577   135A      3.691934   136A      3.725947
     137A      3.726278   138A      3.780063   139A      3.780163
     140A      3.818951   141A      3.921614   142A      3.922362
     143A      4.046411   144A      4.117760   145A      4.118196
     146A      4.155489   147A      4.155796   148A      4.187400
     149A      4.208205   150A      4.208270   151A      4.210976
     152A      4.214788   153A      4.322264   154A      4.323907
     155A      4.361129   156A      4.432590   157A      4.433698
     158A      4.445392   159A      4.523652   160A      4.523978
     161A      4.587618   162A      4.588165   163A      4.624259
     164A      4.719413   165A      4.781052   166A      4.781316
     167A      4.840840   168A      4.967141   169A      5.006802
     170A      5.007369   171A      5.233410   172A      5.248422
     173A      5.248888   174A      5.361362   175A      5.361450
     176A      5.481402

    Final Occupation by Irrep:
              A
    DOCC [    16 ]
    SOCC [     1 ]

  @DF-UKS Final Energy:  -157.81306062994184

   => Energetics <=

    Nuclear Repulsion Energy =            125.3830201982808461
    One-Electron Energy =                -458.7262479474121619
    Two-Electron Energy =                 195.8369643667296032
    DFT Exchange-Correlation Energy =     -20.3067972475401426
    Empirical Dispersion Energy =           0.0000000000000000
    VV10 Nonlocal Energy =                  0.0000000000000000
    Total Energy =                       -157.8130606299418446

  UHF NO Occupations:
  HONO-2 :   15  A 1.9996022
  HONO-1 :   16  A 1.9989785
  HONO-0 :   17  A 1.0000000
  LUNO+0 :   18  A 0.0010215
  LUNO+1 :   19  A 0.0003978
  LUNO+2 :   20  A 0.0001983
  LUNO+3 :   21  A 0.0001974

Computation Completed

Properties will be evaluated at   0.000000,   0.000000,   0.000000 [a0]

Properties computed using the SCF density matrix

  Nuclear Dipole Moment: [e a0]
     X:     0.8319      Y:    -0.0000      Z:    -0.0031

  Electronic Dipole Moment: [e a0]
     X:    -0.7535      Y:     0.0000      Z:     0.0030

  Dipole Moment: [e a0]
     X:     0.0783      Y:     0.0000      Z:    -0.0000     Total:     0.0783

  Dipole Moment: [D]
     X:     0.1991      Y:     0.0000      Z:    -0.0001     Total:     0.1991

*** tstop() called on n071 at Fri Nov  5 12:10:51 2021
Module time:
	user time   =     577.38 seconds =       9.62 minutes
	system time =      13.79 seconds =       0.23 minutes
	total time  =        149 seconds =       2.48 minutes
Total time:
	user time   =     577.38 seconds =       9.62 minutes
	system time =      13.79 seconds =       0.23 minutes
	total time  =        149 seconds =       2.48 minutes
Grab this energy -157.81306062994184
    Psi4 stopped on: Friday, 05 November 2021 12:10PM
    Psi4 wall time for execution: 0:02:29.14

*** Psi4 exiting successfully. Buy a developer a beer!
