                               Psi4 1.4a2.dev629

  ==> Input File <==

--------------------------------------------------------------------------
import os
memory 14 GB

molecule {
 C   -0.3233524744   -0.0000026615    0.0019992963
 C    0.0610917995   -1.4009244635   -2.4253043383
 C    0.0608365862    2.8001200007    0.0011571217
 C    0.0608219289   -1.3991910227    2.4246162096
 H    2.0866834661   -1.6481053933   -2.8502924133
 H   -0.7650356948   -0.3861343552   -4.0237763682
 H   -0.7665732994   -3.2936884929   -2.3515986673
 H    2.0867417253    3.2886054234    0.0040943950
 H   -0.7668954892    3.6863620193    1.6755869359
 H   -0.7641515799    3.6751141219   -1.6771851160
 H    2.0870783802   -1.6405872693    2.8454595450
 H   -0.7643234390   -3.2906117314    2.3473263357
 H   -0.7655297862   -0.3909804890    4.0279170638
units bohr
0 2
}

basis {

assign 6-31g_2dfp_

[ 6-31g_2dfp_ ]

spherical

!----------------------------------------------------------------------
! Basis Set Exchange
! Version v0.8.13
! https://www.basissetexchange.org
!----------------------------------------------------------------------
!   Basis set: 6-31G(2df,p)
! Description: 6-31G(2df,p)
!        Role: orbital
!     Version: 0  (Data from the original Basis Set Exchange)
!----------------------------------------------------------------------

****
H     0
S    3   1.00
     18.7311370              0.03349460
      2.8253937              0.23472695
      0.6401217              0.81375733
S    1   1.00
      0.1612778              1.00000000
P    1   1.00
      1.5000000              1.0000000
P    1   1.00
      0.3750000              1.0000000
****
B     0
S    6   1.00
   2068.8823000              0.0018663
    310.6495700              0.0142515
     70.6830330              0.0695516
     19.8610800              0.2325729
      6.2993048              0.4670787
      2.1270270              0.3634314
SP   3   1.00
      4.7279710             -0.1303938              0.0745976
      1.1903377             -0.1307889              0.3078467
      0.3594117              1.1309444              0.7434568
SP   1   1.00
      0.1267512              1.0000000              1.0000000
D    1   1.00
      0.8020000              1.0000000
D    1   1.00
      0.2005000              1.0000000
F    1   1.00
      0.5000000              1.0000000
****
C     0
S    6   1.00
   3047.5249000              0.0018347
    457.3695100              0.0140373
    103.9486900              0.0688426
     29.2101550              0.2321844
      9.2866630              0.4679413
      3.1639270              0.3623120
SP   3   1.00
      7.8682724             -0.1193324              0.0689991
      1.8812885             -0.1608542              0.3164240
      0.5442493              1.1434564              0.7443083
SP   1   1.00
      0.1687144              1.0000000              1.0000000
D    1   1.00
      1.2520000              1.0000000
D    1   1.00
      0.3130000              1.0000000
F    1   1.00
      0.8000000              1.0000000
****
N     0
S    6   1.00
   4173.5110000              0.0018348
    627.4579000              0.0139950
    142.9021000              0.0685870
     40.2343300              0.2322410
     12.8202100              0.4690700
      4.3904370              0.3604550
SP   3   1.00
     11.6263580             -0.1149610              0.0675800
      2.7162800             -0.1691180              0.3239070
      0.7722180              1.1458520              0.7408950
SP   1   1.00
      0.2120313              1.0000000              1.0000000
D    1   1.00
      1.8260000              1.0000000
D    1   1.00
      0.4565000              1.0000000
F    1   1.00
      1.0000000              1.0000000
****
O     0
S    6   1.00
   5484.6717000              0.0018311
    825.2349500              0.0139501
    188.0469600              0.0684451
     52.9645000              0.2327143
     16.8975700              0.4701930
      5.7996353              0.3585209
SP   3   1.00
     15.5396160             -0.1107775              0.0708743
      3.5999336             -0.1480263              0.3397528
      1.0137618              1.1307670              0.7271586
SP   1   1.00
      0.2700058              1.0000000              1.0000000
D    1   1.00
      2.5840000              1.0000000
D    1   1.00
      0.6460000              1.0000000
F    1   1.00
      1.4000000              1.0000000
****
F     0
S    6   1.00
   7001.7130900              0.0018196169
   1051.3660900              0.0139160796
    239.2856900              0.0684053245
     67.3974453              0.233185760
     21.5199573              0.471267439
      7.40310130             0.356618546
SP   3   1.00
     20.8479528             -0.108506975            0.0716287243
      4.80830834            -0.146451658            0.3459121030
      1.34406986             1.128688580            0.7224699570
SP   1   1.00
      0.358151393            1.0000000              1.0000000
D    1   1.00
      3.5000000              1.0000000
D    1   1.00
      0.8750000              1.0000000
F    1   1.00
      1.8500000              1.0000000
****
Al     0
S    6   1.00
  13983.1000000              0.00194267
   2098.7500000              0.0148599
    477.7050000              0.0728494
    134.3600000              0.2468300
     42.8709000              0.4872580
     14.5189000              0.3234960
SP   6   1.00
    239.6680000             -0.00292619             0.00460285
     57.4419000             -0.0374080              0.0331990
     18.2859000             -0.1144870              0.1362820
      6.5991400              0.1156350              0.3304760
      2.4904900              0.6125950              0.4491460
      0.9445400              0.3937990              0.2657040
SP   3   1.00
      1.2779000             -0.2276060             -0.0175130
      0.3975900              0.00144583             0.2445330
      0.1600950              1.0927900              0.8049340
SP   1   1.00
      0.0556577              1.0000000              1.0000000
D    1   1.00
      0.6500000              1.0000000
D    1   1.00
      0.1625000              1.0000000
F    1   1.00
      0.2500000              1.0000000
****
Si     0
S    6   1.00
  16115.9000000              0.00195948
   2425.5800000              0.01492880
    553.8670000              0.07284780
    156.3400000              0.24613000
     50.0683000              0.48591400
     17.0178000              0.32500200
SP   6   1.00
    292.7180000             -0.00278094             0.00443826
     69.8731000             -0.03571460             0.03266790
     22.3363000             -0.11498500             0.13472100
      8.1503900              0.09356340             0.32867800
      3.1345800              0.60301700             0.44964000
      1.2254300              0.41895900             0.26137200
SP   3   1.00
      1.7273800             -0.24463000            -0.01779510
      0.5729220              0.00431572             0.25353900
      0.2221920              1.09818000             0.80066900
SP   1   1.00
      0.0778369              1.00000000             1.00000000
D    1   1.00
      0.9000000              1.0000000
D    1   1.00
      0.2250000              1.0000000
F    1   1.00
      0.3200000              1.0000000
****
P     0
S    6   1.00
  19413.3000000              0.0018516
   2909.4200000              0.0142062
    661.3640000              0.0699995
    185.7590000              0.2400790
     59.1943000              0.4847620
     20.0310000              0.3352000
SP   6   1.00
    339.4780000             -0.00278217             0.00456462
     81.0101000             -0.0360499              0.03369360
     25.8780000             -0.1166310              0.13975500
      9.4522100              0.0968328              0.33936200
      3.6656600              0.6144180              0.45092100
      1.4674600              0.4037980              0.23858600
SP   3   1.00
      2.1562300             -0.2529230             -0.01776530
      0.7489970              0.0328517              0.27405800
      0.2831450              1.0812500              0.78542100
SP   1   1.00
      0.0998317              1.0000000              1.00000000
D    1   1.00
      1.1000000              1.0000000
D    1   1.00
      0.2750000              1.0000000
F    1   1.00
      0.4500000              1.0000000
****
S     0
S    6   1.00
  21917.1000000              0.0018690
   3301.4900000              0.0142300
    754.1460000              0.0696960
    212.7110000              0.2384870
     67.9896000              0.4833070
     23.0515000              0.3380740
SP   6   1.00
    423.7350000             -0.0023767              0.0040610
    100.7100000             -0.0316930              0.0306810
     32.1599000             -0.1133170              0.1304520
     11.8079000              0.0560900              0.3272050
      4.6311000              0.5922550              0.4528510
      1.8702500              0.4550060              0.2560420
SP   3   1.00
      2.6158400             -0.2503740             -0.0145110
      0.9221670              0.0669570              0.3102630
      0.3412870              1.0545100              0.7544830
SP   1   1.00
      0.1171670              1.0000000              1.0000000
D    1   1.00
      1.3000000              1.0000000
D    1   1.00
      0.3250000              1.0000000
F    1   1.00
      0.5500000              1.0000000
****
Cl     0
S    6   1.00
  25180.1000000              0.0018330
   3780.3500000              0.0140340
    860.4740000              0.0690970
    242.1450000              0.2374520
     77.3349000              0.4830340
     26.2470000              0.3398560
SP   6   1.00
    491.7650000             -0.0022974              0.0039894
    116.9840000             -0.0307140              0.0303180
     37.4153000             -0.1125280              0.1298800
     13.7834000              0.0450160              0.3279510
      5.4521500              0.5893530              0.4535270
      2.2258800              0.4652060              0.2521540
SP   3   1.00
      3.1864900             -0.2518300             -0.0142990
      1.1442700              0.0615890              0.3235720
      0.4203770              1.0601800              0.7435070
SP   1   1.00
      0.1426570              1.0000000              1.0000000
D    1   1.00
      1.5000000              1.0000000
D    1   1.00
      0.3750000              1.0000000
F    1   1.00
      0.7000000              1.0000000
****
}

set {
reference uhf
freeze_core true
e_convergence 10
d_convergence 10
dft_spherical_points 1202
dft_radial_points 99
}

e = energy('b3lyp')

print_out('Grab this energy {0}'.format(e))
--------------------------------------------------------------------------

    Molecular point group: c1

    Geometry (in Bohr), charge = 0, multiplicity = 2:

       Center              X                  Y                   Z               Mass
    ------------   -----------------  -----------------  -----------------  -----------------
         C           -0.323244195454    -0.000002589041     0.001523886004    12.000000000000
         C            0.061200078446    -1.400924391041    -2.425779748596    12.000000000000
         C            0.060944865146     2.800120073159     0.000681711404    12.000000000000
         C            0.060930207846    -1.399190950241     2.424140799304    12.000000000000
         H            2.086791745046    -1.648105320841    -2.850767823596     1.007825032230
         H           -0.764927415854    -0.386134282741    -4.024251778496     1.007825032230
         H           -0.766465020454    -3.293688420441    -2.352074077596     1.007825032230
         H            2.086850004246     3.288605495859     0.003618984704     1.007825032230
         H           -0.766787210254     3.686362091759     1.675111525604     1.007825032230
         H           -0.764043300954     3.675114194359    -1.677660526296     1.007825032230
         H            2.087186659146    -1.640587196841     2.844984134704     1.007825032230
         H           -0.764215160054    -3.290611658941     2.346850925404     1.007825032230
         H           -0.765421507254    -0.390980416541     4.027441653504     1.007825032230

  Charge       = 0
  Multiplicity = 2
  Basis Set: ANONYMOUS3693FBFF
    Blend: 6-31G_2DFP_
  Basis Set: (ANONYMOUS3693FBFF AUX)
    Blend: DEF2-UNIVERSAL-JKFIT

    Orbital Energies [Eh]
    ---------------------

    Alpha Occupied:

       1A    -10.180290     2A    -10.167227     3A    -10.167068
       4A    -10.166907     5A     -0.798024     6A     -0.686318
       7A     -0.686074     8A     -0.530942     9A     -0.441139
      10A     -0.434807    11A     -0.434668    12A     -0.382496
      13A     -0.382426    14A     -0.363410    15A     -0.338223
      16A     -0.338091    17A     -0.168981

    Alpha Virtual:

      18A      0.076065    19A      0.134066    20A      0.134129
      21A      0.142431    22A      0.142555    23A      0.154986
      24A      0.178573    25A      0.178652    26A      0.203838
      27A      0.214680    28A      0.275958    29A      0.276495
      30A      0.399183    31A      0.399255    32A      0.403261
      33A      0.423989    34A      0.424100    35A      0.456774
      36A      0.495321    37A      0.495439    38A      0.512104
      39A      0.513921    40A      0.578488    41A      0.579059
      42A      0.591238    43A      0.591825    44A      0.602532
      45A      0.624639    46A      0.631546    47A      0.636267
      48A      0.636350    49A      0.663494    50A      0.663559
      51A      0.683809    52A      0.683867    53A      0.734862
      54A      0.825212    55A      0.825642    56A      0.854052
      57A      0.914840    58A      0.915116    59A      0.944170
      60A      0.944924    61A      0.960540    62A      0.961919
      63A      1.003293    64A      1.127961    65A      1.128398
      66A      1.142638    67A      1.162567    68A      1.162769
      69A      1.223754    70A      1.274462    71A      1.274773
      72A      1.279513    73A      1.324554    74A      1.324562
      75A      1.356332    76A      1.366034    77A      1.366352
      78A      1.391961    79A      1.403018    80A      1.403651
      81A      1.416699    82A      1.417494    83A      1.427658
      84A      1.492017    85A      1.498495    86A      1.542715
      87A      1.543260    88A      1.574539    89A      1.574555
      90A      1.669047    91A      1.739550    92A      1.740293
      93A      1.768287    94A      1.830480    95A      1.831467
      96A      1.972327    97A      2.017930    98A      2.019783
      99A      2.019952   100A      2.052276   101A      2.053874
     102A      2.738381   103A      2.738936   104A      2.791152
     105A      2.811503   106A      2.889780   107A      2.890309
     108A      2.895393   109A      2.929318   110A      2.929360
     111A      2.958945   112A      2.964195   113A      2.964498
     114A      3.034183   115A      3.071101   116A      3.071362
     117A      3.084755   118A      3.168683   119A      3.169090
     120A      3.181179   121A      3.284936   122A      3.285029
     123A      3.327075   124A      3.327728   125A      3.375521
     126A      3.490072   127A      3.490398   128A      3.514170
     129A      3.525653   130A      3.568284   131A      3.568903
     132A      3.575110   133A      3.665435   134A      3.665711
     135A      3.679058   136A      3.693663   137A      3.694444
     138A      3.775623   139A      3.778101   140A      3.788859
     141A      3.913067   142A      3.913599   143A      4.035011
     144A      4.109811   145A      4.112358   146A      4.147232
     147A      4.148981   148A      4.173963   149A      4.203481
     150A      4.203706   151A      4.203817   152A      4.211216
     153A      4.315034   154A      4.316591   155A      4.358392
     156A      4.423038   157A      4.423536   158A      4.441485
     159A      4.516754   160A      4.517585   161A      4.578650
     162A      4.579309   163A      4.617903   164A      4.710739
     165A      4.774310   166A      4.776457   167A      4.838273
     168A      4.961549   169A      5.001723   170A      5.002434
     171A      5.227511   172A      5.246061   173A      5.246999
     174A      5.354939   175A      5.356385   176A      5.480575

    Beta Occupied:

       1A    -10.167987     2A    -10.167829     3A    -10.167671
       4A    -10.166478     5A     -0.781334     6A     -0.684107
       7A     -0.683879     8A     -0.511959     9A     -0.431154
      10A     -0.431033    11A     -0.421786    12A     -0.376561
      13A     -0.376500    14A     -0.362390    15A     -0.333357
      16A     -0.333233

    Beta Virtual:

      17A     -0.025912    18A      0.077077    19A      0.134973
      20A      0.135019    21A      0.144303    22A      0.144429
      23A      0.163487    24A      0.182278    25A      0.182320
      26A      0.214912    27A      0.219170    28A      0.282296
      29A      0.282813    30A      0.400363    31A      0.400434
      32A      0.419706    33A      0.426801    34A      0.426915
      35A      0.468758    36A      0.497592    37A      0.497705
      38A      0.513849    39A      0.556235    40A      0.584035
      41A      0.584610    42A      0.597423    43A      0.597982
      44A      0.609949    45A      0.628053    46A      0.631706
      47A      0.639551    48A      0.639673    49A      0.667058
      50A      0.667126    51A      0.686434    52A      0.686535
      53A      0.757308    54A      0.830374    55A      0.830848
      56A      0.855417    57A      0.922842    58A      0.923049
      59A      0.946014    60A      0.953860    61A      0.965913
      62A      0.967181    63A      1.008524    64A      1.131908
      65A      1.132495    66A      1.156056    67A      1.167711
      68A      1.167748    69A      1.232668    70A      1.280093
      71A      1.280401    72A      1.285243    73A      1.329556
      74A      1.329581    75A      1.365760    76A      1.371244
      77A      1.371502    78A      1.393030    79A      1.406488
      80A      1.407175    81A      1.421757    82A      1.422539
      83A      1.427915    84A      1.493078    85A      1.508960
      86A      1.547144    87A      1.547691    88A      1.582394
      89A      1.582406    90A      1.673888    91A      1.745300
      92A      1.746060    93A      1.779107    94A      1.834363
      95A      1.835345    96A      1.973194    97A      2.026193
      98A      2.026300    99A      2.039482   100A      2.058922
     101A      2.060578   102A      2.746702   103A      2.747225
     104A      2.811915   105A      2.816252   106A      2.902503
     107A      2.902913   108A      2.925108   109A      2.931841
     110A      2.931857   111A      2.960004   112A      2.968789
     113A      2.969055   114A      3.042160   115A      3.081064
     116A      3.081307   117A      3.086579   118A      3.184310
     119A      3.184784   120A      3.188826   121A      3.289759
     122A      3.289902   123A      3.330891   124A      3.331510
     125A      3.383372   126A      3.492828   127A      3.493117
     128A      3.512536   129A      3.528668   130A      3.574781
     131A      3.581601   132A      3.582305   133A      3.670101
     134A      3.670231   135A      3.692354   136A      3.725671
     137A      3.725876   138A      3.780256   139A      3.782643
     140A      3.817351   141A      3.922863   142A      3.923360
     143A      4.045819   144A      4.116835   145A      4.119158
     146A      4.154365   147A      4.156166   148A      4.188070
     149A      4.209610   150A      4.209736   151A      4.211536
     152A      4.215709   153A      4.322357   154A      4.323956
     155A      4.361781   156A      4.431368   157A      4.431769
     158A      4.444372   159A      4.524617   160A      4.525427
     161A      4.589271   162A      4.589925   163A      4.625119
     164A      4.721086   165A      4.781303   166A      4.783366
     167A      4.841189   168A      4.966366   169A      5.005776
     170A      5.006505   171A      5.233243   172A      5.247847
     173A      5.248801   174A      5.361426   175A      5.362915
     176A      5.482905

    Final Occupation by Irrep:
              A
    DOCC [    16 ]
    SOCC [     1 ]

  @DF-UKS Final Energy:  -157.81308944780176

   => Energetics <=

    Nuclear Repulsion Energy =            125.4225805853928648
    One-Electron Energy =                -458.8039178539795557
    Two-Electron Energy =                 195.8752749289792803
    DFT Exchange-Correlation Energy =     -20.3070271081943901
    Empirical Dispersion Energy =           0.0000000000000000
    VV10 Nonlocal Energy =                  0.0000000000000000
    Total Energy =                       -157.8130894478017581

  UHF NO Occupations:
  HONO-2 :   15  A 1.9995993
  HONO-1 :   16  A 1.9989827
  HONO-0 :   17  A 1.0000000
  LUNO+0 :   18  A 0.0010173
  LUNO+1 :   19  A 0.0004007
  LUNO+2 :   20  A 0.0001971
  LUNO+3 :   21  A 0.0001964

Computation Completed

Properties will be evaluated at   0.000000,   0.000000,   0.000000 [a0]

Properties computed using the SCF density matrix

  Nuclear Dipole Moment: [e a0]
     X:     0.8280      Y:    -0.0000      Z:    -0.0033

  Electronic Dipole Moment: [e a0]
     X:    -0.7502      Y:     0.0000      Z:     0.0034

  Dipole Moment: [e a0]
     X:     0.0778      Y:    -0.0000      Z:     0.0000     Total:     0.0778

  Dipole Moment: [D]
     X:     0.1977      Y:    -0.0000      Z:     0.0001     Total:     0.1977

*** tstop() called on n080 at Fri Nov  5 13:26:38 2021
Module time:
	user time   =     497.79 seconds =       8.30 minutes
	system time =       4.62 seconds =       0.08 minutes
	total time  =        126 seconds =       2.10 minutes
Total time:
	user time   =     497.79 seconds =       8.30 minutes
	system time =       4.62 seconds =       0.08 minutes
	total time  =        126 seconds =       2.10 minutes
Grab this energy -157.81308944780176
    Psi4 stopped on: Friday, 05 November 2021 01:26PM
    Psi4 wall time for execution: 0:02:06.32

*** Psi4 exiting successfully. Buy a developer a beer!
