                               Psi4 1.4a2.dev629

  ==> Input File <==

--------------------------------------------------------------------------
import os
memory 14 GB

molecule {
 C   -0.3230390271   -0.0000025016    0.0002555393
 C    0.0627761769   -1.3978203018   -2.4218511751
 C    0.0608816129    2.7963140988   -0.0007664950
 C    0.0592276706   -1.3984905562    2.4214786325
 H    2.0864700995   -1.6409064520   -2.8416765516
 H   -0.7658647722   -0.3857892316   -4.0199670311
 H   -0.7658930403   -3.2885631566   -2.3440014528
 H    2.0865066114    3.2815084541    0.0002385651
 H   -0.7653460415    3.6742065388    1.6762827535
 H   -0.7656158284    3.6742966973   -1.6759492645
 H    2.0868221508   -1.6406932664    2.8417846954
 H   -0.7649158388   -3.2887660579    2.3439607457
 H   -0.7646176504   -0.3853185786    4.0202110386
units bohr
0 2
}

basis {

assign 6-31g_2dfp_

[ 6-31g_2dfp_ ]

spherical

!----------------------------------------------------------------------
! Basis Set Exchange
! Version v0.8.13
! https://www.basissetexchange.org
!----------------------------------------------------------------------
!   Basis set: 6-31G(2df,p)
! Description: 6-31G(2df,p)
!        Role: orbital
!     Version: 0  (Data from the original Basis Set Exchange)
!----------------------------------------------------------------------

****
H     0
S    3   1.00
     18.7311370              0.03349460
      2.8253937              0.23472695
      0.6401217              0.81375733
S    1   1.00
      0.1612778              1.00000000
P    1   1.00
      1.5000000              1.0000000
P    1   1.00
      0.3750000              1.0000000
****
B     0
S    6   1.00
   2068.8823000              0.0018663
    310.6495700              0.0142515
     70.6830330              0.0695516
     19.8610800              0.2325729
      6.2993048              0.4670787
      2.1270270              0.3634314
SP   3   1.00
      4.7279710             -0.1303938              0.0745976
      1.1903377             -0.1307889              0.3078467
      0.3594117              1.1309444              0.7434568
SP   1   1.00
      0.1267512              1.0000000              1.0000000
D    1   1.00
      0.8020000              1.0000000
D    1   1.00
      0.2005000              1.0000000
F    1   1.00
      0.5000000              1.0000000
****
C     0
S    6   1.00
   3047.5249000              0.0018347
    457.3695100              0.0140373
    103.9486900              0.0688426
     29.2101550              0.2321844
      9.2866630              0.4679413
      3.1639270              0.3623120
SP   3   1.00
      7.8682724             -0.1193324              0.0689991
      1.8812885             -0.1608542              0.3164240
      0.5442493              1.1434564              0.7443083
SP   1   1.00
      0.1687144              1.0000000              1.0000000
D    1   1.00
      1.2520000              1.0000000
D    1   1.00
      0.3130000              1.0000000
F    1   1.00
      0.8000000              1.0000000
****
N     0
S    6   1.00
   4173.5110000              0.0018348
    627.4579000              0.0139950
    142.9021000              0.0685870
     40.2343300              0.2322410
     12.8202100              0.4690700
      4.3904370              0.3604550
SP   3   1.00
     11.6263580             -0.1149610              0.0675800
      2.7162800             -0.1691180              0.3239070
      0.7722180              1.1458520              0.7408950
SP   1   1.00
      0.2120313              1.0000000              1.0000000
D    1   1.00
      1.8260000              1.0000000
D    1   1.00
      0.4565000              1.0000000
F    1   1.00
      1.0000000              1.0000000
****
O     0
S    6   1.00
   5484.6717000              0.0018311
    825.2349500              0.0139501
    188.0469600              0.0684451
     52.9645000              0.2327143
     16.8975700              0.4701930
      5.7996353              0.3585209
SP   3   1.00
     15.5396160             -0.1107775              0.0708743
      3.5999336             -0.1480263              0.3397528
      1.0137618              1.1307670              0.7271586
SP   1   1.00
      0.2700058              1.0000000              1.0000000
D    1   1.00
      2.5840000              1.0000000
D    1   1.00
      0.6460000              1.0000000
F    1   1.00
      1.4000000              1.0000000
****
F     0
S    6   1.00
   7001.7130900              0.0018196169
   1051.3660900              0.0139160796
    239.2856900              0.0684053245
     67.3974453              0.233185760
     21.5199573              0.471267439
      7.40310130             0.356618546
SP   3   1.00
     20.8479528             -0.108506975            0.0716287243
      4.80830834            -0.146451658            0.3459121030
      1.34406986             1.128688580            0.7224699570
SP   1   1.00
      0.358151393            1.0000000              1.0000000
D    1   1.00
      3.5000000              1.0000000
D    1   1.00
      0.8750000              1.0000000
F    1   1.00
      1.8500000              1.0000000
****
Al     0
S    6   1.00
  13983.1000000              0.00194267
   2098.7500000              0.0148599
    477.7050000              0.0728494
    134.3600000              0.2468300
     42.8709000              0.4872580
     14.5189000              0.3234960
SP   6   1.00
    239.6680000             -0.00292619             0.00460285
     57.4419000             -0.0374080              0.0331990
     18.2859000             -0.1144870              0.1362820
      6.5991400              0.1156350              0.3304760
      2.4904900              0.6125950              0.4491460
      0.9445400              0.3937990              0.2657040
SP   3   1.00
      1.2779000             -0.2276060             -0.0175130
      0.3975900              0.00144583             0.2445330
      0.1600950              1.0927900              0.8049340
SP   1   1.00
      0.0556577              1.0000000              1.0000000
D    1   1.00
      0.6500000              1.0000000
D    1   1.00
      0.1625000              1.0000000
F    1   1.00
      0.2500000              1.0000000
****
Si     0
S    6   1.00
  16115.9000000              0.00195948
   2425.5800000              0.01492880
    553.8670000              0.07284780
    156.3400000              0.24613000
     50.0683000              0.48591400
     17.0178000              0.32500200
SP   6   1.00
    292.7180000             -0.00278094             0.00443826
     69.8731000             -0.03571460             0.03266790
     22.3363000             -0.11498500             0.13472100
      8.1503900              0.09356340             0.32867800
      3.1345800              0.60301700             0.44964000
      1.2254300              0.41895900             0.26137200
SP   3   1.00
      1.7273800             -0.24463000            -0.01779510
      0.5729220              0.00431572             0.25353900
      0.2221920              1.09818000             0.80066900
SP   1   1.00
      0.0778369              1.00000000             1.00000000
D    1   1.00
      0.9000000              1.0000000
D    1   1.00
      0.2250000              1.0000000
F    1   1.00
      0.3200000              1.0000000
****
P     0
S    6   1.00
  19413.3000000              0.0018516
   2909.4200000              0.0142062
    661.3640000              0.0699995
    185.7590000              0.2400790
     59.1943000              0.4847620
     20.0310000              0.3352000
SP   6   1.00
    339.4780000             -0.00278217             0.00456462
     81.0101000             -0.0360499              0.03369360
     25.8780000             -0.1166310              0.13975500
      9.4522100              0.0968328              0.33936200
      3.6656600              0.6144180              0.45092100
      1.4674600              0.4037980              0.23858600
SP   3   1.00
      2.1562300             -0.2529230             -0.01776530
      0.7489970              0.0328517              0.27405800
      0.2831450              1.0812500              0.78542100
SP   1   1.00
      0.0998317              1.0000000              1.00000000
D    1   1.00
      1.1000000              1.0000000
D    1   1.00
      0.2750000              1.0000000
F    1   1.00
      0.4500000              1.0000000
****
S     0
S    6   1.00
  21917.1000000              0.0018690
   3301.4900000              0.0142300
    754.1460000              0.0696960
    212.7110000              0.2384870
     67.9896000              0.4833070
     23.0515000              0.3380740
SP   6   1.00
    423.7350000             -0.0023767              0.0040610
    100.7100000             -0.0316930              0.0306810
     32.1599000             -0.1133170              0.1304520
     11.8079000              0.0560900              0.3272050
      4.6311000              0.5922550              0.4528510
      1.8702500              0.4550060              0.2560420
SP   3   1.00
      2.6158400             -0.2503740             -0.0145110
      0.9221670              0.0669570              0.3102630
      0.3412870              1.0545100              0.7544830
SP   1   1.00
      0.1171670              1.0000000              1.0000000
D    1   1.00
      1.3000000              1.0000000
D    1   1.00
      0.3250000              1.0000000
F    1   1.00
      0.5500000              1.0000000
****
Cl     0
S    6   1.00
  25180.1000000              0.0018330
   3780.3500000              0.0140340
    860.4740000              0.0690970
    242.1450000              0.2374520
     77.3349000              0.4830340
     26.2470000              0.3398560
SP   6   1.00
    491.7650000             -0.0022974              0.0039894
    116.9840000             -0.0307140              0.0303180
     37.4153000             -0.1125280              0.1298800
     13.7834000              0.0450160              0.3279510
      5.4521500              0.5893530              0.4535270
      2.2258800              0.4652060              0.2521540
SP   3   1.00
      3.1864900             -0.2518300             -0.0142990
      1.1442700              0.0615890              0.3235720
      0.4203770              1.0601800              0.7435070
SP   1   1.00
      0.1426570              1.0000000              1.0000000
D    1   1.00
      1.5000000              1.0000000
D    1   1.00
      0.3750000              1.0000000
F    1   1.00
      0.7000000              1.0000000
****
}

set {
reference uhf
freeze_core true
e_convergence 10
d_convergence 10
dft_spherical_points 1202
dft_radial_points 99
}

e = energy('b3lyp')

print_out('Grab this energy {0}'.format(e))
--------------------------------------------------------------------------

    Molecular point group: c1

    Geometry (in Bohr), charge = 0, multiplicity = 2:

       Center              X                  Y                   Z               Mass
    ------------   -----------------  -----------------  -----------------  -----------------
         C           -0.323017150418    -0.000002214612     0.000425707436    12.000000000000
         C            0.062798053582    -1.397820014812    -2.421681006964    12.000000000000
         C            0.060903489582     2.796314385788    -0.000596326864    12.000000000000
         C            0.059249547282    -1.398490269212     2.421648800636    12.000000000000
         H            2.086491976182    -1.640906165012    -2.841506383464     1.007825032230
         H           -0.765842895518    -0.385788944612    -4.019796862964     1.007825032230
         H           -0.765871163618    -3.288562869612    -2.343831284664     1.007825032230
         H            2.086528488082     3.281508741088     0.000408733236     1.007825032230
         H           -0.765324164818     3.674206825788     1.676452921636     1.007825032230
         H           -0.765593951718     3.674296984288    -1.675779096364     1.007825032230
         H            2.086844027482    -1.640692979412     2.841954863536     1.007825032230
         H           -0.764893962118    -3.288765770912     2.344130913836     1.007825032230
         H           -0.764595773718    -0.385318291612     4.020381206736     1.007825032230

  Charge       = 0
  Multiplicity = 2
  Basis Set: ANONYMOUSA84E8983
    Blend: 6-31G_2DFP_
  Basis Set: (ANONYMOUSA84E8983 AUX)
    Blend: DEF2-UNIVERSAL-JKFIT

    Orbital Energies [Eh]
    ---------------------

    Alpha Occupied:

       1A    -10.179568     2A    -10.166689     3A    -10.166658
       4A    -10.166612     5A     -0.798816     6A     -0.686522
       7A     -0.686455     8A     -0.530774     9A     -0.441723
      10A     -0.435252    11A     -0.435050    12A     -0.382824
      13A     -0.382523    14A     -0.363493    15A     -0.338271
      16A     -0.338102    17A     -0.168636

    Alpha Virtual:

      18A      0.076043    19A      0.134161    20A      0.134228
      21A      0.142769    22A      0.142894    23A      0.154942
      24A      0.178841    25A      0.179068    26A      0.204641
      27A      0.215148    28A      0.276452    29A      0.276559
      30A      0.399041    31A      0.399361    32A      0.403139
      33A      0.423777    34A      0.423872    35A      0.457176
      36A      0.495590    37A      0.495646    38A      0.512498
      39A      0.514381    40A      0.579408    41A      0.579587
      42A      0.592059    43A      0.592298    44A      0.603035
      45A      0.625167    46A      0.632129    47A      0.636961
      48A      0.637173    49A      0.663720    50A      0.664055
      51A      0.684158    52A      0.684456    53A      0.734788
      54A      0.825238    55A      0.825266    56A      0.854917
      57A      0.915735    58A      0.915776    59A      0.944024
      60A      0.945466    61A      0.962176    62A      0.962332
      63A      1.004583    64A      1.128901    65A      1.129108
      66A      1.142570    67A      1.163941    68A      1.164131
      69A      1.224230    70A      1.275256    71A      1.275536
      72A      1.279872    73A      1.324438    74A      1.324944
      75A      1.356157    76A      1.367585    77A      1.368189
      78A      1.393960    79A      1.403636    80A      1.403890
      81A      1.417204    82A      1.417775    83A      1.429319
      84A      1.492715    85A      1.499660    86A      1.543521
      87A      1.543598    88A      1.575456    89A      1.575752
      90A      1.669767    91A      1.739636    92A      1.740448
      93A      1.769845    94A      1.832389    95A      1.832785
      96A      1.973118    97A      2.019523    98A      2.020522
      99A      2.020905   100A      2.056775   101A      2.057514
     102A      2.739039   103A      2.739119   104A      2.792078
     105A      2.814156   106A      2.890812   107A      2.891361
     108A      2.896456   109A      2.929654   110A      2.929714
     111A      2.959235   112A      2.963963   113A      2.964172
     114A      3.033967   115A      3.072121   116A      3.072369
     117A      3.085944   118A      3.169511   119A      3.169754
     120A      3.182486   121A      3.285770   122A      3.285854
     123A      3.327446   124A      3.327747   125A      3.374229
     126A      3.491637   127A      3.492243   128A      3.514790
     129A      3.527648   130A      3.568228   131A      3.568447
     132A      3.577280   133A      3.666056   134A      3.666643
     135A      3.681625   136A      3.695573   137A      3.695597
     138A      3.781236   139A      3.781342   140A      3.789797
     141A      3.914225   142A      3.914391   143A      4.036303
     144A      4.114125   145A      4.114269   146A      4.148824
     147A      4.148976   148A      4.174457   149A      4.204010
     150A      4.205283   151A      4.205642   152A      4.212422
     153A      4.317069   154A      4.317933   155A      4.361504
     156A      4.426405   157A      4.426649   158A      4.445856
     159A      4.518795   160A      4.520900   161A      4.581627
     162A      4.582063   163A      4.624890   164A      4.714233
     165A      4.780512   166A      4.781541   167A      4.840853
     168A      4.965929   169A      5.004105   170A      5.005016
     171A      5.229070   172A      5.248205   173A      5.248249
     174A      5.357854   175A      5.358403   176A      5.485114

    Beta Occupied:

       1A    -10.167447     2A    -10.167416     3A    -10.167379
       4A    -10.165773     5A     -0.782119     6A     -0.684304
       7A     -0.684238     8A     -0.511845     9A     -0.431610
      10A     -0.431399    11A     -0.422322    12A     -0.376881
      13A     -0.376562    14A     -0.362465    15A     -0.333400
      16A     -0.333228

    Beta Virtual:

      17A     -0.025711    18A      0.077063    19A      0.135053
      20A      0.135104    21A      0.144672    22A      0.144788
      23A      0.163446    24A      0.182537    25A      0.182767
      26A      0.215385    27A      0.219843    28A      0.282733
      29A      0.282835    30A      0.400243    31A      0.400566
      32A      0.419485    33A      0.426576    34A      0.426676
      35A      0.469439    36A      0.497868    37A      0.497916
      38A      0.514248    39A      0.556648    40A      0.584971
      41A      0.585139    42A      0.598172    43A      0.598421
      44A      0.610502    45A      0.628602    46A      0.632294
      47A      0.640320    48A      0.640533    49A      0.667257
      50A      0.667560    51A      0.686872    52A      0.687174
      53A      0.757133    54A      0.830426    55A      0.830449
      56A      0.856307    57A      0.923721    58A      0.923760
      59A      0.947305    60A      0.952860    61A      0.967500
      62A      0.967670    63A      1.009749    64A      1.132891
      65A      1.133174    66A      1.155962    67A      1.169063
      68A      1.169157    69A      1.233341    70A      1.280886
      71A      1.281176    72A      1.285558    73A      1.329415
      74A      1.329942    75A      1.365603    76A      1.372817
      77A      1.373423    78A      1.395026    79A      1.407065
      80A      1.407343    81A      1.422320    82A      1.422862
      83A      1.429621    84A      1.493762    85A      1.510168
      86A      1.547882    87A      1.547942    88A      1.583446
      89A      1.583639    90A      1.674620    91A      1.745409
      92A      1.746207    93A      1.780649    94A      1.836262
      95A      1.836658    96A      1.973981    97A      2.025945
      98A      2.027216    99A      2.042061   100A      2.063537
     101A      2.064228   102A      2.747283   103A      2.747354
     104A      2.814572   105A      2.817194   106A      2.903277
     107A      2.903807   108A      2.926228   109A      2.932310
     110A      2.932367   111A      2.960308   112A      2.968572
     113A      2.968771   114A      3.041990   115A      3.082120
     116A      3.082354   117A      3.087787   118A      3.185173
     119A      3.185373   120A      3.190114   121A      3.290754
     122A      3.290819   123A      3.331162   124A      3.331491
     125A      3.382032   126A      3.494361   127A      3.494967
     128A      3.513144   129A      3.530644   130A      3.577158
     131A      3.581631   132A      3.581729   133A      3.670755
     134A      3.671236   135A      3.694901   136A      3.726898
     137A      3.727185   138A      3.785810   139A      3.785895
     140A      3.818208   141A      3.924032   142A      3.924230
     143A      4.047125   144A      4.120710   145A      4.120749
     146A      4.156183   147A      4.156424   148A      4.188634
     149A      4.211135   150A      4.211484   151A      4.212218
     152A      4.216967   153A      4.324516   154A      4.325427
     155A      4.364848   156A      4.434737   157A      4.434960
     158A      4.448752   159A      4.526717   160A      4.528815
     161A      4.592261   162A      4.592669   163A      4.632063
     164A      4.724662   165A      4.787486   166A      4.788479
     167A      4.843768   168A      4.970747   169A      5.008201
     170A      5.009077   171A      5.234824   172A      5.250001
     173A      5.250045   174A      5.364391   175A      5.364936
     176A      5.487458

    Final Occupation by Irrep:
              A
    DOCC [    16 ]
    SOCC [     1 ]

  @DF-UKS Final Energy:  -157.81304127385573

   => Energetics <=

    Nuclear Repulsion Energy =            125.5761385904393137
    One-Electron Energy =                -459.1062454437466158
    Two-Electron Energy =                 196.0280163842521119
    DFT Exchange-Correlation Energy =     -20.3109508048005409
    Empirical Dispersion Energy =           0.0000000000000000
    VV10 Nonlocal Energy =                  0.0000000000000000
    Total Energy =                       -157.8130412738557311

  UHF NO Occupations:
  HONO-2 :   15  A 1.9995992
  HONO-1 :   16  A 1.9989874
  HONO-0 :   17  A 1.0000000
  LUNO+0 :   18  A 0.0010126
  LUNO+1 :   19  A 0.0004008
  LUNO+2 :   20  A 0.0001955
  LUNO+3 :   21  A 0.0001953

Computation Completed

Properties will be evaluated at   0.000000,   0.000000,   0.000000 [a0]

Properties computed using the SCF density matrix

  Nuclear Dipole Moment: [e a0]
     X:     0.8273      Y:    -0.0000      Z:     0.0012

  Electronic Dipole Moment: [e a0]
     X:    -0.7503      Y:     0.0000      Z:    -0.0011

  Dipole Moment: [e a0]
     X:     0.0770      Y:     0.0000      Z:     0.0001     Total:     0.0770

  Dipole Moment: [D]
     X:     0.1958      Y:     0.0000      Z:     0.0003     Total:     0.1958

*** tstop() called on n051 at Fri Nov  5 12:25:52 2021
Module time:
	user time   =     544.70 seconds =       9.08 minutes
	system time =      12.30 seconds =       0.20 minutes
	total time  =        140 seconds =       2.33 minutes
Total time:
	user time   =     544.70 seconds =       9.08 minutes
	system time =      12.30 seconds =       0.20 minutes
	total time  =        140 seconds =       2.33 minutes
Grab this energy -157.81304127385573
    Psi4 stopped on: Friday, 05 November 2021 12:25PM
    Psi4 wall time for execution: 0:02:20.04

*** Psi4 exiting successfully. Buy a developer a beer!
