                               Psi4 1.4a2.dev629

  ==> Input File <==

--------------------------------------------------------------------------
import os
memory 14 GB

molecule {
 C   -0.3233393781   -0.0000006550    0.0004311852
 C    0.0608706691   -1.4015645705   -2.4260891925
 C    0.0610247173    2.8017604269    0.0013405969
 C    0.0614079464   -1.4001889879    2.4266724204
 H    2.0877163524   -1.6496439650   -2.8442301130
 H   -0.7632943882   -0.3863207415   -4.0269844323
 H   -0.7682758464   -3.2884964551   -2.3508918806
 H    2.0868019618    3.2881036625   -0.0011570133
 H   -0.7584386412    3.6791188812    1.6760883733
 H   -0.7728643794    3.6813854222   -1.6768866897
 H    2.0861415502   -1.6385602119    2.8506484026
 H   -0.7628515673   -3.2954967602    2.3470802812
 H   -0.7675068732   -0.3901203595    4.0239780619
units bohr
0 2
}

basis {

assign 6-31g_2dfp_

[ 6-31g_2dfp_ ]

spherical

!----------------------------------------------------------------------
! Basis Set Exchange
! Version v0.8.13
! https://www.basissetexchange.org
!----------------------------------------------------------------------
!   Basis set: 6-31G(2df,p)
! Description: 6-31G(2df,p)
!        Role: orbital
!     Version: 0  (Data from the original Basis Set Exchange)
!----------------------------------------------------------------------

****
H     0
S    3   1.00
     18.7311370              0.03349460
      2.8253937              0.23472695
      0.6401217              0.81375733
S    1   1.00
      0.1612778              1.00000000
P    1   1.00
      1.5000000              1.0000000
P    1   1.00
      0.3750000              1.0000000
****
B     0
S    6   1.00
   2068.8823000              0.0018663
    310.6495700              0.0142515
     70.6830330              0.0695516
     19.8610800              0.2325729
      6.2993048              0.4670787
      2.1270270              0.3634314
SP   3   1.00
      4.7279710             -0.1303938              0.0745976
      1.1903377             -0.1307889              0.3078467
      0.3594117              1.1309444              0.7434568
SP   1   1.00
      0.1267512              1.0000000              1.0000000
D    1   1.00
      0.8020000              1.0000000
D    1   1.00
      0.2005000              1.0000000
F    1   1.00
      0.5000000              1.0000000
****
C     0
S    6   1.00
   3047.5249000              0.0018347
    457.3695100              0.0140373
    103.9486900              0.0688426
     29.2101550              0.2321844
      9.2866630              0.4679413
      3.1639270              0.3623120
SP   3   1.00
      7.8682724             -0.1193324              0.0689991
      1.8812885             -0.1608542              0.3164240
      0.5442493              1.1434564              0.7443083
SP   1   1.00
      0.1687144              1.0000000              1.0000000
D    1   1.00
      1.2520000              1.0000000
D    1   1.00
      0.3130000              1.0000000
F    1   1.00
      0.8000000              1.0000000
****
N     0
S    6   1.00
   4173.5110000              0.0018348
    627.4579000              0.0139950
    142.9021000              0.0685870
     40.2343300              0.2322410
     12.8202100              0.4690700
      4.3904370              0.3604550
SP   3   1.00
     11.6263580             -0.1149610              0.0675800
      2.7162800             -0.1691180              0.3239070
      0.7722180              1.1458520              0.7408950
SP   1   1.00
      0.2120313              1.0000000              1.0000000
D    1   1.00
      1.8260000              1.0000000
D    1   1.00
      0.4565000              1.0000000
F    1   1.00
      1.0000000              1.0000000
****
O     0
S    6   1.00
   5484.6717000              0.0018311
    825.2349500              0.0139501
    188.0469600              0.0684451
     52.9645000              0.2327143
     16.8975700              0.4701930
      5.7996353              0.3585209
SP   3   1.00
     15.5396160             -0.1107775              0.0708743
      3.5999336             -0.1480263              0.3397528
      1.0137618              1.1307670              0.7271586
SP   1   1.00
      0.2700058              1.0000000              1.0000000
D    1   1.00
      2.5840000              1.0000000
D    1   1.00
      0.6460000              1.0000000
F    1   1.00
      1.4000000              1.0000000
****
F     0
S    6   1.00
   7001.7130900              0.0018196169
   1051.3660900              0.0139160796
    239.2856900              0.0684053245
     67.3974453              0.233185760
     21.5199573              0.471267439
      7.40310130             0.356618546
SP   3   1.00
     20.8479528             -0.108506975            0.0716287243
      4.80830834            -0.146451658            0.3459121030
      1.34406986             1.128688580            0.7224699570
SP   1   1.00
      0.358151393            1.0000000              1.0000000
D    1   1.00
      3.5000000              1.0000000
D    1   1.00
      0.8750000              1.0000000
F    1   1.00
      1.8500000              1.0000000
****
Al     0
S    6   1.00
  13983.1000000              0.00194267
   2098.7500000              0.0148599
    477.7050000              0.0728494
    134.3600000              0.2468300
     42.8709000              0.4872580
     14.5189000              0.3234960
SP   6   1.00
    239.6680000             -0.00292619             0.00460285
     57.4419000             -0.0374080              0.0331990
     18.2859000             -0.1144870              0.1362820
      6.5991400              0.1156350              0.3304760
      2.4904900              0.6125950              0.4491460
      0.9445400              0.3937990              0.2657040
SP   3   1.00
      1.2779000             -0.2276060             -0.0175130
      0.3975900              0.00144583             0.2445330
      0.1600950              1.0927900              0.8049340
SP   1   1.00
      0.0556577              1.0000000              1.0000000
D    1   1.00
      0.6500000              1.0000000
D    1   1.00
      0.1625000              1.0000000
F    1   1.00
      0.2500000              1.0000000
****
Si     0
S    6   1.00
  16115.9000000              0.00195948
   2425.5800000              0.01492880
    553.8670000              0.07284780
    156.3400000              0.24613000
     50.0683000              0.48591400
     17.0178000              0.32500200
SP   6   1.00
    292.7180000             -0.00278094             0.00443826
     69.8731000             -0.03571460             0.03266790
     22.3363000             -0.11498500             0.13472100
      8.1503900              0.09356340             0.32867800
      3.1345800              0.60301700             0.44964000
      1.2254300              0.41895900             0.26137200
SP   3   1.00
      1.7273800             -0.24463000            -0.01779510
      0.5729220              0.00431572             0.25353900
      0.2221920              1.09818000             0.80066900
SP   1   1.00
      0.0778369              1.00000000             1.00000000
D    1   1.00
      0.9000000              1.0000000
D    1   1.00
      0.2250000              1.0000000
F    1   1.00
      0.3200000              1.0000000
****
P     0
S    6   1.00
  19413.3000000              0.0018516
   2909.4200000              0.0142062
    661.3640000              0.0699995
    185.7590000              0.2400790
     59.1943000              0.4847620
     20.0310000              0.3352000
SP   6   1.00
    339.4780000             -0.00278217             0.00456462
     81.0101000             -0.0360499              0.03369360
     25.8780000             -0.1166310              0.13975500
      9.4522100              0.0968328              0.33936200
      3.6656600              0.6144180              0.45092100
      1.4674600              0.4037980              0.23858600
SP   3   1.00
      2.1562300             -0.2529230             -0.01776530
      0.7489970              0.0328517              0.27405800
      0.2831450              1.0812500              0.78542100
SP   1   1.00
      0.0998317              1.0000000              1.00000000
D    1   1.00
      1.1000000              1.0000000
D    1   1.00
      0.2750000              1.0000000
F    1   1.00
      0.4500000              1.0000000
****
S     0
S    6   1.00
  21917.1000000              0.0018690
   3301.4900000              0.0142300
    754.1460000              0.0696960
    212.7110000              0.2384870
     67.9896000              0.4833070
     23.0515000              0.3380740
SP   6   1.00
    423.7350000             -0.0023767              0.0040610
    100.7100000             -0.0316930              0.0306810
     32.1599000             -0.1133170              0.1304520
     11.8079000              0.0560900              0.3272050
      4.6311000              0.5922550              0.4528510
      1.8702500              0.4550060              0.2560420
SP   3   1.00
      2.6158400             -0.2503740             -0.0145110
      0.9221670              0.0669570              0.3102630
      0.3412870              1.0545100              0.7544830
SP   1   1.00
      0.1171670              1.0000000              1.0000000
D    1   1.00
      1.3000000              1.0000000
D    1   1.00
      0.3250000              1.0000000
F    1   1.00
      0.5500000              1.0000000
****
Cl     0
S    6   1.00
  25180.1000000              0.0018330
   3780.3500000              0.0140340
    860.4740000              0.0690970
    242.1450000              0.2374520
     77.3349000              0.4830340
     26.2470000              0.3398560
SP   6   1.00
    491.7650000             -0.0022974              0.0039894
    116.9840000             -0.0307140              0.0303180
     37.4153000             -0.1125280              0.1298800
     13.7834000              0.0450160              0.3279510
      5.4521500              0.5893530              0.4535270
      2.2258800              0.4652060              0.2521540
SP   3   1.00
      3.1864900             -0.2518300             -0.0142990
      1.1442700              0.0615890              0.3235720
      0.4203770              1.0601800              0.7435070
SP   1   1.00
      0.1426570              1.0000000              1.0000000
D    1   1.00
      1.5000000              1.0000000
D    1   1.00
      0.3750000              1.0000000
F    1   1.00
      0.7000000              1.0000000
****
}

set {
reference uhf
freeze_core true
e_convergence 10
d_convergence 10
dft_spherical_points 1202
dft_radial_points 99
}

e = energy('b3lyp')

print_out('Grab this energy {0}'.format(e))
--------------------------------------------------------------------------

    Molecular point group: c1

    Geometry (in Bohr), charge = 0, multiplicity = 2:

       Center              X                  Y                   Z               Mass
    ------------   -----------------  -----------------  -----------------  -----------------
         C           -0.323340136886    -0.000001422400    -0.000022406690    12.000000000000
         C            0.060869910314    -1.401565337900    -2.426542784390    12.000000000000
         C            0.061023958514     2.801759659500     0.000887005010    12.000000000000
         C            0.061407187614    -1.400189755300     2.426218828510    12.000000000000
         H            2.087715593614    -1.649644732400    -2.844683704890     1.007825032230
         H           -0.763295146986    -0.386321508900    -4.027438024190     1.007825032230
         H           -0.768276605186    -3.288497222500    -2.351345472490     1.007825032230
         H            2.086801203014     3.288102895100    -0.001610605190     1.007825032230
         H           -0.758439399986     3.679118113800     1.675634781410     1.007825032230
         H           -0.772865138186     3.681384654800    -1.677340281590     1.007825032230
         H            2.086140791414    -1.638560979300     2.850194810710     1.007825032230
         H           -0.762852326086    -3.295497527600     2.346626689310     1.007825032230
         H           -0.767507631986    -0.390121126900     4.023524470010     1.007825032230

  Charge       = 0
  Multiplicity = 2
  Basis Set: ANONYMOUSB0473796
    Blend: 6-31G_2DFP_
  Basis Set: (ANONYMOUSB0473796 AUX)
    Blend: DEF2-UNIVERSAL-JKFIT

    Orbital Energies [Eh]
    ---------------------

    Alpha Occupied:

       1A    -10.180342     2A    -10.167034     3A    -10.167027
       4A    -10.166984     5A     -0.797766     6A     -0.686248
       7A     -0.686128     8A     -0.530778     9A     -0.441126
      10A     -0.434857    11A     -0.434482    12A     -0.382622
      13A     -0.382576    14A     -0.363612    15A     -0.338161
      16A     -0.337836    17A     -0.168961

    Alpha Virtual:

      18A      0.076070    19A      0.134040    20A      0.134268
      21A      0.142423    22A      0.142833    23A      0.154882
      24A      0.178684    25A      0.178870    26A      0.203546
      27A      0.214803    28A      0.275877    29A      0.276096
      30A      0.398981    31A      0.399474    32A      0.403345
      33A      0.423935    34A      0.424259    35A      0.456593
      36A      0.495339    37A      0.495441    38A      0.512147
      39A      0.513993    40A      0.578759    41A      0.578875
      42A      0.591490    43A      0.591775    44A      0.602569
      45A      0.624716    46A      0.631771    47A      0.635990
      48A      0.636554    49A      0.663202    50A      0.663622
      51A      0.683660    52A      0.684060    53A      0.734994
      54A      0.825156    55A      0.825659    56A      0.853914
      57A      0.914809    58A      0.915238    59A      0.944010
      60A      0.944713    61A      0.961214    62A      0.961383
      63A      1.003467    64A      1.127832    65A      1.128395
      66A      1.142224    67A      1.163208    68A      1.163329
      69A      1.223323    70A      1.274240    71A      1.274729
      72A      1.279354    73A      1.324143    74A      1.324563
      75A      1.355974    76A      1.365750    77A      1.366352
      78A      1.392464    79A      1.404005    80A      1.404094
      81A      1.416412    82A      1.417814    83A      1.427898
      84A      1.491471    85A      1.499095    86A      1.542813
      87A      1.542857    88A      1.574242    89A      1.574651
      90A      1.669832    91A      1.738708    92A      1.740121
      93A      1.768322    94A      1.830613    95A      1.832162
      96A      1.971752    97A      2.017642    98A      2.018835
      99A      2.019904   100A      2.052117   101A      2.053176
     102A      2.738304   103A      2.738667   104A      2.790917
     105A      2.811427   106A      2.889803   107A      2.890103
     108A      2.894942   109A      2.929473   110A      2.929522
     111A      2.958960   112A      2.964336   113A      2.964454
     114A      3.034009   115A      3.070707   116A      3.071798
     117A      3.084435   118A      3.168365   119A      3.169196
     120A      3.180588   121A      3.285151   122A      3.285470
     123A      3.326781   124A      3.327544   125A      3.375630
     126A      3.489889   127A      3.490445   128A      3.514001
     129A      3.525335   130A      3.567955   131A      3.568828
     132A      3.575128   133A      3.665916   134A      3.666891
     135A      3.679642   136A      3.693896   137A      3.694371
     138A      3.776680   139A      3.776904   140A      3.789127
     141A      3.911641   142A      3.912801   143A      4.034447
     144A      4.110813   145A      4.111864   146A      4.147793
     147A      4.148381   148A      4.173339   149A      4.202231
     150A      4.202658   151A      4.203831   152A      4.210976
     153A      4.315311   154A      4.316628   155A      4.358974
     156A      4.423916   157A      4.425001   158A      4.443447
     159A      4.515792   160A      4.517883   161A      4.578259
     162A      4.578283   163A      4.617548   164A      4.709422
     165A      4.773617   166A      4.775589   167A      4.836908
     168A      4.962864   169A      5.002590   170A      5.003328
     171A      5.227586   172A      5.246758   173A      5.247269
     174A      5.354254   175A      5.356778   176A      5.479411

    Beta Occupied:

       1A    -10.167787     2A    -10.167780     3A    -10.167757
       4A    -10.166519     5A     -0.781091     6A     -0.684052
       7A     -0.683928     8A     -0.511749     9A     -0.431229
      10A     -0.430854    11A     -0.421820    12A     -0.376703
      13A     -0.376666    14A     -0.362596    15A     -0.333280
      16A     -0.332963

    Beta Virtual:

      17A     -0.025742    18A      0.077079    19A      0.134906
      20A      0.135183    21A      0.144266    22A      0.144731
      23A      0.163340    24A      0.182356    25A      0.182541
      26A      0.215032    27A      0.218930    28A      0.282225
      29A      0.282443    30A      0.400147    31A      0.400648
      32A      0.419791    33A      0.426746    34A      0.427071
      35A      0.468501    36A      0.497594    37A      0.497706
      38A      0.513895    39A      0.556326    40A      0.584311
      41A      0.584423    42A      0.597645    43A      0.597977
      44A      0.609993    45A      0.628094    46A      0.631929
      47A      0.639294    48A      0.639819    49A      0.666781
      50A      0.667172    51A      0.686317    52A      0.686672
      53A      0.757518    54A      0.830336    55A      0.830816
      56A      0.855267    57A      0.922801    58A      0.923190
      59A      0.945943    60A      0.953544    61A      0.966503
      62A      0.966708    63A      1.008707    64A      1.131864
      65A      1.132419    66A      1.155603    67A      1.168286
      68A      1.168398    69A      1.232295    70A      1.279820
      71A      1.280343    72A      1.285108    73A      1.329133
      74A      1.329550    75A      1.365384    76A      1.371056
      77A      1.371532    78A      1.393529    79A      1.407452
      80A      1.407578    81A      1.421513    82A      1.422815
      83A      1.428167    84A      1.492534    85A      1.509524
      86A      1.547194    87A      1.547293    88A      1.582112
      89A      1.582521    90A      1.674679    91A      1.744457
      92A      1.745898    93A      1.779100    94A      1.834463
      95A      1.836021    96A      1.972613    97A      2.024867
      98A      2.025988    99A      2.039692   100A      2.058825
     101A      2.059910   102A      2.746628   103A      2.747014
     104A      2.811792   105A      2.816100   106A      2.902449
     107A      2.902833   108A      2.924652   109A      2.931955
     110A      2.931999   111A      2.960036   112A      2.968867
     113A      2.968999   114A      3.041943   115A      3.080556
     116A      3.081641   117A      3.086381   118A      3.184147
     119A      3.184909   120A      3.188275   121A      3.289939
     122A      3.290280   123A      3.330551   124A      3.331382
     125A      3.383448   126A      3.492633   127A      3.493163
     128A      3.512370   129A      3.528375   130A      3.574990
     131A      3.581216   132A      3.582247   133A      3.670793
     134A      3.671503   135A      3.692947   136A      3.725712
     137A      3.725814   138A      3.781177   139A      3.781464
     140A      3.817667   141A      3.921391   142A      3.922683
     143A      4.045335   144A      4.117420   145A      4.118892
     146A      4.154781   147A      4.155825   148A      4.187376
     149A      4.208194   150A      4.209728   151A      4.210629
     152A      4.215466   153A      4.322795   154A      4.324029
     155A      4.362337   156A      4.432150   157A      4.433194
     158A      4.446331   159A      4.523575   160A      4.525680
     161A      4.588837   162A      4.588909   163A      4.624740
     164A      4.719765   165A      4.780598   166A      4.782516
     167A      4.839825   168A      4.967658   169A      5.006631
     170A      5.007365   171A      5.233196   172A      5.248550
     173A      5.249155   174A      5.360743   175A      5.363244
     176A      5.481734

    Final Occupation by Irrep:
              A
    DOCC [    16 ]
    SOCC [     1 ]

  @DF-UKS Final Energy:  -157.81306133538055

   => Energetics <=

    Nuclear Repulsion Energy =            125.3946206017783709
    One-Electron Energy =                -458.7488821921954241
    Two-Electron Energy =                 195.8483456630738715
    DFT Exchange-Correlation Energy =     -20.3071454080373393
    Empirical Dispersion Energy =           0.0000000000000000
    VV10 Nonlocal Energy =                  0.0000000000000000
    Total Energy =                       -157.8130613353805529

  UHF NO Occupations:
  HONO-2 :   15  A 1.9996009
  HONO-1 :   16  A 1.9989805
  HONO-0 :   17  A 1.0000000
  LUNO+0 :   18  A 0.0010195
  LUNO+1 :   19  A 0.0003991
  LUNO+2 :   20  A 0.0001976
  LUNO+3 :   21  A 0.0001975

Computation Completed

Properties will be evaluated at   0.000000,   0.000000,   0.000000 [a0]

Properties computed using the SCF density matrix

  Nuclear Dipole Moment: [e a0]
     X:     0.8272      Y:    -0.0000      Z:    -0.0032

  Electronic Dipole Moment: [e a0]
     X:    -0.7493      Y:     0.0000      Z:     0.0049

  Dipole Moment: [e a0]
     X:     0.0779      Y:     0.0000      Z:     0.0017     Total:     0.0779

  Dipole Moment: [D]
     X:     0.1980      Y:     0.0000      Z:     0.0044     Total:     0.1981

*** tstop() called on n082 at Fri Nov  5 14:36:00 2021
Module time:
	user time   =     463.72 seconds =       7.73 minutes
	system time =       4.35 seconds =       0.07 minutes
	total time  =        118 seconds =       1.97 minutes
Total time:
	user time   =     463.72 seconds =       7.73 minutes
	system time =       4.35 seconds =       0.07 minutes
	total time  =        118 seconds =       1.97 minutes
Grab this energy -157.81306133538055
    Psi4 stopped on: Friday, 05 November 2021 02:36PM
    Psi4 wall time for execution: 0:01:57.74

*** Psi4 exiting successfully. Buy a developer a beer!
