                               Psi4 1.4a2.dev629

  ==> Input File <==

--------------------------------------------------------------------------
import os
memory 14 GB

molecule {
 C   -0.3233397468   -0.0002111160    0.0000000000
 C    0.0613796843   -1.4020983761   -2.4269242319
 C    0.0605430534    2.7995956041    0.0000000000
 C    0.0613796843   -1.4020983761    2.4269242319
 H    2.0865214349   -1.6466904450   -2.8455565528
 H   -0.7681259494   -0.3862281203   -4.0270777354
 H   -0.7626297405   -3.2901416464   -2.3486789665
 H    2.0876262620    3.2887800997    0.0000000000
 H   -0.7658641520    3.6810641371    1.6754271747
 H   -0.7658641520    3.6810641371   -1.6754271747
 H    2.0865214349   -1.6466904450    2.8455565528
 H   -0.7626297405   -3.2901416464    2.3486789665
 H   -0.7681259494   -0.3862281203    4.0270777354
units bohr
0 2
}

basis {

assign 6-31g_2dfp_

[ 6-31g_2dfp_ ]

spherical

!----------------------------------------------------------------------
! Basis Set Exchange
! Version v0.8.13
! https://www.basissetexchange.org
!----------------------------------------------------------------------
!   Basis set: 6-31G(2df,p)
! Description: 6-31G(2df,p)
!        Role: orbital
!     Version: 0  (Data from the original Basis Set Exchange)
!----------------------------------------------------------------------

****
H     0
S    3   1.00
     18.7311370              0.03349460
      2.8253937              0.23472695
      0.6401217              0.81375733
S    1   1.00
      0.1612778              1.00000000
P    1   1.00
      1.5000000              1.0000000
P    1   1.00
      0.3750000              1.0000000
****
B     0
S    6   1.00
   2068.8823000              0.0018663
    310.6495700              0.0142515
     70.6830330              0.0695516
     19.8610800              0.2325729
      6.2993048              0.4670787
      2.1270270              0.3634314
SP   3   1.00
      4.7279710             -0.1303938              0.0745976
      1.1903377             -0.1307889              0.3078467
      0.3594117              1.1309444              0.7434568
SP   1   1.00
      0.1267512              1.0000000              1.0000000
D    1   1.00
      0.8020000              1.0000000
D    1   1.00
      0.2005000              1.0000000
F    1   1.00
      0.5000000              1.0000000
****
C     0
S    6   1.00
   3047.5249000              0.0018347
    457.3695100              0.0140373
    103.9486900              0.0688426
     29.2101550              0.2321844
      9.2866630              0.4679413
      3.1639270              0.3623120
SP   3   1.00
      7.8682724             -0.1193324              0.0689991
      1.8812885             -0.1608542              0.3164240
      0.5442493              1.1434564              0.7443083
SP   1   1.00
      0.1687144              1.0000000              1.0000000
D    1   1.00
      1.2520000              1.0000000
D    1   1.00
      0.3130000              1.0000000
F    1   1.00
      0.8000000              1.0000000
****
N     0
S    6   1.00
   4173.5110000              0.0018348
    627.4579000              0.0139950
    142.9021000              0.0685870
     40.2343300              0.2322410
     12.8202100              0.4690700
      4.3904370              0.3604550
SP   3   1.00
     11.6263580             -0.1149610              0.0675800
      2.7162800             -0.1691180              0.3239070
      0.7722180              1.1458520              0.7408950
SP   1   1.00
      0.2120313              1.0000000              1.0000000
D    1   1.00
      1.8260000              1.0000000
D    1   1.00
      0.4565000              1.0000000
F    1   1.00
      1.0000000              1.0000000
****
O     0
S    6   1.00
   5484.6717000              0.0018311
    825.2349500              0.0139501
    188.0469600              0.0684451
     52.9645000              0.2327143
     16.8975700              0.4701930
      5.7996353              0.3585209
SP   3   1.00
     15.5396160             -0.1107775              0.0708743
      3.5999336             -0.1480263              0.3397528
      1.0137618              1.1307670              0.7271586
SP   1   1.00
      0.2700058              1.0000000              1.0000000
D    1   1.00
      2.5840000              1.0000000
D    1   1.00
      0.6460000              1.0000000
F    1   1.00
      1.4000000              1.0000000
****
F     0
S    6   1.00
   7001.7130900              0.0018196169
   1051.3660900              0.0139160796
    239.2856900              0.0684053245
     67.3974453              0.233185760
     21.5199573              0.471267439
      7.40310130             0.356618546
SP   3   1.00
     20.8479528             -0.108506975            0.0716287243
      4.80830834            -0.146451658            0.3459121030
      1.34406986             1.128688580            0.7224699570
SP   1   1.00
      0.358151393            1.0000000              1.0000000
D    1   1.00
      3.5000000              1.0000000
D    1   1.00
      0.8750000              1.0000000
F    1   1.00
      1.8500000              1.0000000
****
Al     0
S    6   1.00
  13983.1000000              0.00194267
   2098.7500000              0.0148599
    477.7050000              0.0728494
    134.3600000              0.2468300
     42.8709000              0.4872580
     14.5189000              0.3234960
SP   6   1.00
    239.6680000             -0.00292619             0.00460285
     57.4419000             -0.0374080              0.0331990
     18.2859000             -0.1144870              0.1362820
      6.5991400              0.1156350              0.3304760
      2.4904900              0.6125950              0.4491460
      0.9445400              0.3937990              0.2657040
SP   3   1.00
      1.2779000             -0.2276060             -0.0175130
      0.3975900              0.00144583             0.2445330
      0.1600950              1.0927900              0.8049340
SP   1   1.00
      0.0556577              1.0000000              1.0000000
D    1   1.00
      0.6500000              1.0000000
D    1   1.00
      0.1625000              1.0000000
F    1   1.00
      0.2500000              1.0000000
****
Si     0
S    6   1.00
  16115.9000000              0.00195948
   2425.5800000              0.01492880
    553.8670000              0.07284780
    156.3400000              0.24613000
     50.0683000              0.48591400
     17.0178000              0.32500200
SP   6   1.00
    292.7180000             -0.00278094             0.00443826
     69.8731000             -0.03571460             0.03266790
     22.3363000             -0.11498500             0.13472100
      8.1503900              0.09356340             0.32867800
      3.1345800              0.60301700             0.44964000
      1.2254300              0.41895900             0.26137200
SP   3   1.00
      1.7273800             -0.24463000            -0.01779510
      0.5729220              0.00431572             0.25353900
      0.2221920              1.09818000             0.80066900
SP   1   1.00
      0.0778369              1.00000000             1.00000000
D    1   1.00
      0.9000000              1.0000000
D    1   1.00
      0.2250000              1.0000000
F    1   1.00
      0.3200000              1.0000000
****
P     0
S    6   1.00
  19413.3000000              0.0018516
   2909.4200000              0.0142062
    661.3640000              0.0699995
    185.7590000              0.2400790
     59.1943000              0.4847620
     20.0310000              0.3352000
SP   6   1.00
    339.4780000             -0.00278217             0.00456462
     81.0101000             -0.0360499              0.03369360
     25.8780000             -0.1166310              0.13975500
      9.4522100              0.0968328              0.33936200
      3.6656600              0.6144180              0.45092100
      1.4674600              0.4037980              0.23858600
SP   3   1.00
      2.1562300             -0.2529230             -0.01776530
      0.7489970              0.0328517              0.27405800
      0.2831450              1.0812500              0.78542100
SP   1   1.00
      0.0998317              1.0000000              1.00000000
D    1   1.00
      1.1000000              1.0000000
D    1   1.00
      0.2750000              1.0000000
F    1   1.00
      0.4500000              1.0000000
****
S     0
S    6   1.00
  21917.1000000              0.0018690
   3301.4900000              0.0142300
    754.1460000              0.0696960
    212.7110000              0.2384870
     67.9896000              0.4833070
     23.0515000              0.3380740
SP   6   1.00
    423.7350000             -0.0023767              0.0040610
    100.7100000             -0.0316930              0.0306810
     32.1599000             -0.1133170              0.1304520
     11.8079000              0.0560900              0.3272050
      4.6311000              0.5922550              0.4528510
      1.8702500              0.4550060              0.2560420
SP   3   1.00
      2.6158400             -0.2503740             -0.0145110
      0.9221670              0.0669570              0.3102630
      0.3412870              1.0545100              0.7544830
SP   1   1.00
      0.1171670              1.0000000              1.0000000
D    1   1.00
      1.3000000              1.0000000
D    1   1.00
      0.3250000              1.0000000
F    1   1.00
      0.5500000              1.0000000
****
Cl     0
S    6   1.00
  25180.1000000              0.0018330
   3780.3500000              0.0140340
    860.4740000              0.0690970
    242.1450000              0.2374520
     77.3349000              0.4830340
     26.2470000              0.3398560
SP   6   1.00
    491.7650000             -0.0022974              0.0039894
    116.9840000             -0.0307140              0.0303180
     37.4153000             -0.1125280              0.1298800
     13.7834000              0.0450160              0.3279510
      5.4521500              0.5893530              0.4535270
      2.2258800              0.4652060              0.2521540
SP   3   1.00
      3.1864900             -0.2518300             -0.0142990
      1.1442700              0.0615890              0.3235720
      0.4203770              1.0601800              0.7435070
SP   1   1.00
      0.1426570              1.0000000              1.0000000
D    1   1.00
      1.5000000              1.0000000
D    1   1.00
      0.3750000              1.0000000
F    1   1.00
      0.7000000              1.0000000
****
}

set {
reference uhf
freeze_core true
e_convergence 10
d_convergence 10
dft_spherical_points 1202
dft_radial_points 99
}

e = energy('b3lyp')

print_out('Grab this energy {0}'.format(e))
--------------------------------------------------------------------------

    Molecular point group: cs

    Geometry (in Bohr), charge = 0, multiplicity = 2:

       Center              X                  Y                   Z               Mass
    ------------   -----------------  -----------------  -----------------  -----------------
         C           -0.323340259142     0.000716190088     0.000000000000    12.000000000000
         C            0.061379171958    -1.401171070012    -2.426924231900    12.000000000000
         C            0.060542541058     2.800522910188     0.000000000000    12.000000000000
         C            0.061379171958    -1.401171070012     2.426924231900    12.000000000000
         H            2.086520922558    -1.645763138912    -2.845556552800     1.007825032230
         H           -0.768126461742    -0.385300814212    -4.027077735400     1.007825032230
         H           -0.762630252842    -3.289214340312    -2.348678966500     1.007825032230
         H            2.087625749658     3.289707405788     0.000000000000     1.007825032230
         H           -0.765864664342     3.681991443188     1.675427174700     1.007825032230
         H           -0.765864664342     3.681991443188    -1.675427174700     1.007825032230
         H            2.086520922558    -1.645763138912     2.845556552800     1.007825032230
         H           -0.762630252842    -3.289214340312     2.348678966500     1.007825032230
         H           -0.768126461742    -0.385300814212     4.027077735400     1.007825032230

  Charge       = 0
  Multiplicity = 2
  Basis Set: ANONYMOUS420C838B
    Blend: 6-31G_2DFP_
  Basis Set: (ANONYMOUS420C838B AUX)
    Blend: DEF2-UNIVERSAL-JKFIT

    Orbital Energies [Eh]
    ---------------------

    Alpha Occupied:

       1Ap   -10.180342     2Ap   -10.167056     1App  -10.167013
       3Ap   -10.166976     4Ap    -0.797766     5Ap    -0.686224
       2App   -0.686151     6Ap    -0.530778     7Ap    -0.441125
       3App   -0.434778     8Ap    -0.434562     4App   -0.382711
       9Ap    -0.382486     5App   -0.363609    10Ap    -0.338370
       6App   -0.337630    11Ap    -0.168961

    Alpha Virtual:

      12Ap     0.076071     7App    0.134056    13Ap     0.134247
      14Ap     0.142490     8App    0.142772    15Ap     0.154881
      16Ap     0.178603     9App    0.178951    17Ap     0.203545
      10App    0.214804    11App    0.275870    18Ap     0.276103
      12App    0.398975    19Ap     0.399484    20Ap     0.403343
      13App    0.423891    21Ap     0.424303    22Ap     0.456592
      14App    0.495318    23Ap     0.495461    15App    0.512161
      24Ap     0.513980    25Ap     0.578788    16App    0.578839
      26Ap     0.591431    17App    0.591838    27Ap     0.602572
      28Ap     0.624728    18App    0.631759    29Ap     0.636170
      19App    0.636376    30Ap     0.663264    20App    0.663562
      21App    0.683681    31Ap     0.684033    32Ap     0.734995
      33Ap     0.825103    22App    0.825712    23App    0.853915
      24App    0.914795    34Ap     0.915255    25App    0.944126
      35Ap     0.944614    26App    0.961232    36Ap     0.961351
      37Ap     1.003453    27App    1.127763    38Ap     1.128462
      39Ap     1.142215    28App    1.162926    40Ap     1.163616
      41Ap     1.223319    29App    1.274431    42Ap     1.274551
      43Ap     1.279357    44Ap     1.324206    30App    1.324495
      45Ap     1.355984    46Ap     1.365919    31App    1.366201
      32App    1.392454    47Ap     1.403811    33App    1.404251
      34App    1.416250    48Ap     1.417980    35App    1.427916
      36App    1.491494    49Ap     1.499072    37App    1.542749
      50Ap     1.542924    51Ap     1.574436    38App    1.574470
      52Ap     1.669834    53Ap     1.738551    39App    1.740266
      54Ap     1.768327    40App    1.831103    55Ap     1.831682
      41App    1.971761    56Ap     2.017484    42App    2.019099
      57Ap     2.019762    43App    2.052487    58Ap     2.052843
      59Ap     2.738184    44App    2.738786    60Ap     2.790922
      45App    2.811424    61Ap     2.889871    46App    2.890031
      62Ap     2.894948    47App    2.929463    63Ap     2.929531
      48App    2.958946    64Ap     2.964392    49App    2.964415
      65Ap     3.034006    50App    3.070779    66Ap     3.071715
      51App    3.084453    67Ap     3.168544    52App    3.169009
      68Ap     3.180590    53App    3.285144    69Ap     3.285486
      70Ap     3.326955    54App    3.327359    71Ap     3.375628
      55App    3.489544    72Ap     3.490779    56App    3.514011
      73Ap     3.525335    57App    3.567861    74Ap     3.568920
      58App    3.575123    75Ap     3.665165    59App    3.667598
      76Ap     3.679639    60App    3.694001    77Ap     3.694303
      61App    3.776741    78Ap     3.776846    79Ap     3.789127
      62App    3.910895    80Ap     3.913552    81Ap     4.034434
      82Ap     4.110999    63App    4.111718    64App    4.147548
      83Ap     4.148546    84Ap     4.173420    65App    4.201694
      85Ap     4.202588    86Ap     4.204361    66App    4.211031
      67App    4.314603    87Ap     4.317331    68App    4.358964
      69App    4.423920    88Ap     4.424855    70App    4.443568
      89Ap     4.516441    71App    4.517257    72App    4.578249
      90Ap     4.578299    91Ap     4.617530    92Ap     4.709436
      93Ap     4.773307    73App    4.775857    74App    4.836944
      94Ap     4.962825    95Ap     5.001921    75App    5.004039
      96Ap     5.227633    76App    5.246473    97Ap     5.247488
      98Ap     5.354335    77App    5.356697    78App    5.479410

    Beta Occupied:

       1Ap   -10.167815     1App  -10.167764     2Ap   -10.167745
       3Ap   -10.166519     4Ap    -0.781091     5Ap    -0.684023
       2App   -0.683958     6Ap    -0.511750     3App   -0.431147
       7Ap    -0.430936     8Ap    -0.421821     4App   -0.376812
       9Ap    -0.376555     5App   -0.362593    10Ap    -0.333490
       6App   -0.332756

    Beta Virtual:

      11Ap    -0.025743    12Ap     0.077080     7App    0.134901
      13Ap     0.135184    14Ap     0.144315     8App    0.144685
      15Ap     0.163339    16Ap     0.182287     9App    0.182610
      10App    0.215034    17Ap     0.218928    11App    0.282226
      18Ap     0.282443    12App    0.400143    19Ap     0.400654
      20Ap     0.419791    13App    0.426701    21Ap     0.427115
      22Ap     0.468500    14App    0.497566    23Ap     0.497734
      15App    0.513896    24Ap     0.556324    25Ap     0.584346
      16App    0.584382    26Ap     0.597585    17App    0.598040
      27Ap     0.609996    28Ap     0.628107    18App    0.631922
      29Ap     0.639471    19App    0.639639    30Ap     0.666847
      20App    0.667107    21App    0.686326    31Ap     0.686658
      32Ap     0.757518    33Ap     0.830278    22App    0.830874
      23App    0.855269    24App    0.922783    34Ap     0.923210
      25App    0.945962    35Ap     0.953542    26App    0.966517
      36Ap     0.966678    37Ap     1.008693    27App    1.131800
      38Ap     1.132483    39Ap     1.155586    28App    1.167985
      40Ap     1.168708    41Ap     1.232292    29App    1.280043
      42Ap     1.280136    43Ap     1.285109    44Ap     1.329183
      30App    1.329496    45Ap     1.365400    46Ap     1.371197
      31App    1.371409    32App    1.393511    47Ap     1.407309
      33App    1.407681    34App    1.421364    48Ap     1.422964
      35App    1.428190    36App    1.492543    49Ap     1.509515
      37App    1.547124    50Ap     1.547367    51Ap     1.582313
      38App    1.582332    52Ap     1.674681    53Ap     1.744297
      39App    1.746045    54Ap     1.779105    40App    1.834942
      55Ap     1.835553    41App    1.972621    56Ap     2.025362
      42App    2.025468    57Ap     2.039656    43App    2.059213
      58Ap     2.059584    59Ap     2.746531    44App    2.747111
      45App    2.811836    60Ap     2.816058    61Ap     2.902503
      46App    2.902782    62Ap     2.924643    47App    2.931913
      63Ap     2.932045    48App    2.960028    49App    2.968933
      64Ap     2.968944    65Ap     3.041941    50App    3.080530
      66Ap     3.081630    51App    3.086425    67Ap     3.184335
      52App    3.184715    68Ap     3.188274    53App    3.289959
      69Ap     3.290270    70Ap     3.330718    54App    3.331205
      71Ap     3.383445    55App    3.492264    72Ap     3.493518
      56App    3.512376    73Ap     3.528380    57App    3.574977
      58App    3.581110    74Ap     3.582357    75Ap     3.670014
      59App    3.672240    76Ap     3.692966    77Ap     3.725705
      60App    3.725834    61App    3.781255    78Ap     3.781389
      79Ap     3.817666    62App    3.920696    80Ap     3.923384
      81Ap     4.045322    82Ap     4.117704    63App    4.118643
      64App    4.154616    83Ap     4.155929    84Ap     4.187444
      65App    4.207631    85Ap     4.209999    86Ap     4.210839
      66App    4.215527    67App    4.322057    87Ap     4.324759
      68App    4.362328    69App    4.432087    88Ap     4.433059
      70App    4.446509    89Ap     4.524219    71App    4.525058
      72App    4.588867    90Ap     4.588885    91Ap     4.624722
      92Ap     4.719782    93Ap     4.780307    73App    4.782761
      74App    4.839863    94Ap     4.967620    95Ap     5.005976
      75App    5.008061    96Ap     5.233256    76App    5.248279
      97Ap     5.249348    98Ap     5.360846    77App    5.363142
      78App    5.481733

    Final Occupation by Irrep:
             Ap   App
    DOCC [    10,    6 ]
    SOCC [     1,    0 ]

  @DF-UKS Final Energy:  -157.81306147780171

   => Energetics <=

    Nuclear Repulsion Energy =            125.3946331207615970
    One-Electron Energy =                -458.7489068652519109
    Two-Electron Energy =                 195.8483572645480137
    DFT Exchange-Correlation Energy =     -20.3071449978593712
    Empirical Dispersion Energy =           0.0000000000000000
    VV10 Nonlocal Energy =                  0.0000000000000000
    Total Energy =                       -157.8130614778017105

  UHF NO Occupations:
  HONO-2 :    9 Ap 1.9996009
  HONO-1 :   10 Ap 1.9989805
  HONO-0 :   11 Ap 1.0000000
  LUNO+0 :   12 Ap 0.0010195
  LUNO+1 :   13 Ap 0.0003991
  LUNO+2 :    7App 0.0001979
  LUNO+3 :   14 Ap 0.0001972

Computation Completed

Properties will be evaluated at   0.000000,   0.000000,   0.000000 [a0]

Properties computed using the SCF density matrix

  Nuclear Dipole Moment: [e a0]
     X:     0.8272      Y:     0.0065      Z:    -0.0000

  Electronic Dipole Moment: [e a0]
     X:    -0.7493      Y:    -0.0083      Z:     0.0000

  Dipole Moment: [e a0]
     X:     0.0779      Y:    -0.0018      Z:    -0.0000     Total:     0.0779

  Dipole Moment: [D]
     X:     0.1980      Y:    -0.0046      Z:    -0.0000     Total:     0.1981

*** tstop() called on n046 at Fri Nov  5 12:58:09 2021
Module time:
	user time   =     545.21 seconds =       9.09 minutes
	system time =      12.11 seconds =       0.20 minutes
	total time  =        141 seconds =       2.35 minutes
Total time:
	user time   =     545.21 seconds =       9.09 minutes
	system time =      12.11 seconds =       0.20 minutes
	total time  =        141 seconds =       2.35 minutes
Grab this energy -157.8130614778017
    Psi4 stopped on: Friday, 05 November 2021 12:58PM
    Psi4 wall time for execution: 0:02:20.22

*** Psi4 exiting successfully. Buy a developer a beer!
