                               Psi4 1.4a2.dev629

  ==> Input File <==

--------------------------------------------------------------------------
import os
memory 14 GB

molecule {
 C   -0.3265077769   -0.0000021226   -0.0000000139
 C    0.0598156477   -1.4018046554   -2.4260525107
 C    0.0596958256    2.8019387042   -0.0009669976
 C    0.0598156356   -1.4001298632    2.4270194608
 H    2.0872704054   -1.6464837872   -2.8463665647
 H   -0.7667415442   -0.3864775491   -4.0267904325
 H   -0.7621854164   -3.2904421090   -2.3490131156
 H    2.0871317997    3.2883655540   -0.0026037687
 H   -0.7669828610    3.6805155502    1.6786646034
 H   -0.7622630727    3.6794972731   -1.6751382585
 H    2.0872710476   -1.6419741228    2.8489701782
 H   -0.7669051785   -3.2940046441    2.3481322559
 H   -0.7620223887   -0.3890225416    4.0241451639
units bohr
0 2
}

basis {

assign 6-31g_2dfp_

[ 6-31g_2dfp_ ]

spherical

!----------------------------------------------------------------------
! Basis Set Exchange
! Version v0.8.13
! https://www.basissetexchange.org
!----------------------------------------------------------------------
!   Basis set: 6-31G(2df,p)
! Description: 6-31G(2df,p)
!        Role: orbital
!     Version: 0  (Data from the original Basis Set Exchange)
!----------------------------------------------------------------------

****
H     0
S    3   1.00
     18.7311370              0.03349460
      2.8253937              0.23472695
      0.6401217              0.81375733
S    1   1.00
      0.1612778              1.00000000
P    1   1.00
      1.5000000              1.0000000
P    1   1.00
      0.3750000              1.0000000
****
B     0
S    6   1.00
   2068.8823000              0.0018663
    310.6495700              0.0142515
     70.6830330              0.0695516
     19.8610800              0.2325729
      6.2993048              0.4670787
      2.1270270              0.3634314
SP   3   1.00
      4.7279710             -0.1303938              0.0745976
      1.1903377             -0.1307889              0.3078467
      0.3594117              1.1309444              0.7434568
SP   1   1.00
      0.1267512              1.0000000              1.0000000
D    1   1.00
      0.8020000              1.0000000
D    1   1.00
      0.2005000              1.0000000
F    1   1.00
      0.5000000              1.0000000
****
C     0
S    6   1.00
   3047.5249000              0.0018347
    457.3695100              0.0140373
    103.9486900              0.0688426
     29.2101550              0.2321844
      9.2866630              0.4679413
      3.1639270              0.3623120
SP   3   1.00
      7.8682724             -0.1193324              0.0689991
      1.8812885             -0.1608542              0.3164240
      0.5442493              1.1434564              0.7443083
SP   1   1.00
      0.1687144              1.0000000              1.0000000
D    1   1.00
      1.2520000              1.0000000
D    1   1.00
      0.3130000              1.0000000
F    1   1.00
      0.8000000              1.0000000
****
N     0
S    6   1.00
   4173.5110000              0.0018348
    627.4579000              0.0139950
    142.9021000              0.0685870
     40.2343300              0.2322410
     12.8202100              0.4690700
      4.3904370              0.3604550
SP   3   1.00
     11.6263580             -0.1149610              0.0675800
      2.7162800             -0.1691180              0.3239070
      0.7722180              1.1458520              0.7408950
SP   1   1.00
      0.2120313              1.0000000              1.0000000
D    1   1.00
      1.8260000              1.0000000
D    1   1.00
      0.4565000              1.0000000
F    1   1.00
      1.0000000              1.0000000
****
O     0
S    6   1.00
   5484.6717000              0.0018311
    825.2349500              0.0139501
    188.0469600              0.0684451
     52.9645000              0.2327143
     16.8975700              0.4701930
      5.7996353              0.3585209
SP   3   1.00
     15.5396160             -0.1107775              0.0708743
      3.5999336             -0.1480263              0.3397528
      1.0137618              1.1307670              0.7271586
SP   1   1.00
      0.2700058              1.0000000              1.0000000
D    1   1.00
      2.5840000              1.0000000
D    1   1.00
      0.6460000              1.0000000
F    1   1.00
      1.4000000              1.0000000
****
F     0
S    6   1.00
   7001.7130900              0.0018196169
   1051.3660900              0.0139160796
    239.2856900              0.0684053245
     67.3974453              0.233185760
     21.5199573              0.471267439
      7.40310130             0.356618546
SP   3   1.00
     20.8479528             -0.108506975            0.0716287243
      4.80830834            -0.146451658            0.3459121030
      1.34406986             1.128688580            0.7224699570
SP   1   1.00
      0.358151393            1.0000000              1.0000000
D    1   1.00
      3.5000000              1.0000000
D    1   1.00
      0.8750000              1.0000000
F    1   1.00
      1.8500000              1.0000000
****
Al     0
S    6   1.00
  13983.1000000              0.00194267
   2098.7500000              0.0148599
    477.7050000              0.0728494
    134.3600000              0.2468300
     42.8709000              0.4872580
     14.5189000              0.3234960
SP   6   1.00
    239.6680000             -0.00292619             0.00460285
     57.4419000             -0.0374080              0.0331990
     18.2859000             -0.1144870              0.1362820
      6.5991400              0.1156350              0.3304760
      2.4904900              0.6125950              0.4491460
      0.9445400              0.3937990              0.2657040
SP   3   1.00
      1.2779000             -0.2276060             -0.0175130
      0.3975900              0.00144583             0.2445330
      0.1600950              1.0927900              0.8049340
SP   1   1.00
      0.0556577              1.0000000              1.0000000
D    1   1.00
      0.6500000              1.0000000
D    1   1.00
      0.1625000              1.0000000
F    1   1.00
      0.2500000              1.0000000
****
Si     0
S    6   1.00
  16115.9000000              0.00195948
   2425.5800000              0.01492880
    553.8670000              0.07284780
    156.3400000              0.24613000
     50.0683000              0.48591400
     17.0178000              0.32500200
SP   6   1.00
    292.7180000             -0.00278094             0.00443826
     69.8731000             -0.03571460             0.03266790
     22.3363000             -0.11498500             0.13472100
      8.1503900              0.09356340             0.32867800
      3.1345800              0.60301700             0.44964000
      1.2254300              0.41895900             0.26137200
SP   3   1.00
      1.7273800             -0.24463000            -0.01779510
      0.5729220              0.00431572             0.25353900
      0.2221920              1.09818000             0.80066900
SP   1   1.00
      0.0778369              1.00000000             1.00000000
D    1   1.00
      0.9000000              1.0000000
D    1   1.00
      0.2250000              1.0000000
F    1   1.00
      0.3200000              1.0000000
****
P     0
S    6   1.00
  19413.3000000              0.0018516
   2909.4200000              0.0142062
    661.3640000              0.0699995
    185.7590000              0.2400790
     59.1943000              0.4847620
     20.0310000              0.3352000
SP   6   1.00
    339.4780000             -0.00278217             0.00456462
     81.0101000             -0.0360499              0.03369360
     25.8780000             -0.1166310              0.13975500
      9.4522100              0.0968328              0.33936200
      3.6656600              0.6144180              0.45092100
      1.4674600              0.4037980              0.23858600
SP   3   1.00
      2.1562300             -0.2529230             -0.01776530
      0.7489970              0.0328517              0.27405800
      0.2831450              1.0812500              0.78542100
SP   1   1.00
      0.0998317              1.0000000              1.00000000
D    1   1.00
      1.1000000              1.0000000
D    1   1.00
      0.2750000              1.0000000
F    1   1.00
      0.4500000              1.0000000
****
S     0
S    6   1.00
  21917.1000000              0.0018690
   3301.4900000              0.0142300
    754.1460000              0.0696960
    212.7110000              0.2384870
     67.9896000              0.4833070
     23.0515000              0.3380740
SP   6   1.00
    423.7350000             -0.0023767              0.0040610
    100.7100000             -0.0316930              0.0306810
     32.1599000             -0.1133170              0.1304520
     11.8079000              0.0560900              0.3272050
      4.6311000              0.5922550              0.4528510
      1.8702500              0.4550060              0.2560420
SP   3   1.00
      2.6158400             -0.2503740             -0.0145110
      0.9221670              0.0669570              0.3102630
      0.3412870              1.0545100              0.7544830
SP   1   1.00
      0.1171670              1.0000000              1.0000000
D    1   1.00
      1.3000000              1.0000000
D    1   1.00
      0.3250000              1.0000000
F    1   1.00
      0.5500000              1.0000000
****
Cl     0
S    6   1.00
  25180.1000000              0.0018330
   3780.3500000              0.0140340
    860.4740000              0.0690970
    242.1450000              0.2374520
     77.3349000              0.4830340
     26.2470000              0.3398560
SP   6   1.00
    491.7650000             -0.0022974              0.0039894
    116.9840000             -0.0307140              0.0303180
     37.4153000             -0.1125280              0.1298800
     13.7834000              0.0450160              0.3279510
      5.4521500              0.5893530              0.4535270
      2.2258800              0.4652060              0.2521540
SP   3   1.00
      3.1864900             -0.2518300             -0.0142990
      1.1442700              0.0615890              0.3235720
      0.4203770              1.0601800              0.7435070
SP   1   1.00
      0.1426570              1.0000000              1.0000000
D    1   1.00
      1.5000000              1.0000000
D    1   1.00
      0.3750000              1.0000000
F    1   1.00
      0.7000000              1.0000000
****
}

set {
reference uhf
freeze_core true
e_convergence 10
d_convergence 10
dft_spherical_points 1202
dft_radial_points 99
}

e = energy('b3lyp')

print_out('Grab this energy {0}'.format(e))
--------------------------------------------------------------------------

    Molecular point group: c1

    Geometry (in Bohr), charge = 0, multiplicity = 2:

       Center              X                  Y                   Z               Mass
    ------------   -----------------  -----------------  -----------------  -----------------
         C           -0.325132429891    -0.000002090589    -0.000000002074    12.000000000000
         C            0.061190994709    -1.401804623389    -2.426052498874    12.000000000000
         C            0.061071172609     2.801938736211    -0.000966985774    12.000000000000
         C            0.061190982609    -1.400129831189     2.427019472626    12.000000000000
         H            2.088645752409    -1.646483755189    -2.846366552874     1.007825032230
         H           -0.765366197191    -0.386477517089    -4.026790420674     1.007825032230
         H           -0.760810069391    -3.290442076989    -2.349013103774     1.007825032230
         H            2.088507146709     3.288365586011    -0.002603756874     1.007825032230
         H           -0.765607513991     3.680515582211     1.678664615226     1.007825032230
         H           -0.760887725691     3.679497305111    -1.675138246674     1.007825032230
         H            2.088646394609    -1.641974090789     2.848970190026     1.007825032230
         H           -0.765529831491    -3.294004612089     2.348132267726     1.007825032230
         H           -0.760647041691    -0.389022509589     4.024145175726     1.007825032230

  Charge       = 0
  Multiplicity = 2
  Basis Set: ANONYMOUSCDD441C2
    Blend: 6-31G_2DFP_
  Basis Set: (ANONYMOUSCDD441C2 AUX)
    Blend: DEF2-UNIVERSAL-JKFIT

    Orbital Energies [Eh]
    ---------------------

    Alpha Occupied:

       1A    -10.180455     2A    -10.167054     3A    -10.167054
       4A    -10.167008     5A     -0.797712     6A     -0.686176
       7A     -0.686175     8A     -0.530799     9A     -0.440888
      10A     -0.434817    11A     -0.434817    12A     -0.382352
      13A     -0.382351    14A     -0.363892    15A     -0.338047
      16A     -0.338047    17A     -0.169077

    Alpha Virtual:

      18A      0.076089    19A      0.134150    20A      0.134151
      21A      0.142718    22A      0.142718    23A      0.154813
      24A      0.178677    25A      0.178677    26A      0.203499
      27A      0.214936    28A      0.275846    29A      0.275848
      30A      0.399209    31A      0.399213    32A      0.403302
      33A      0.424090    34A      0.424090    35A      0.456587
      36A      0.495441    37A      0.495442    38A      0.512055
      39A      0.513983    40A      0.578903    41A      0.578911
      42A      0.591328    43A      0.591330    44A      0.602259
      45A      0.624860    46A      0.631971    47A      0.636369
      48A      0.636373    49A      0.663240    50A      0.663240
      51A      0.683886    52A      0.683887    53A      0.734865
      54A      0.825231    55A      0.825233    56A      0.853962
      57A      0.914859    58A      0.914865    59A      0.944000
      60A      0.944617    61A      0.961373    62A      0.961389
      63A      1.004337    64A      1.128328    65A      1.128340
      66A      1.141846    67A      1.163125    68A      1.163137
      69A      1.222900    70A      1.274204    71A      1.274207
      72A      1.279199    73A      1.324454    74A      1.324456
      75A      1.354958    76A      1.366398    77A      1.366402
      78A      1.392545    79A      1.403424    80A      1.403426
      81A      1.416511    82A      1.416518    83A      1.427730
      84A      1.491920    85A      1.498603    86A      1.543204
      87A      1.543207    88A      1.574549    89A      1.574551
      90A      1.670369    91A      1.739192    92A      1.739204
      93A      1.768101    94A      1.831729    95A      1.831730
      96A      1.972256    97A      2.018071    98A      2.018740
      99A      2.018743   100A      2.052273   101A      2.052274
     102A      2.738152   103A      2.738153   104A      2.790704
     105A      2.811703   106A      2.889774   107A      2.889780
     108A      2.894974   109A      2.929642   110A      2.929650
     111A      2.959160   112A      2.964344   113A      2.964358
     114A      3.033955   115A      3.070664   116A      3.070678
     117A      3.084432   118A      3.168761   119A      3.168769
     120A      3.180783   121A      3.285656   122A      3.285656
     123A      3.328103   124A      3.328109   125A      3.375316
     126A      3.489976   127A      3.489996   128A      3.513545
     129A      3.525498   130A      3.567957   131A      3.567977
     132A      3.574687   133A      3.666373   134A      3.666381
     135A      3.680701   136A      3.693824   137A      3.693840
     138A      3.775917   139A      3.775942   140A      3.787796
     141A      3.912328   142A      3.912334   143A      4.033276
     144A      4.111683   145A      4.111687   146A      4.148395
     147A      4.148404   148A      4.172975   149A      4.202239
     150A      4.202768   151A      4.202772   152A      4.210900
     153A      4.315740   154A      4.315760   155A      4.359062
     156A      4.423825   157A      4.423828   158A      4.444331
     159A      4.516983   160A      4.516984   161A      4.578366
     162A      4.578379   163A      4.616658   164A      4.709041
     165A      4.774353   166A      4.774361   167A      4.836666
     168A      4.962938   169A      5.002242   170A      5.002254
     171A      5.227961   172A      5.246748   173A      5.246748
     174A      5.356035   175A      5.356048   176A      5.478865

    Beta Occupied:

       1A    -10.167806     2A    -10.167806     3A    -10.167782
       4A    -10.166634     5A     -0.781053     6A     -0.683982
       7A     -0.683982     8A     -0.511775     9A     -0.431199
      10A     -0.431199    11A     -0.421579    12A     -0.376425
      13A     -0.376424    14A     -0.362877    15A     -0.333168
      16A     -0.333167

    Beta Virtual:

      17A     -0.025891    18A      0.077099    19A      0.135073
      20A      0.135073    21A      0.144579    22A      0.144579
      23A      0.163304    24A      0.182337    25A      0.182337
      26A      0.215155    27A      0.218867    28A      0.282205
      29A      0.282208    30A      0.400382    31A      0.400387
      32A      0.419809    33A      0.426898    34A      0.426898
      35A      0.468432    36A      0.497702    37A      0.497703
      38A      0.513796    39A      0.556280    40A      0.584444
      41A      0.584452    42A      0.597524    43A      0.597525
      44A      0.609707    45A      0.628174    46A      0.632157
      47A      0.639638    48A      0.639642    49A      0.666832
      50A      0.666832    51A      0.686518    52A      0.686519
      53A      0.757395    54A      0.830420    55A      0.830422
      56A      0.855318    57A      0.922834    58A      0.922841
      59A      0.945856    60A      0.953492    61A      0.966661
      62A      0.966677    63A      1.009625    64A      1.132251
      65A      1.132263    66A      1.155236    67A      1.168258
      68A      1.168271    69A      1.231866    70A      1.279818
      71A      1.279822    72A      1.284944    73A      1.329501
      74A      1.329503    75A      1.364356    76A      1.371645
      77A      1.371650    78A      1.393614    79A      1.406871
      80A      1.406874    81A      1.421547    82A      1.421553
      83A      1.427980    84A      1.492987    85A      1.509011
      86A      1.547723    87A      1.547723    88A      1.582316
      89A      1.582316    90A      1.675200    91A      1.744962
      92A      1.744973    93A      1.778889    94A      1.835579
      95A      1.835580    96A      1.973127    97A      2.025106
      98A      2.025109    99A      2.039455   100A      2.059010
     101A      2.059010   102A      2.746490   103A      2.746491
     104A      2.812110   105A      2.815793   106A      2.902476
     107A      2.902481   108A      2.924600   109A      2.932095
     110A      2.932104   111A      2.960223   112A      2.968903
     113A      2.968917   114A      3.041926   115A      3.080601
     116A      3.080612   117A      3.086258   118A      3.184441
     119A      3.184445   120A      3.188519   121A      3.290412
     122A      3.290412   123A      3.331923   124A      3.331928
     125A      3.383096   126A      3.492715   127A      3.492735
     128A      3.511915   129A      3.528503   130A      3.574544
     131A      3.581364   132A      3.581385   133A      3.671049
     134A      3.671061   135A      3.693973   136A      3.725484
     137A      3.725500   138A      3.780481   139A      3.780507
     140A      3.816370   141A      3.922147   142A      3.922154
     143A      4.044175   144A      4.118471   145A      4.118473
     146A      4.155628   147A      4.155637   148A      4.187020
     149A      4.208700   150A      4.208703   151A      4.210174
     152A      4.215474   153A      4.323170   154A      4.323190
     155A      4.362437   156A      4.432099   157A      4.432102
     158A      4.447181   159A      4.524777   160A      4.524778
     161A      4.588944   162A      4.588956   163A      4.623777
     164A      4.719475   165A      4.781282   166A      4.781290
     167A      4.839580   168A      4.967750   169A      5.006293
     170A      5.006306   171A      5.233646   172A      5.248527
     173A      5.248527   174A      5.362494   175A      5.362507
     176A      5.481185

    Final Occupation by Irrep:
              A
    DOCC [    16 ]
    SOCC [     1 ]

  @DF-UKS Final Energy:  -157.81305437033717

   => Energetics <=

    Nuclear Repulsion Energy =            125.3859019510491919
    One-Electron Energy =                -458.7313367935360020
    Two-Electron Energy =                 195.8392711871083804
    DFT Exchange-Correlation Energy =     -20.3068907149587119
    Empirical Dispersion Energy =           0.0000000000000000
    VV10 Nonlocal Energy =                  0.0000000000000000
    Total Energy =                       -157.8130543703371700

  UHF NO Occupations:
  HONO-2 :   15  A 1.9995999
  HONO-1 :   16  A 1.9989813
  HONO-0 :   17  A 1.0000000
  LUNO+0 :   18  A 0.0010187
  LUNO+1 :   19  A 0.0004001
  LUNO+2 :   20  A 0.0001976
  LUNO+3 :   21  A 0.0001976

Computation Completed

Properties will be evaluated at   0.000000,   0.000000,   0.000000 [a0]

Properties computed using the SCF density matrix

  Nuclear Dipole Moment: [e a0]
     X:     0.8369      Y:    -0.0000      Z:     0.0000

  Electronic Dipole Moment: [e a0]
     X:    -0.7591      Y:     0.0000      Z:    -0.0000

  Dipole Moment: [e a0]
     X:     0.0778      Y:     0.0000      Z:    -0.0000     Total:     0.0778

  Dipole Moment: [D]
     X:     0.1977      Y:     0.0000      Z:    -0.0000     Total:     0.1977

*** tstop() called on n080 at Fri Nov  5 13:33:14 2021
Module time:
	user time   =     462.92 seconds =       7.72 minutes
	system time =       4.35 seconds =       0.07 minutes
	total time  =        117 seconds =       1.95 minutes
Total time:
	user time   =     462.92 seconds =       7.72 minutes
	system time =       4.35 seconds =       0.07 minutes
	total time  =        117 seconds =       1.95 minutes
Grab this energy -157.81305437033717
    Psi4 stopped on: Friday, 05 November 2021 01:33PM
    Psi4 wall time for execution: 0:01:57.54

*** Psi4 exiting successfully. Buy a developer a beer!
