                               Psi4 1.4a2.dev629

  ==> Input File <==

--------------------------------------------------------------------------
import os
memory 14 GB

molecule {
 C   -0.3223163228   -0.0000022629   -0.0004938267
 C    0.0622837858   -1.4011546933   -2.4269007058
 C    0.0620797258    2.8016055540   -0.0000403461
 C    0.0621154361   -1.4004471918    2.4255945973
 H    2.0800053431   -1.6441123350   -2.8474390366
 H   -0.7626132146   -0.3891376142   -4.0244392537
 H   -0.7626862409   -3.2911711736   -2.3495240061
 H    2.0834868479    3.2876810393    0.0000282593
 H   -0.7646000962    3.6810014260    1.6791797459
 H   -0.7647820906    3.6800114466   -1.6785237796
 H    2.0872472095   -1.6436601019    2.8467114841
 H   -0.7665419901   -3.2971539843    2.3465352332
 H   -0.7662862697   -0.3834844225    4.0293116348
units bohr
0 2
}

basis {

assign 6-31g_2dfp_

[ 6-31g_2dfp_ ]

spherical

!----------------------------------------------------------------------
! Basis Set Exchange
! Version v0.8.13
! https://www.basissetexchange.org
!----------------------------------------------------------------------
!   Basis set: 6-31G(2df,p)
! Description: 6-31G(2df,p)
!        Role: orbital
!     Version: 0  (Data from the original Basis Set Exchange)
!----------------------------------------------------------------------

****
H     0
S    3   1.00
     18.7311370              0.03349460
      2.8253937              0.23472695
      0.6401217              0.81375733
S    1   1.00
      0.1612778              1.00000000
P    1   1.00
      1.5000000              1.0000000
P    1   1.00
      0.3750000              1.0000000
****
B     0
S    6   1.00
   2068.8823000              0.0018663
    310.6495700              0.0142515
     70.6830330              0.0695516
     19.8610800              0.2325729
      6.2993048              0.4670787
      2.1270270              0.3634314
SP   3   1.00
      4.7279710             -0.1303938              0.0745976
      1.1903377             -0.1307889              0.3078467
      0.3594117              1.1309444              0.7434568
SP   1   1.00
      0.1267512              1.0000000              1.0000000
D    1   1.00
      0.8020000              1.0000000
D    1   1.00
      0.2005000              1.0000000
F    1   1.00
      0.5000000              1.0000000
****
C     0
S    6   1.00
   3047.5249000              0.0018347
    457.3695100              0.0140373
    103.9486900              0.0688426
     29.2101550              0.2321844
      9.2866630              0.4679413
      3.1639270              0.3623120
SP   3   1.00
      7.8682724             -0.1193324              0.0689991
      1.8812885             -0.1608542              0.3164240
      0.5442493              1.1434564              0.7443083
SP   1   1.00
      0.1687144              1.0000000              1.0000000
D    1   1.00
      1.2520000              1.0000000
D    1   1.00
      0.3130000              1.0000000
F    1   1.00
      0.8000000              1.0000000
****
N     0
S    6   1.00
   4173.5110000              0.0018348
    627.4579000              0.0139950
    142.9021000              0.0685870
     40.2343300              0.2322410
     12.8202100              0.4690700
      4.3904370              0.3604550
SP   3   1.00
     11.6263580             -0.1149610              0.0675800
      2.7162800             -0.1691180              0.3239070
      0.7722180              1.1458520              0.7408950
SP   1   1.00
      0.2120313              1.0000000              1.0000000
D    1   1.00
      1.8260000              1.0000000
D    1   1.00
      0.4565000              1.0000000
F    1   1.00
      1.0000000              1.0000000
****
O     0
S    6   1.00
   5484.6717000              0.0018311
    825.2349500              0.0139501
    188.0469600              0.0684451
     52.9645000              0.2327143
     16.8975700              0.4701930
      5.7996353              0.3585209
SP   3   1.00
     15.5396160             -0.1107775              0.0708743
      3.5999336             -0.1480263              0.3397528
      1.0137618              1.1307670              0.7271586
SP   1   1.00
      0.2700058              1.0000000              1.0000000
D    1   1.00
      2.5840000              1.0000000
D    1   1.00
      0.6460000              1.0000000
F    1   1.00
      1.4000000              1.0000000
****
F     0
S    6   1.00
   7001.7130900              0.0018196169
   1051.3660900              0.0139160796
    239.2856900              0.0684053245
     67.3974453              0.233185760
     21.5199573              0.471267439
      7.40310130             0.356618546
SP   3   1.00
     20.8479528             -0.108506975            0.0716287243
      4.80830834            -0.146451658            0.3459121030
      1.34406986             1.128688580            0.7224699570
SP   1   1.00
      0.358151393            1.0000000              1.0000000
D    1   1.00
      3.5000000              1.0000000
D    1   1.00
      0.8750000              1.0000000
F    1   1.00
      1.8500000              1.0000000
****
Al     0
S    6   1.00
  13983.1000000              0.00194267
   2098.7500000              0.0148599
    477.7050000              0.0728494
    134.3600000              0.2468300
     42.8709000              0.4872580
     14.5189000              0.3234960
SP   6   1.00
    239.6680000             -0.00292619             0.00460285
     57.4419000             -0.0374080              0.0331990
     18.2859000             -0.1144870              0.1362820
      6.5991400              0.1156350              0.3304760
      2.4904900              0.6125950              0.4491460
      0.9445400              0.3937990              0.2657040
SP   3   1.00
      1.2779000             -0.2276060             -0.0175130
      0.3975900              0.00144583             0.2445330
      0.1600950              1.0927900              0.8049340
SP   1   1.00
      0.0556577              1.0000000              1.0000000
D    1   1.00
      0.6500000              1.0000000
D    1   1.00
      0.1625000              1.0000000
F    1   1.00
      0.2500000              1.0000000
****
Si     0
S    6   1.00
  16115.9000000              0.00195948
   2425.5800000              0.01492880
    553.8670000              0.07284780
    156.3400000              0.24613000
     50.0683000              0.48591400
     17.0178000              0.32500200
SP   6   1.00
    292.7180000             -0.00278094             0.00443826
     69.8731000             -0.03571460             0.03266790
     22.3363000             -0.11498500             0.13472100
      8.1503900              0.09356340             0.32867800
      3.1345800              0.60301700             0.44964000
      1.2254300              0.41895900             0.26137200
SP   3   1.00
      1.7273800             -0.24463000            -0.01779510
      0.5729220              0.00431572             0.25353900
      0.2221920              1.09818000             0.80066900
SP   1   1.00
      0.0778369              1.00000000             1.00000000
D    1   1.00
      0.9000000              1.0000000
D    1   1.00
      0.2250000              1.0000000
F    1   1.00
      0.3200000              1.0000000
****
P     0
S    6   1.00
  19413.3000000              0.0018516
   2909.4200000              0.0142062
    661.3640000              0.0699995
    185.7590000              0.2400790
     59.1943000              0.4847620
     20.0310000              0.3352000
SP   6   1.00
    339.4780000             -0.00278217             0.00456462
     81.0101000             -0.0360499              0.03369360
     25.8780000             -0.1166310              0.13975500
      9.4522100              0.0968328              0.33936200
      3.6656600              0.6144180              0.45092100
      1.4674600              0.4037980              0.23858600
SP   3   1.00
      2.1562300             -0.2529230             -0.01776530
      0.7489970              0.0328517              0.27405800
      0.2831450              1.0812500              0.78542100
SP   1   1.00
      0.0998317              1.0000000              1.00000000
D    1   1.00
      1.1000000              1.0000000
D    1   1.00
      0.2750000              1.0000000
F    1   1.00
      0.4500000              1.0000000
****
S     0
S    6   1.00
  21917.1000000              0.0018690
   3301.4900000              0.0142300
    754.1460000              0.0696960
    212.7110000              0.2384870
     67.9896000              0.4833070
     23.0515000              0.3380740
SP   6   1.00
    423.7350000             -0.0023767              0.0040610
    100.7100000             -0.0316930              0.0306810
     32.1599000             -0.1133170              0.1304520
     11.8079000              0.0560900              0.3272050
      4.6311000              0.5922550              0.4528510
      1.8702500              0.4550060              0.2560420
SP   3   1.00
      2.6158400             -0.2503740             -0.0145110
      0.9221670              0.0669570              0.3102630
      0.3412870              1.0545100              0.7544830
SP   1   1.00
      0.1171670              1.0000000              1.0000000
D    1   1.00
      1.3000000              1.0000000
D    1   1.00
      0.3250000              1.0000000
F    1   1.00
      0.5500000              1.0000000
****
Cl     0
S    6   1.00
  25180.1000000              0.0018330
   3780.3500000              0.0140340
    860.4740000              0.0690970
    242.1450000              0.2374520
     77.3349000              0.4830340
     26.2470000              0.3398560
SP   6   1.00
    491.7650000             -0.0022974              0.0039894
    116.9840000             -0.0307140              0.0303180
     37.4153000             -0.1125280              0.1298800
     13.7834000              0.0450160              0.3279510
      5.4521500              0.5893530              0.4535270
      2.2258800              0.4652060              0.2521540
SP   3   1.00
      3.1864900             -0.2518300             -0.0142990
      1.1442700              0.0615890              0.3235720
      0.4203770              1.0601800              0.7435070
SP   1   1.00
      0.1426570              1.0000000              1.0000000
D    1   1.00
      1.5000000              1.0000000
D    1   1.00
      0.3750000              1.0000000
F    1   1.00
      0.7000000              1.0000000
****
}

set {
reference uhf
freeze_core true
e_convergence 10
d_convergence 10
dft_spherical_points 1202
dft_radial_points 99
}

e = energy('b3lyp')

print_out('Grab this energy {0}'.format(e))
--------------------------------------------------------------------------

    Molecular point group: c1

    Geometry (in Bohr), charge = 0, multiplicity = 2:

       Center              X                  Y                   Z               Mass
    ------------   -----------------  -----------------  -----------------  -----------------
         C           -0.323125775707    -0.000002104344    -0.000139375267    12.000000000000
         C            0.061474332893    -1.401154534744    -2.426546254367    12.000000000000
         C            0.061270272893     2.801605712556     0.000314105333    12.000000000000
         C            0.061305983193    -1.400447033244     2.425949048733    12.000000000000
         H            2.079195890193    -1.644112176444    -2.847084585167     1.007825032230
         H           -0.763422667507    -0.389137455644    -4.024084802267     1.007825032230
         H           -0.763495693807    -3.291171015044    -2.349169554667     1.007825032230
         H            2.082677394993     3.287681197856     0.000382710733     1.007825032230
         H           -0.765409549107     3.681001584556     1.679534197333     1.007825032230
         H           -0.765591543507     3.680011605156    -1.678169328167     1.007825032230
         H            2.086437756593    -1.643659943344     2.847065935533     1.007825032230
         H           -0.767351443007    -3.297153825744     2.346889684633     1.007825032230
         H           -0.767095722607    -0.383484263944     4.029666086233     1.007825032230

  Charge       = 0
  Multiplicity = 2
  Basis Set: ANONYMOUS83A1F5B3
    Blend: 6-31G_2DFP_
  Basis Set: (ANONYMOUS83A1F5B3 AUX)
    Blend: DEF2-UNIVERSAL-JKFIT

    Orbital Energies [Eh]
    ---------------------

    Alpha Occupied:

       1A    -10.180284     2A    -10.167592     3A    -10.167012
       4A    -10.166430     5A     -0.797805     6A     -0.686516
       7A     -0.685873     8A     -0.530786     9A     -0.441221
      10A     -0.434715    11A     -0.434542    12A     -0.382957
      13A     -0.382512    14A     -0.363434    15A     -0.337976
      16A     -0.337913    17A     -0.168925

    Alpha Virtual:

      18A      0.075985    19A      0.134124    20A      0.134155
      21A      0.142480    22A      0.142658    23A      0.155041
      24A      0.178634    25A      0.179283    26A      0.203589
      27A      0.214532    28A      0.275965    29A      0.276056
      30A      0.399268    31A      0.399427    32A      0.403428
      33A      0.423813    34A      0.424004    35A      0.456669
      36A      0.495142    37A      0.495280    38A      0.512280
      39A      0.514132    40A      0.578857    41A      0.579100
      42A      0.591593    43A      0.592195    44A      0.603342
      45A      0.624265    46A      0.631309    47A      0.635535
      48A      0.636298    49A      0.663721    50A      0.664100
      51A      0.683301    52A      0.683923    53A      0.734933
      54A      0.825034    55A      0.825835    56A      0.854196
      57A      0.915238    58A      0.915259    59A      0.943844
      60A      0.944468    61A      0.961150    62A      0.961645
      63A      1.003641    64A      1.127531    65A      1.128190
      66A      1.142941    67A      1.162912    68A      1.163089
      69A      1.222911    70A      1.274552    71A      1.274911
      72A      1.279513    73A      1.324205    74A      1.324918
      75A      1.355441    76A      1.365856    77A      1.366378
      78A      1.392503    79A      1.404680    80A      1.405451
      81A      1.415828    82A      1.416452    83A      1.428128
      84A      1.491512    85A      1.500037    86A      1.543154
      87A      1.543259    88A      1.573794    89A      1.574361
      90A      1.668533    91A      1.740175    92A      1.740335
      93A      1.770178    94A      1.828438    95A      1.831629
      96A      1.970682    97A      2.018146    98A      2.018875
      99A      2.019240   100A      2.054032   101A      2.054045
     102A      2.737721   103A      2.738615   104A      2.791318
     105A      2.810972   106A      2.890031   107A      2.890583
     108A      2.895313   109A      2.929183   110A      2.929393
     111A      2.959144   112A      2.964274   113A      2.965346
     114A      3.034722   115A      3.071088   116A      3.071535
     117A      3.082987   118A      3.168779   119A      3.169036
     120A      3.180649   121A      3.285349   122A      3.285483
     123A      3.326493   124A      3.326575   125A      3.375431
     126A      3.489567   127A      3.491226   128A      3.515230
     129A      3.524158   130A      3.568727   131A      3.568811
     132A      3.576022   133A      3.666001   134A      3.667440
     135A      3.679039   136A      3.693476   137A      3.694449
     138A      3.775817   139A      3.776977   140A      3.789907
     141A      3.911218   142A      3.912103   143A      4.033968
     144A      4.110624   145A      4.112058   146A      4.146682
     147A      4.150610   148A      4.174985   149A      4.200415
     150A      4.202190   151A      4.204620   152A      4.212279
     153A      4.315741   154A      4.317113   155A      4.357736
     156A      4.424890   157A      4.425378   158A      4.443331
     159A      4.517267   160A      4.517701   161A      4.577178
     162A      4.578043   163A      4.617628   164A      4.710039
     165A      4.774367   166A      4.774605   167A      4.835507
     168A      4.962563   169A      5.003711   170A      5.004841
     171A      5.230570   172A      5.240123   173A      5.247496
     174A      5.354561   175A      5.360624   176A      5.477486

    Beta Occupied:

       1A    -10.168352     2A    -10.167770     3A    -10.167189
       4A    -10.166453     5A     -0.781123     6A     -0.684306
       7A     -0.683663     8A     -0.511709     9A     -0.431073
      10A     -0.430878    11A     -0.421978    12A     -0.377076
      13A     -0.376613    14A     -0.362408    15A     -0.333096
      16A     -0.333047

    Beta Virtual:

      17A     -0.025616    18A      0.076978    19A      0.134894
      20A      0.135033    21A      0.144416    22A      0.144505
      23A      0.163480    24A      0.182343    25A      0.182973
      26A      0.214768    27A      0.218973    28A      0.282306
      29A      0.282401    30A      0.400432    31A      0.400598
      32A      0.419778    33A      0.426622    34A      0.426818
      35A      0.468676    36A      0.497393    37A      0.497532
      38A      0.514008    39A      0.556515    40A      0.584371
      41A      0.584629    42A      0.597806    43A      0.598362
      44A      0.610623    45A      0.627782    46A      0.631503
      47A      0.638863    48A      0.639582    49A      0.667240
      50A      0.667647    51A      0.685984    52A      0.686535
      53A      0.757460    54A      0.830155    55A      0.831007
      56A      0.855542    57A      0.923192    58A      0.923211
      59A      0.945689    60A      0.953346    61A      0.966520
      62A      0.966957    63A      1.008920    64A      1.131508
      65A      1.132198    66A      1.156237    67A      1.167997
      68A      1.168200    69A      1.231900    70A      1.280170
      71A      1.280533    72A      1.285323    73A      1.329101
      74A      1.329907    75A      1.364871    76A      1.371047
      77A      1.371543    78A      1.393545    79A      1.408176
      80A      1.408984    81A      1.420873    82A      1.421587
      83A      1.428389    84A      1.492586    85A      1.510472
      86A      1.547483    87A      1.547680    88A      1.581693
      89A      1.582242    90A      1.673329    91A      1.745961
      92A      1.746086    93A      1.780967    94A      1.832323
      95A      1.835454    96A      1.971559    97A      2.025368
      98A      2.025576    99A      2.039772   100A      2.060579
     101A      2.060691   102A      2.746035   103A      2.746956
     104A      2.811382   105A      2.816491   106A      2.902843
     107A      2.903227   108A      2.925188   109A      2.931715
     110A      2.931821   111A      2.960211   112A      2.968815
     113A      2.969964   114A      3.042444   115A      3.080926
     116A      3.081486   117A      3.084862   118A      3.184466
     119A      3.184800   120A      3.188362   121A      3.290091
     122A      3.290276   123A      3.330353   124A      3.330397
     125A      3.383275   126A      3.492369   127A      3.493965
     128A      3.513596   129A      3.527216   130A      3.575786
     131A      3.581943   132A      3.582027   133A      3.670792
     134A      3.672355   135A      3.692385   136A      3.725092
     137A      3.726048   138A      3.780445   139A      3.781538
     140A      3.818427   141A      3.920991   142A      3.921851
     143A      4.044789   144A      4.117644   145A      4.118639
     146A      4.154127   147A      4.157630   148A      4.189008
     149A      4.206786   150A      4.208223   151A      4.211903
     152A      4.216636   153A      4.323363   154A      4.324487
     155A      4.361146   156A      4.433121   157A      4.433525
     158A      4.446317   159A      4.525084   160A      4.525397
     161A      4.587866   162A      4.588639   163A      4.624914
     164A      4.720266   165A      4.781338   166A      4.781641
     167A      4.838435   168A      4.967348   169A      5.007741
     170A      5.008838   171A      5.236294   172A      5.241947
     173A      5.249300   174A      5.361081   175A      5.367114
     176A      5.479819

    Final Occupation by Irrep:
              A
    DOCC [    16 ]
    SOCC [     1 ]

  @DF-UKS Final Energy:  -157.81304430337406

   => Energetics <=

    Nuclear Repulsion Energy =            125.4000612298230521
    One-Electron Energy =                -458.7597363703901010
    Two-Electron Energy =                 195.8538929147707108
    DFT Exchange-Correlation Energy =     -20.3072620775777040
    Empirical Dispersion Energy =           0.0000000000000000
    VV10 Nonlocal Energy =                  0.0000000000000000
    Total Energy =                       -157.8130443033740562

  UHF NO Occupations:
  HONO-2 :   15  A 1.9996032
  HONO-1 :   16  A 1.9989813
  HONO-0 :   17  A 1.0000000
  LUNO+0 :   18  A 0.0010187
  LUNO+1 :   19  A 0.0003968
  LUNO+2 :   20  A 0.0001976
  LUNO+3 :   21  A 0.0001975

Computation Completed

Properties will be evaluated at   0.000000,   0.000000,   0.000000 [a0]

Properties computed using the SCF density matrix

  Nuclear Dipole Moment: [e a0]
     X:     0.8215      Y:    -0.0000      Z:     0.0025

  Electronic Dipole Moment: [e a0]
     X:    -0.7404      Y:     0.0000      Z:    -0.0049

  Dipole Moment: [e a0]
     X:     0.0811      Y:     0.0000      Z:    -0.0024     Total:     0.0811

  Dipole Moment: [D]
     X:     0.2061      Y:     0.0000      Z:    -0.0062     Total:     0.2062

*** tstop() called on n091 at Fri Nov  5 14:47:53 2021
Module time:
	user time   =     499.27 seconds =       8.32 minutes
	system time =       4.56 seconds =       0.08 minutes
	total time  =        126 seconds =       2.10 minutes
Total time:
	user time   =     499.27 seconds =       8.32 minutes
	system time =       4.56 seconds =       0.08 minutes
	total time  =        126 seconds =       2.10 minutes
Grab this energy -157.81304430337406
    Psi4 stopped on: Friday, 05 November 2021 02:47PM
    Psi4 wall time for execution: 0:02:06.67

*** Psi4 exiting successfully. Buy a developer a beer!
