                               Psi4 1.4a2.dev629

  ==> Input File <==

--------------------------------------------------------------------------
import os
memory 14 GB

molecule {
 C   -0.3233417826   -0.0000019618    0.0007220417
 C    0.0624763415   -1.4021934635   -2.4277928432
 C    0.0610196851    2.8017596244    0.0008669071
 C    0.0598019552   -1.3995619492    2.4249682540
 H    2.0834356194   -1.6440146825   -2.8472969622
 H   -0.7644300563   -0.3853942590   -4.0266613796
 H   -0.7634576455   -3.2938674496   -2.3469373385
 H    2.0867983706    3.2881024933   -0.0000029528
 H   -0.7645102878    3.6798013802    1.6761060057
 H   -0.7667845216    3.6807070299   -1.6768948686
 H    2.0904370651   -1.6441855879    2.8475859250
 H   -0.7676766752   -3.2901286463    2.3510405144
 H   -0.7663759446   -0.3910468418    4.0242966969
units bohr
0 2
}

basis {

assign 6-31g_2dfp_

[ 6-31g_2dfp_ ]

spherical

!----------------------------------------------------------------------
! Basis Set Exchange
! Version v0.8.13
! https://www.basissetexchange.org
!----------------------------------------------------------------------
!   Basis set: 6-31G(2df,p)
! Description: 6-31G(2df,p)
!        Role: orbital
!     Version: 0  (Data from the original Basis Set Exchange)
!----------------------------------------------------------------------

****
H     0
S    3   1.00
     18.7311370              0.03349460
      2.8253937              0.23472695
      0.6401217              0.81375733
S    1   1.00
      0.1612778              1.00000000
P    1   1.00
      1.5000000              1.0000000
P    1   1.00
      0.3750000              1.0000000
****
B     0
S    6   1.00
   2068.8823000              0.0018663
    310.6495700              0.0142515
     70.6830330              0.0695516
     19.8610800              0.2325729
      6.2993048              0.4670787
      2.1270270              0.3634314
SP   3   1.00
      4.7279710             -0.1303938              0.0745976
      1.1903377             -0.1307889              0.3078467
      0.3594117              1.1309444              0.7434568
SP   1   1.00
      0.1267512              1.0000000              1.0000000
D    1   1.00
      0.8020000              1.0000000
D    1   1.00
      0.2005000              1.0000000
F    1   1.00
      0.5000000              1.0000000
****
C     0
S    6   1.00
   3047.5249000              0.0018347
    457.3695100              0.0140373
    103.9486900              0.0688426
     29.2101550              0.2321844
      9.2866630              0.4679413
      3.1639270              0.3623120
SP   3   1.00
      7.8682724             -0.1193324              0.0689991
      1.8812885             -0.1608542              0.3164240
      0.5442493              1.1434564              0.7443083
SP   1   1.00
      0.1687144              1.0000000              1.0000000
D    1   1.00
      1.2520000              1.0000000
D    1   1.00
      0.3130000              1.0000000
F    1   1.00
      0.8000000              1.0000000
****
N     0
S    6   1.00
   4173.5110000              0.0018348
    627.4579000              0.0139950
    142.9021000              0.0685870
     40.2343300              0.2322410
     12.8202100              0.4690700
      4.3904370              0.3604550
SP   3   1.00
     11.6263580             -0.1149610              0.0675800
      2.7162800             -0.1691180              0.3239070
      0.7722180              1.1458520              0.7408950
SP   1   1.00
      0.2120313              1.0000000              1.0000000
D    1   1.00
      1.8260000              1.0000000
D    1   1.00
      0.4565000              1.0000000
F    1   1.00
      1.0000000              1.0000000
****
O     0
S    6   1.00
   5484.6717000              0.0018311
    825.2349500              0.0139501
    188.0469600              0.0684451
     52.9645000              0.2327143
     16.8975700              0.4701930
      5.7996353              0.3585209
SP   3   1.00
     15.5396160             -0.1107775              0.0708743
      3.5999336             -0.1480263              0.3397528
      1.0137618              1.1307670              0.7271586
SP   1   1.00
      0.2700058              1.0000000              1.0000000
D    1   1.00
      2.5840000              1.0000000
D    1   1.00
      0.6460000              1.0000000
F    1   1.00
      1.4000000              1.0000000
****
F     0
S    6   1.00
   7001.7130900              0.0018196169
   1051.3660900              0.0139160796
    239.2856900              0.0684053245
     67.3974453              0.233185760
     21.5199573              0.471267439
      7.40310130             0.356618546
SP   3   1.00
     20.8479528             -0.108506975            0.0716287243
      4.80830834            -0.146451658            0.3459121030
      1.34406986             1.128688580            0.7224699570
SP   1   1.00
      0.358151393            1.0000000              1.0000000
D    1   1.00
      3.5000000              1.0000000
D    1   1.00
      0.8750000              1.0000000
F    1   1.00
      1.8500000              1.0000000
****
Al     0
S    6   1.00
  13983.1000000              0.00194267
   2098.7500000              0.0148599
    477.7050000              0.0728494
    134.3600000              0.2468300
     42.8709000              0.4872580
     14.5189000              0.3234960
SP   6   1.00
    239.6680000             -0.00292619             0.00460285
     57.4419000             -0.0374080              0.0331990
     18.2859000             -0.1144870              0.1362820
      6.5991400              0.1156350              0.3304760
      2.4904900              0.6125950              0.4491460
      0.9445400              0.3937990              0.2657040
SP   3   1.00
      1.2779000             -0.2276060             -0.0175130
      0.3975900              0.00144583             0.2445330
      0.1600950              1.0927900              0.8049340
SP   1   1.00
      0.0556577              1.0000000              1.0000000
D    1   1.00
      0.6500000              1.0000000
D    1   1.00
      0.1625000              1.0000000
F    1   1.00
      0.2500000              1.0000000
****
Si     0
S    6   1.00
  16115.9000000              0.00195948
   2425.5800000              0.01492880
    553.8670000              0.07284780
    156.3400000              0.24613000
     50.0683000              0.48591400
     17.0178000              0.32500200
SP   6   1.00
    292.7180000             -0.00278094             0.00443826
     69.8731000             -0.03571460             0.03266790
     22.3363000             -0.11498500             0.13472100
      8.1503900              0.09356340             0.32867800
      3.1345800              0.60301700             0.44964000
      1.2254300              0.41895900             0.26137200
SP   3   1.00
      1.7273800             -0.24463000            -0.01779510
      0.5729220              0.00431572             0.25353900
      0.2221920              1.09818000             0.80066900
SP   1   1.00
      0.0778369              1.00000000             1.00000000
D    1   1.00
      0.9000000              1.0000000
D    1   1.00
      0.2250000              1.0000000
F    1   1.00
      0.3200000              1.0000000
****
P     0
S    6   1.00
  19413.3000000              0.0018516
   2909.4200000              0.0142062
    661.3640000              0.0699995
    185.7590000              0.2400790
     59.1943000              0.4847620
     20.0310000              0.3352000
SP   6   1.00
    339.4780000             -0.00278217             0.00456462
     81.0101000             -0.0360499              0.03369360
     25.8780000             -0.1166310              0.13975500
      9.4522100              0.0968328              0.33936200
      3.6656600              0.6144180              0.45092100
      1.4674600              0.4037980              0.23858600
SP   3   1.00
      2.1562300             -0.2529230             -0.01776530
      0.7489970              0.0328517              0.27405800
      0.2831450              1.0812500              0.78542100
SP   1   1.00
      0.0998317              1.0000000              1.00000000
D    1   1.00
      1.1000000              1.0000000
D    1   1.00
      0.2750000              1.0000000
F    1   1.00
      0.4500000              1.0000000
****
S     0
S    6   1.00
  21917.1000000              0.0018690
   3301.4900000              0.0142300
    754.1460000              0.0696960
    212.7110000              0.2384870
     67.9896000              0.4833070
     23.0515000              0.3380740
SP   6   1.00
    423.7350000             -0.0023767              0.0040610
    100.7100000             -0.0316930              0.0306810
     32.1599000             -0.1133170              0.1304520
     11.8079000              0.0560900              0.3272050
      4.6311000              0.5922550              0.4528510
      1.8702500              0.4550060              0.2560420
SP   3   1.00
      2.6158400             -0.2503740             -0.0145110
      0.9221670              0.0669570              0.3102630
      0.3412870              1.0545100              0.7544830
SP   1   1.00
      0.1171670              1.0000000              1.0000000
D    1   1.00
      1.3000000              1.0000000
D    1   1.00
      0.3250000              1.0000000
F    1   1.00
      0.5500000              1.0000000
****
Cl     0
S    6   1.00
  25180.1000000              0.0018330
   3780.3500000              0.0140340
    860.4740000              0.0690970
    242.1450000              0.2374520
     77.3349000              0.4830340
     26.2470000              0.3398560
SP   6   1.00
    491.7650000             -0.0022974              0.0039894
    116.9840000             -0.0307140              0.0303180
     37.4153000             -0.1125280              0.1298800
     13.7834000              0.0450160              0.3279510
      5.4521500              0.5893530              0.4535270
      2.2258800              0.4652060              0.2521540
SP   3   1.00
      3.1864900             -0.2518300             -0.0142990
      1.1442700              0.0615890              0.3235720
      0.4203770              1.0601800              0.7435070
SP   1   1.00
      0.1426570              1.0000000              1.0000000
D    1   1.00
      1.5000000              1.0000000
D    1   1.00
      0.3750000              1.0000000
F    1   1.00
      0.7000000              1.0000000
****
}

set {
reference uhf
freeze_core true
e_convergence 10
d_convergence 10
dft_spherical_points 1202
dft_radial_points 99
}

e = energy('b3lyp')

print_out('Grab this energy {0}'.format(e))
--------------------------------------------------------------------------

    Molecular point group: c1

    Geometry (in Bohr), charge = 0, multiplicity = 2:

       Center              X                  Y                   Z               Mass
    ------------   -----------------  -----------------  -----------------  -----------------
         C           -0.323341047619    -0.000001965782     0.000960034943    12.000000000000
         C            0.062477076481    -1.402193467482    -2.427554849957    12.000000000000
         C            0.061020420081     2.801759620418     0.001104900343    12.000000000000
         C            0.059802690181    -1.399561953182     2.425206247243    12.000000000000
         H            2.083436354381    -1.644014686482    -2.847058968957     1.007825032230
         H           -0.764429321319    -0.385394262982    -4.026423386357     1.007825032230
         H           -0.763456910519    -3.293867453582    -2.346699345257     1.007825032230
         H            2.086799105581     3.288102489318     0.000235040443     1.007825032230
         H           -0.764509552819     3.679801376218     1.676343998943     1.007825032230
         H           -0.766783786619     3.680707025918    -1.676656875357     1.007825032230
         H            2.090437800081    -1.644185591882     2.847823918243     1.007825032230
         H           -0.767675940219    -3.290128650282     2.351278507643     1.007825032230
         H           -0.766375209619    -0.391046845782     4.024534690143     1.007825032230

  Charge       = 0
  Multiplicity = 2
  Basis Set: ANONYMOUS50A23DD4
    Blend: 6-31G_2DFP_
  Basis Set: (ANONYMOUS50A23DD4 AUX)
    Blend: DEF2-UNIVERSAL-JKFIT

    Orbital Energies [Eh]
    ---------------------

    Alpha Occupied:

       1A    -10.180342     2A    -10.167078     3A    -10.167017
       4A    -10.166949     5A     -0.797767     6A     -0.686212
       7A     -0.686164     8A     -0.530778     9A     -0.441125
      10A     -0.434731    11A     -0.434611    12A     -0.382712
      13A     -0.382484    14A     -0.363612    15A     -0.338239
      16A     -0.337758    17A     -0.168961

    Alpha Virtual:

      18A      0.076071    19A      0.133969    20A      0.134338
      21A      0.142624    22A      0.142629    23A      0.154880
      24A      0.178612    25A      0.178946    26A      0.203546
      27A      0.214802    28A      0.275685    29A      0.276287
      30A      0.399184    31A      0.399271    32A      0.403344
      33A      0.424057    34A      0.424138    35A      0.456592
      36A      0.495220    37A      0.495553    38A      0.512162
      39A      0.513985    40A      0.578672    41A      0.578946
      42A      0.591425    43A      0.591843    44A      0.602587
      45A      0.624759    46A      0.631770    47A      0.636188
      48A      0.636310    49A      0.663109    50A      0.663731
      51A      0.683700    52A      0.684007    53A      0.734995
      54A      0.825367    55A      0.825438    56A      0.853922
      57A      0.914827    58A      0.915224    59A      0.944127
      60A      0.944606    61A      0.961135    62A      0.961458
      63A      1.003450    64A      1.128081    65A      1.128131
      66A      1.142232    67A      1.163105    68A      1.163431
      69A      1.223327    70A      1.274339    71A      1.274648
      72A      1.279348    73A      1.324337    74A      1.324378
      75A      1.355946    76A      1.365928    77A      1.366183
      78A      1.392442    79A      1.403404    80A      1.404674
      81A      1.416446    82A      1.417808    83A      1.427934
      84A      1.491489    85A      1.499079    86A      1.542447
      87A      1.543228    88A      1.574093    89A      1.574795
      90A      1.669821    91A      1.739120    92A      1.739694
      93A      1.768343    94A      1.831095    95A      1.831691
      96A      1.971705    97A      2.018221    98A      2.018987
      99A      2.019179   100A      2.052406   101A      2.052937
     102A      2.737957   103A      2.739018   104A      2.790922
     105A      2.811423   106A      2.889832   107A      2.890014
     108A      2.895003   109A      2.929445   110A      2.929547
     111A      2.958998   112A      2.964129   113A      2.964625
     114A      3.034018   115A      3.071118   116A      3.071429
     117A      3.084374   118A      3.168379   119A      3.169198
     120A      3.180594   121A      3.284980   122A      3.285650
     123A      3.326764   124A      3.327550   125A      3.375622
     126A      3.489661   127A      3.490642   128A      3.514016
     129A      3.525335   130A      3.568187   131A      3.568585
     132A      3.575141   133A      3.664961   134A      3.667754
     135A      3.679729   136A      3.694094   137A      3.694155
     138A      3.776598   139A      3.776992   140A      3.789126
     141A      3.911376   142A      3.913080   143A      4.034422
     144A      4.111071   145A      4.111656   146A      4.147232
     147A      4.148976   148A      4.173239   149A      4.201854
     150A      4.202696   151A      4.204278   152A      4.210870
     153A      4.315849   154A      4.316108   155A      4.358988
     156A      4.423156   157A      4.425667   158A      4.443539
     159A      4.516810   160A      4.516896   161A      4.578096
     162A      4.578390   163A      4.617589   164A      4.709454
     165A      4.773796   166A      4.775337   167A      4.836940
     168A      4.962826   169A      5.001519   170A      5.004433
     171A      5.227999   172A      5.244931   173A      5.248672
     174A      5.354388   175A      5.356693   176A      5.479378

    Beta Occupied:

       1A    -10.167839     2A    -10.167775     3A    -10.167709
       4A    -10.166520     5A     -0.781092     6A     -0.684015
       7A     -0.683966     8A     -0.511750     9A     -0.431111
      10A     -0.430975    11A     -0.421821    12A     -0.376838
      13A     -0.376527    14A     -0.362596    15A     -0.333355
      16A     -0.332888

    Beta Virtual:

      17A     -0.025744    18A      0.077080    19A      0.134892
      20A      0.135198    21A      0.144486    22A      0.144509
      23A      0.163338    24A      0.182277    25A      0.182624
      26A      0.215031    27A      0.218928    28A      0.282039
      29A      0.282629    30A      0.400358    31A      0.400436
      32A      0.419790    33A      0.426870    34A      0.426948
      35A      0.468500    36A      0.497469    37A      0.497830
      38A      0.513897    39A      0.556326    40A      0.584244
      41A      0.584476    42A      0.597583    43A      0.598047
      44A      0.610007    45A      0.628135    46A      0.631927
      47A      0.639477    48A      0.639589    49A      0.666712
      50A      0.667259    51A      0.686340    52A      0.686636
      53A      0.757518    54A      0.830532    55A      0.830609
      56A      0.855275    57A      0.922814    58A      0.923179
      59A      0.945964    60A      0.953533    61A      0.966416
      62A      0.966790    63A      1.008691    64A      1.132055
      65A      1.132216    66A      1.155609    67A      1.168195
      68A      1.168487    69A      1.232299    70A      1.279945
      71A      1.280237    72A      1.285101    73A      1.329338
      74A      1.329356    75A      1.365353    76A      1.371154
      77A      1.371449    78A      1.393503    79A      1.406876
      80A      1.408131    81A      1.421494    82A      1.422854
      83A      1.428213    84A      1.492538    85A      1.509521
      86A      1.546876    87A      1.547612    88A      1.581974
      89A      1.582660    90A      1.674667    91A      1.744882
      92A      1.745463    93A      1.779116    94A      1.834933
      95A      1.835564    96A      1.972567    97A      2.025391
      98A      2.025531    99A      2.039613   100A      2.059177
     101A      2.059624   102A      2.746324   103A      2.747322
     104A      2.811834   105A      2.816058   106A      2.902522
     107A      2.902752   108A      2.924647   109A      2.931969
     110A      2.931993   111A      2.960060   112A      2.968677
     113A      2.969171   114A      3.041951   115A      3.080918
     116A      3.081405   117A      3.086236   118A      3.184007
     119A      3.185067   120A      3.188277   121A      3.289795
     122A      3.290432   123A      3.330553   124A      3.331370
     125A      3.383439   126A      3.492408   127A      3.493356
     128A      3.512380   129A      3.528380   130A      3.574996
     131A      3.581468   132A      3.581989   133A      3.669643
     134A      3.672601   135A      3.692991   136A      3.725724
     137A      3.725787   138A      3.781148   139A      3.781497
     140A      3.817668   141A      3.921221   142A      3.922868
     143A      4.045307   144A      4.118008   145A      4.118349
     146A      4.154591   147A      4.156037   148A      4.187300
     149A      4.207786   150A      4.210133   151A      4.210764
     152A      4.215338   153A      4.323312   154A      4.323518
     155A      4.362352   156A      4.431386   157A      4.433831
     158A      4.446460   159A      4.524592   160A      4.524693
     161A      4.588667   162A      4.589017   163A      4.624786
     164A      4.719800   165A      4.780767   166A      4.782271
     167A      4.839859   168A      4.967624   169A      5.005591
     170A      5.008438   171A      5.233713   172A      5.246721
     173A      5.250453   174A      5.360879   175A      5.363162
     176A      5.481699

    Final Occupation by Irrep:
              A
    DOCC [    16 ]
    SOCC [     1 ]

  @DF-UKS Final Energy:  -157.81306056347822

   => Energetics <=

    Nuclear Repulsion Energy =            125.3946382912743474
    One-Electron Energy =                -458.7489110285987408
    Two-Electron Energy =                 195.8483582152514657
    DFT Exchange-Correlation Energy =     -20.3071460414053071
    Empirical Dispersion Energy =           0.0000000000000000
    VV10 Nonlocal Energy =                  0.0000000000000000
    Total Energy =                       -157.8130605634782171

  UHF NO Occupations:
  HONO-2 :   15  A 1.9996008
  HONO-1 :   16  A 1.9989804
  HONO-0 :   17  A 1.0000000
  LUNO+0 :   18  A 0.0010196
  LUNO+1 :   19  A 0.0003992
  LUNO+2 :   20  A 0.0001979
  LUNO+3 :   21  A 0.0001972

Computation Completed

Properties will be evaluated at   0.000000,   0.000000,   0.000000 [a0]

Properties computed using the SCF density matrix

  Nuclear Dipole Moment: [e a0]
     X:     0.8272      Y:    -0.0000      Z:     0.0017

  Electronic Dipole Moment: [e a0]
     X:    -0.7493      Y:     0.0000      Z:    -0.0011

  Dipole Moment: [e a0]
     X:     0.0779      Y:     0.0000      Z:     0.0006     Total:     0.0779

  Dipole Moment: [D]
     X:     0.1980      Y:     0.0000      Z:     0.0015     Total:     0.1980

*** tstop() called on n071 at Fri Nov  5 13:08:56 2021
Module time:
	user time   =     540.48 seconds =       9.01 minutes
	system time =      12.89 seconds =       0.21 minutes
	total time  =        139 seconds =       2.32 minutes
Total time:
	user time   =     540.48 seconds =       9.01 minutes
	system time =      12.89 seconds =       0.21 minutes
	total time  =        139 seconds =       2.32 minutes
Grab this energy -157.81306056347822
    Psi4 stopped on: Friday, 05 November 2021 01:08PM
    Psi4 wall time for execution: 0:02:19.47

*** Psi4 exiting successfully. Buy a developer a beer!
