                               Psi4 1.4a2.dev629

  ==> Input File <==

--------------------------------------------------------------------------
import os
memory 14 GB

molecule {
 C   -0.3233402873    0.0004918602   -0.0004934107
 C    0.0611754722   -1.4009867797   -2.4266797775
 C    0.0611172919    2.8026170526   -0.0000399103
 C    0.0610078777   -1.4002792397    2.4253744743
 H    2.0854070671   -1.6442218270   -2.8475791917
 H   -0.7647334806   -0.3894574899   -4.0237676670
 H   -0.7646490524   -3.2913491879   -2.3499229268
 H    2.0826173201    3.2885989925    0.0000282938
 H   -0.7633816174    3.6802269200    1.6727871936
 H   -0.7635621865    3.6792387308   -1.6721303442
 H    2.0926508180   -1.6437663047    2.8468460091
 H   -0.7685069700   -3.2973310227    2.3469374943
 H   -0.7684101295   -0.3838060181    4.0286397633
units bohr
0 2
}

basis {

assign 6-31g_2dfp_

[ 6-31g_2dfp_ ]

spherical

!----------------------------------------------------------------------
! Basis Set Exchange
! Version v0.8.13
! https://www.basissetexchange.org
!----------------------------------------------------------------------
!   Basis set: 6-31G(2df,p)
! Description: 6-31G(2df,p)
!        Role: orbital
!     Version: 0  (Data from the original Basis Set Exchange)
!----------------------------------------------------------------------

****
H     0
S    3   1.00
     18.7311370              0.03349460
      2.8253937              0.23472695
      0.6401217              0.81375733
S    1   1.00
      0.1612778              1.00000000
P    1   1.00
      1.5000000              1.0000000
P    1   1.00
      0.3750000              1.0000000
****
B     0
S    6   1.00
   2068.8823000              0.0018663
    310.6495700              0.0142515
     70.6830330              0.0695516
     19.8610800              0.2325729
      6.2993048              0.4670787
      2.1270270              0.3634314
SP   3   1.00
      4.7279710             -0.1303938              0.0745976
      1.1903377             -0.1307889              0.3078467
      0.3594117              1.1309444              0.7434568
SP   1   1.00
      0.1267512              1.0000000              1.0000000
D    1   1.00
      0.8020000              1.0000000
D    1   1.00
      0.2005000              1.0000000
F    1   1.00
      0.5000000              1.0000000
****
C     0
S    6   1.00
   3047.5249000              0.0018347
    457.3695100              0.0140373
    103.9486900              0.0688426
     29.2101550              0.2321844
      9.2866630              0.4679413
      3.1639270              0.3623120
SP   3   1.00
      7.8682724             -0.1193324              0.0689991
      1.8812885             -0.1608542              0.3164240
      0.5442493              1.1434564              0.7443083
SP   1   1.00
      0.1687144              1.0000000              1.0000000
D    1   1.00
      1.2520000              1.0000000
D    1   1.00
      0.3130000              1.0000000
F    1   1.00
      0.8000000              1.0000000
****
N     0
S    6   1.00
   4173.5110000              0.0018348
    627.4579000              0.0139950
    142.9021000              0.0685870
     40.2343300              0.2322410
     12.8202100              0.4690700
      4.3904370              0.3604550
SP   3   1.00
     11.6263580             -0.1149610              0.0675800
      2.7162800             -0.1691180              0.3239070
      0.7722180              1.1458520              0.7408950
SP   1   1.00
      0.2120313              1.0000000              1.0000000
D    1   1.00
      1.8260000              1.0000000
D    1   1.00
      0.4565000              1.0000000
F    1   1.00
      1.0000000              1.0000000
****
O     0
S    6   1.00
   5484.6717000              0.0018311
    825.2349500              0.0139501
    188.0469600              0.0684451
     52.9645000              0.2327143
     16.8975700              0.4701930
      5.7996353              0.3585209
SP   3   1.00
     15.5396160             -0.1107775              0.0708743
      3.5999336             -0.1480263              0.3397528
      1.0137618              1.1307670              0.7271586
SP   1   1.00
      0.2700058              1.0000000              1.0000000
D    1   1.00
      2.5840000              1.0000000
D    1   1.00
      0.6460000              1.0000000
F    1   1.00
      1.4000000              1.0000000
****
F     0
S    6   1.00
   7001.7130900              0.0018196169
   1051.3660900              0.0139160796
    239.2856900              0.0684053245
     67.3974453              0.233185760
     21.5199573              0.471267439
      7.40310130             0.356618546
SP   3   1.00
     20.8479528             -0.108506975            0.0716287243
      4.80830834            -0.146451658            0.3459121030
      1.34406986             1.128688580            0.7224699570
SP   1   1.00
      0.358151393            1.0000000              1.0000000
D    1   1.00
      3.5000000              1.0000000
D    1   1.00
      0.8750000              1.0000000
F    1   1.00
      1.8500000              1.0000000
****
Al     0
S    6   1.00
  13983.1000000              0.00194267
   2098.7500000              0.0148599
    477.7050000              0.0728494
    134.3600000              0.2468300
     42.8709000              0.4872580
     14.5189000              0.3234960
SP   6   1.00
    239.6680000             -0.00292619             0.00460285
     57.4419000             -0.0374080              0.0331990
     18.2859000             -0.1144870              0.1362820
      6.5991400              0.1156350              0.3304760
      2.4904900              0.6125950              0.4491460
      0.9445400              0.3937990              0.2657040
SP   3   1.00
      1.2779000             -0.2276060             -0.0175130
      0.3975900              0.00144583             0.2445330
      0.1600950              1.0927900              0.8049340
SP   1   1.00
      0.0556577              1.0000000              1.0000000
D    1   1.00
      0.6500000              1.0000000
D    1   1.00
      0.1625000              1.0000000
F    1   1.00
      0.2500000              1.0000000
****
Si     0
S    6   1.00
  16115.9000000              0.00195948
   2425.5800000              0.01492880
    553.8670000              0.07284780
    156.3400000              0.24613000
     50.0683000              0.48591400
     17.0178000              0.32500200
SP   6   1.00
    292.7180000             -0.00278094             0.00443826
     69.8731000             -0.03571460             0.03266790
     22.3363000             -0.11498500             0.13472100
      8.1503900              0.09356340             0.32867800
      3.1345800              0.60301700             0.44964000
      1.2254300              0.41895900             0.26137200
SP   3   1.00
      1.7273800             -0.24463000            -0.01779510
      0.5729220              0.00431572             0.25353900
      0.2221920              1.09818000             0.80066900
SP   1   1.00
      0.0778369              1.00000000             1.00000000
D    1   1.00
      0.9000000              1.0000000
D    1   1.00
      0.2250000              1.0000000
F    1   1.00
      0.3200000              1.0000000
****
P     0
S    6   1.00
  19413.3000000              0.0018516
   2909.4200000              0.0142062
    661.3640000              0.0699995
    185.7590000              0.2400790
     59.1943000              0.4847620
     20.0310000              0.3352000
SP   6   1.00
    339.4780000             -0.00278217             0.00456462
     81.0101000             -0.0360499              0.03369360
     25.8780000             -0.1166310              0.13975500
      9.4522100              0.0968328              0.33936200
      3.6656600              0.6144180              0.45092100
      1.4674600              0.4037980              0.23858600
SP   3   1.00
      2.1562300             -0.2529230             -0.01776530
      0.7489970              0.0328517              0.27405800
      0.2831450              1.0812500              0.78542100
SP   1   1.00
      0.0998317              1.0000000              1.00000000
D    1   1.00
      1.1000000              1.0000000
D    1   1.00
      0.2750000              1.0000000
F    1   1.00
      0.4500000              1.0000000
****
S     0
S    6   1.00
  21917.1000000              0.0018690
   3301.4900000              0.0142300
    754.1460000              0.0696960
    212.7110000              0.2384870
     67.9896000              0.4833070
     23.0515000              0.3380740
SP   6   1.00
    423.7350000             -0.0023767              0.0040610
    100.7100000             -0.0316930              0.0306810
     32.1599000             -0.1133170              0.1304520
     11.8079000              0.0560900              0.3272050
      4.6311000              0.5922550              0.4528510
      1.8702500              0.4550060              0.2560420
SP   3   1.00
      2.6158400             -0.2503740             -0.0145110
      0.9221670              0.0669570              0.3102630
      0.3412870              1.0545100              0.7544830
SP   1   1.00
      0.1171670              1.0000000              1.0000000
D    1   1.00
      1.3000000              1.0000000
D    1   1.00
      0.3250000              1.0000000
F    1   1.00
      0.5500000              1.0000000
****
Cl     0
S    6   1.00
  25180.1000000              0.0018330
   3780.3500000              0.0140340
    860.4740000              0.0690970
    242.1450000              0.2374520
     77.3349000              0.4830340
     26.2470000              0.3398560
SP   6   1.00
    491.7650000             -0.0022974              0.0039894
    116.9840000             -0.0307140              0.0303180
     37.4153000             -0.1125280              0.1298800
     13.7834000              0.0450160              0.3279510
      5.4521500              0.5893530              0.4535270
      2.2258800              0.4652060              0.2521540
SP   3   1.00
      3.1864900             -0.2518300             -0.0142990
      1.1442700              0.0615890              0.3235720
      0.4203770              1.0601800              0.7435070
SP   1   1.00
      0.1426570              1.0000000              1.0000000
D    1   1.00
      1.5000000              1.0000000
D    1   1.00
      0.3750000              1.0000000
F    1   1.00
      0.7000000              1.0000000
****
}

set {
reference uhf
freeze_core true
e_convergence 10
d_convergence 10
dft_spherical_points 1202
dft_radial_points 99
}

e = energy('b3lyp')

print_out('Grab this energy {0}'.format(e))
--------------------------------------------------------------------------

    Molecular point group: c1

    Geometry (in Bohr), charge = 0, multiplicity = 2:

       Center              X                  Y                   Z               Mass
    ------------   -----------------  -----------------  -----------------  -----------------
         C           -0.323340352660     0.000137335019    -0.000139278440    12.000000000000
         C            0.061175406840    -1.401341304881    -2.426325645240    12.000000000000
         C            0.061117226540     2.802262527419     0.000314221960    12.000000000000
         C            0.061007812340    -1.400633764881     2.425728606560    12.000000000000
         H            2.085407001740    -1.644576352181    -2.847225059440     1.007825032230
         H           -0.764733545960    -0.389812015081    -4.023413534740     1.007825032230
         H           -0.764649117760    -3.291703713081    -2.349568794540     1.007825032230
         H            2.082617254740     3.288244467319     0.000382426060     1.007825032230
         H           -0.763381682760     3.679872394819     1.673141325860     1.007825032230
         H           -0.763562251860     3.678884205619    -1.671776211940     1.007825032230
         H            2.092650752640    -1.644120829881     2.847200141360     1.007825032230
         H           -0.768507035360    -3.297685547881     2.347291626560     1.007825032230
         H           -0.768410194860    -0.384160543281     4.028993895560     1.007825032230

  Charge       = 0
  Multiplicity = 2
  Basis Set: ANONYMOUS1A4736D6
    Blend: 6-31G_2DFP_
  Basis Set: (ANONYMOUS1A4736D6 AUX)
    Blend: DEF2-UNIVERSAL-JKFIT

    Orbital Energies [Eh]
    ---------------------

    Alpha Occupied:

       1A    -10.180342     2A    -10.167929     3A    -10.166770
       4A    -10.166344     5A     -0.797768     6A     -0.686643
       7A     -0.685734     8A     -0.530774     9A     -0.441126
      10A     -0.434794    11A     -0.434550    12A     -0.382915
      13A     -0.382283    14A     -0.363613    15A     -0.338044
      16A     -0.337951    17A     -0.168961

    Alpha Virtual:

      18A      0.076069    19A      0.134136    20A      0.134144
      21A      0.142494    22A      0.142786    23A      0.154870
      24A      0.178329    25A      0.179236    26A      0.203547
      27A      0.214808    28A      0.275922    29A      0.276049
      30A      0.399116    31A      0.399339    32A      0.403345
      33A      0.423962    34A      0.424231    35A      0.456591
      36A      0.495292    37A      0.495488    38A      0.512163
      39A      0.513977    40A      0.578638    41A      0.578986
      42A      0.591176    43A      0.592052    44A      0.602610
      45A      0.624770    46A      0.631601    47A      0.635861
      48A      0.636812    49A      0.663160    50A      0.663673
      51A      0.683430    52A      0.684306    53A      0.734994
      54A      0.824830    55A      0.825966    56A      0.853918
      57A      0.915014    58A      0.915041    59A      0.944133
      60A      0.944610    61A      0.960956    62A      0.961645
      63A      1.003456    64A      1.127646    65A      1.128570
      66A      1.142221    67A      1.163139    68A      1.163396
      69A      1.223324    70A      1.274234    71A      1.274742
      72A      1.279350    73A      1.323843    74A      1.324856
      75A      1.355966    76A      1.365685    77A      1.366423
      78A      1.392455    79A      1.403491    80A      1.404591
      81A      1.416657    82A      1.417549    83A      1.427919
      84A      1.491490    85A      1.499090    86A      1.542757
      87A      1.542914    88A      1.574053    89A      1.574855
      90A      1.669772    91A      1.739284    92A      1.739492
      93A      1.768339    94A      1.829240    95A      1.833692
      96A      1.971673    97A      2.017914    98A      2.018940
      99A      2.019505   100A      2.052599   101A      2.052787
     102A      2.737854   103A      2.739119   104A      2.790924
     105A      2.811431   106A      2.889491   107A      2.890326
     108A      2.895015   109A      2.929339   110A      2.929647
     111A      2.959017   112A      2.963649   113A      2.965132
     114A      3.034032   115A      3.070973   116A      3.071580
     117A      3.084411   118A      3.168600   119A      3.168961
     120A      3.180602   121A      3.285227   122A      3.285416
     123A      3.327094   124A      3.327234   125A      3.375603
     126A      3.488995   127A      3.491327   128A      3.514018
     129A      3.525358   130A      3.568295   131A      3.568395
     132A      3.575241   133A      3.665209   134A      3.667398
     135A      3.679639   136A      3.693544   137A      3.694794
     138A      3.776006   139A      3.777645   140A      3.789124
     141A      3.911576   142A      3.912840   143A      4.034421
     144A      4.110207   145A      4.112281   146A      4.145125
     147A      4.150949   148A      4.173385   149A      4.199699
     150A      4.203429   151A      4.205532   152A      4.211460
     153A      4.315005   154A      4.316900   155A      4.358918
     156A      4.423962   157A      4.424768   158A      4.443667
     159A      4.516462   160A      4.517155   161A      4.577709
     162A      4.578913   163A      4.617534   164A      4.709516
     165A      4.774451   166A      4.774744   167A      4.836845
     168A      4.962870   169A      5.002197   170A      5.003790
     171A      5.227632   172A      5.241518   173A      5.252053
     174A      5.351566   175A      5.359832   176A      5.479517

    Beta Occupied:

       1A    -10.168693     2A    -10.167529     3A    -10.167106
       4A    -10.166514     5A     -0.781093     6A     -0.684445
       7A     -0.683537     8A     -0.511746     9A     -0.431181
      10A     -0.430906    11A     -0.421825    12A     -0.377013
      13A     -0.376354    14A     -0.362596    15A     -0.333157
      16A     -0.333085

    Beta Virtual:

      17A     -0.025743    18A      0.077078    19A      0.134947
      20A      0.135115    21A      0.144431    22A      0.144588
      23A      0.163329    24A      0.182014    25A      0.182894
      26A      0.215038    27A      0.218929    28A      0.282267
      29A      0.282400    30A      0.400281    31A      0.400514
      32A      0.419790    33A      0.426769    34A      0.427047
      35A      0.468499    36A      0.497552    37A      0.497748
      38A      0.513898    39A      0.556322    40A      0.584177
      41A      0.584546    42A      0.597396    43A      0.598200
      44A      0.610025    45A      0.628146    46A      0.631840
      47A      0.639109    48A      0.640056    49A      0.666705
      50A      0.667255    51A      0.686114    52A      0.686892
      53A      0.757518    54A      0.829961    55A      0.831172
      56A      0.855273    57A      0.922987    58A      0.923008
      59A      0.945971    60A      0.953537    61A      0.966302
      62A      0.966912    63A      1.008696    64A      1.131654
      65A      1.132621    66A      1.155594    67A      1.168193
      68A      1.168491    69A      1.232297    70A      1.279829
      71A      1.280342    72A      1.285103    73A      1.328765
      74A      1.329912    75A      1.365366    76A      1.370960
      77A      1.371649    78A      1.393515    79A      1.406932
      80A      1.408081    81A      1.421644    82A      1.422662
      83A      1.428189    84A      1.492539    85A      1.509532
      86A      1.547098    87A      1.547386    88A      1.581938
      89A      1.582713    90A      1.674616    91A      1.745071
      92A      1.745239    93A      1.779112    94A      1.833137
      95A      1.837507    96A      1.972540    97A      2.025386
      98A      2.025463    99A      2.039670   100A      2.059229
     101A      2.059598   102A      2.746170   103A      2.747474
     104A      2.811843   105A      2.816060   106A      2.902343
     107A      2.902901   108A      2.924664   109A      2.931895
     110A      2.932061   111A      2.960082   112A      2.968140
     113A      2.969730   114A      3.041965   115A      3.080794
     116A      3.081503   117A      3.086306   118A      3.184293
     119A      3.184725   120A      3.188325   121A      3.289988
     122A      3.290252   123A      3.330927   124A      3.331009
     125A      3.383422   126A      3.491770   127A      3.494013
     128A      3.512383   129A      3.528401   130A      3.574903
     131A      3.581717   132A      3.581847   133A      3.669905
     134A      3.672222   135A      3.692991   136A      3.725108
     137A      3.726411   138A      3.780578   139A      3.782129
     140A      3.817670   141A      3.921414   142A      3.922638
     143A      4.045297   144A      4.117324   145A      4.118747
     146A      4.152669   147A      4.157893   148A      4.187428
     149A      4.206381   150A      4.209503   151A      4.212606
     152A      4.215956   153A      4.322617   154A      4.324159
     155A      4.362286   156A      4.432165   157A      4.432902
     158A      4.446644   159A      4.524340   160A      4.524861
     161A      4.588373   162A      4.589448   163A      4.624724
     164A      4.719860   165A      4.781358   166A      4.781741
     167A      4.839761   168A      4.967667   169A      5.006259
     170A      5.007805   171A      5.233340   172A      5.243311
     173A      5.253846   174A      5.358060   175A      5.366290
     176A      5.481837

    Final Occupation by Irrep:
              A
    DOCC [    16 ]
    SOCC [     1 ]

  @DF-UKS Final Energy:  -157.81304245982662

   => Energetics <=

    Nuclear Repulsion Energy =            125.3947110910974487
    One-Electron Energy =                -458.7490111348772643
    Two-Electron Energy =                 195.8484103441280695
    DFT Exchange-Correlation Energy =     -20.3071527601748834
    Empirical Dispersion Energy =           0.0000000000000000
    VV10 Nonlocal Energy =                  0.0000000000000000
    Total Energy =                       -157.8130424598266188

  UHF NO Occupations:
  HONO-2 :   15  A 1.9996008
  HONO-1 :   16  A 1.9989804
  HONO-0 :   17  A 1.0000000
  LUNO+0 :   18  A 0.0010196
  LUNO+1 :   19  A 0.0003992
  LUNO+2 :   20  A 0.0001976
  LUNO+3 :   21  A 0.0001975

Computation Completed

Properties will be evaluated at   0.000000,   0.000000,   0.000000 [a0]

Properties computed using the SCF density matrix

  Nuclear Dipole Moment: [e a0]
     X:     0.8272      Y:    -0.0025      Z:     0.0025

  Electronic Dipole Moment: [e a0]
     X:    -0.7493      Y:     0.0050      Z:    -0.0049

  Dipole Moment: [e a0]
     X:     0.0779      Y:     0.0024      Z:    -0.0025     Total:     0.0780

  Dipole Moment: [D]
     X:     0.1980      Y:     0.0062      Z:    -0.0062     Total:     0.1982

*** tstop() called on n032 at Fri Nov  5 15:02:45 2021
Module time:
	user time   =     632.32 seconds =      10.54 minutes
	system time =      12.02 seconds =       0.20 minutes
	total time  =        162 seconds =       2.70 minutes
Total time:
	user time   =     632.32 seconds =      10.54 minutes
	system time =      12.02 seconds =       0.20 minutes
	total time  =        162 seconds =       2.70 minutes
Grab this energy -157.81304245982662
    Psi4 stopped on: Friday, 05 November 2021 03:02PM
    Psi4 wall time for execution: 0:02:42.02

*** Psi4 exiting successfully. Buy a developer a beer!
