                               Psi4 1.4a2.dev629

  ==> Input File <==

--------------------------------------------------------------------------
import os
memory 14 GB

molecule {
 C   -0.3233409049    0.0002222558    0.0000000269
 C    0.0612228912   -1.3996956164   -2.4283720284
 C    0.0608520750    2.7994890976    0.0015992001
 C    0.0612235613   -1.4024693985    2.4267711073
 H    2.0869759155   -1.6446023556   -2.8467526475
 H   -0.7657185981   -0.3883583887   -4.0251098346
 H   -0.7653822428   -3.2921935490   -2.3484031693
 H    2.0867133771    3.2887866333   -0.0006210779
 H   -0.7657114418    3.6809778816    1.6760415365
 H   -0.7653177076    3.6808548847   -1.6766470134
 H    2.0869773241   -1.6435284129    2.8473746716
 H   -0.7657764526   -3.2917379925    2.3488231680
 H   -0.7653256730   -0.3877693529    4.0252960607
units bohr
0 2
}

basis {

assign 6-31g_2dfp_

[ 6-31g_2dfp_ ]

spherical

!----------------------------------------------------------------------
! Basis Set Exchange
! Version v0.8.13
! https://www.basissetexchange.org
!----------------------------------------------------------------------
!   Basis set: 6-31G(2df,p)
! Description: 6-31G(2df,p)
!        Role: orbital
!     Version: 0  (Data from the original Basis Set Exchange)
!----------------------------------------------------------------------

****
H     0
S    3   1.00
     18.7311370              0.03349460
      2.8253937              0.23472695
      0.6401217              0.81375733
S    1   1.00
      0.1612778              1.00000000
P    1   1.00
      1.5000000              1.0000000
P    1   1.00
      0.3750000              1.0000000
****
B     0
S    6   1.00
   2068.8823000              0.0018663
    310.6495700              0.0142515
     70.6830330              0.0695516
     19.8610800              0.2325729
      6.2993048              0.4670787
      2.1270270              0.3634314
SP   3   1.00
      4.7279710             -0.1303938              0.0745976
      1.1903377             -0.1307889              0.3078467
      0.3594117              1.1309444              0.7434568
SP   1   1.00
      0.1267512              1.0000000              1.0000000
D    1   1.00
      0.8020000              1.0000000
D    1   1.00
      0.2005000              1.0000000
F    1   1.00
      0.5000000              1.0000000
****
C     0
S    6   1.00
   3047.5249000              0.0018347
    457.3695100              0.0140373
    103.9486900              0.0688426
     29.2101550              0.2321844
      9.2866630              0.4679413
      3.1639270              0.3623120
SP   3   1.00
      7.8682724             -0.1193324              0.0689991
      1.8812885             -0.1608542              0.3164240
      0.5442493              1.1434564              0.7443083
SP   1   1.00
      0.1687144              1.0000000              1.0000000
D    1   1.00
      1.2520000              1.0000000
D    1   1.00
      0.3130000              1.0000000
F    1   1.00
      0.8000000              1.0000000
****
N     0
S    6   1.00
   4173.5110000              0.0018348
    627.4579000              0.0139950
    142.9021000              0.0685870
     40.2343300              0.2322410
     12.8202100              0.4690700
      4.3904370              0.3604550
SP   3   1.00
     11.6263580             -0.1149610              0.0675800
      2.7162800             -0.1691180              0.3239070
      0.7722180              1.1458520              0.7408950
SP   1   1.00
      0.2120313              1.0000000              1.0000000
D    1   1.00
      1.8260000              1.0000000
D    1   1.00
      0.4565000              1.0000000
F    1   1.00
      1.0000000              1.0000000
****
O     0
S    6   1.00
   5484.6717000              0.0018311
    825.2349500              0.0139501
    188.0469600              0.0684451
     52.9645000              0.2327143
     16.8975700              0.4701930
      5.7996353              0.3585209
SP   3   1.00
     15.5396160             -0.1107775              0.0708743
      3.5999336             -0.1480263              0.3397528
      1.0137618              1.1307670              0.7271586
SP   1   1.00
      0.2700058              1.0000000              1.0000000
D    1   1.00
      2.5840000              1.0000000
D    1   1.00
      0.6460000              1.0000000
F    1   1.00
      1.4000000              1.0000000
****
F     0
S    6   1.00
   7001.7130900              0.0018196169
   1051.3660900              0.0139160796
    239.2856900              0.0684053245
     67.3974453              0.233185760
     21.5199573              0.471267439
      7.40310130             0.356618546
SP   3   1.00
     20.8479528             -0.108506975            0.0716287243
      4.80830834            -0.146451658            0.3459121030
      1.34406986             1.128688580            0.7224699570
SP   1   1.00
      0.358151393            1.0000000              1.0000000
D    1   1.00
      3.5000000              1.0000000
D    1   1.00
      0.8750000              1.0000000
F    1   1.00
      1.8500000              1.0000000
****
Al     0
S    6   1.00
  13983.1000000              0.00194267
   2098.7500000              0.0148599
    477.7050000              0.0728494
    134.3600000              0.2468300
     42.8709000              0.4872580
     14.5189000              0.3234960
SP   6   1.00
    239.6680000             -0.00292619             0.00460285
     57.4419000             -0.0374080              0.0331990
     18.2859000             -0.1144870              0.1362820
      6.5991400              0.1156350              0.3304760
      2.4904900              0.6125950              0.4491460
      0.9445400              0.3937990              0.2657040
SP   3   1.00
      1.2779000             -0.2276060             -0.0175130
      0.3975900              0.00144583             0.2445330
      0.1600950              1.0927900              0.8049340
SP   1   1.00
      0.0556577              1.0000000              1.0000000
D    1   1.00
      0.6500000              1.0000000
D    1   1.00
      0.1625000              1.0000000
F    1   1.00
      0.2500000              1.0000000
****
Si     0
S    6   1.00
  16115.9000000              0.00195948
   2425.5800000              0.01492880
    553.8670000              0.07284780
    156.3400000              0.24613000
     50.0683000              0.48591400
     17.0178000              0.32500200
SP   6   1.00
    292.7180000             -0.00278094             0.00443826
     69.8731000             -0.03571460             0.03266790
     22.3363000             -0.11498500             0.13472100
      8.1503900              0.09356340             0.32867800
      3.1345800              0.60301700             0.44964000
      1.2254300              0.41895900             0.26137200
SP   3   1.00
      1.7273800             -0.24463000            -0.01779510
      0.5729220              0.00431572             0.25353900
      0.2221920              1.09818000             0.80066900
SP   1   1.00
      0.0778369              1.00000000             1.00000000
D    1   1.00
      0.9000000              1.0000000
D    1   1.00
      0.2250000              1.0000000
F    1   1.00
      0.3200000              1.0000000
****
P     0
S    6   1.00
  19413.3000000              0.0018516
   2909.4200000              0.0142062
    661.3640000              0.0699995
    185.7590000              0.2400790
     59.1943000              0.4847620
     20.0310000              0.3352000
SP   6   1.00
    339.4780000             -0.00278217             0.00456462
     81.0101000             -0.0360499              0.03369360
     25.8780000             -0.1166310              0.13975500
      9.4522100              0.0968328              0.33936200
      3.6656600              0.6144180              0.45092100
      1.4674600              0.4037980              0.23858600
SP   3   1.00
      2.1562300             -0.2529230             -0.01776530
      0.7489970              0.0328517              0.27405800
      0.2831450              1.0812500              0.78542100
SP   1   1.00
      0.0998317              1.0000000              1.00000000
D    1   1.00
      1.1000000              1.0000000
D    1   1.00
      0.2750000              1.0000000
F    1   1.00
      0.4500000              1.0000000
****
S     0
S    6   1.00
  21917.1000000              0.0018690
   3301.4900000              0.0142300
    754.1460000              0.0696960
    212.7110000              0.2384870
     67.9896000              0.4833070
     23.0515000              0.3380740
SP   6   1.00
    423.7350000             -0.0023767              0.0040610
    100.7100000             -0.0316930              0.0306810
     32.1599000             -0.1133170              0.1304520
     11.8079000              0.0560900              0.3272050
      4.6311000              0.5922550              0.4528510
      1.8702500              0.4550060              0.2560420
SP   3   1.00
      2.6158400             -0.2503740             -0.0145110
      0.9221670              0.0669570              0.3102630
      0.3412870              1.0545100              0.7544830
SP   1   1.00
      0.1171670              1.0000000              1.0000000
D    1   1.00
      1.3000000              1.0000000
D    1   1.00
      0.3250000              1.0000000
F    1   1.00
      0.5500000              1.0000000
****
Cl     0
S    6   1.00
  25180.1000000              0.0018330
   3780.3500000              0.0140340
    860.4740000              0.0690970
    242.1450000              0.2374520
     77.3349000              0.4830340
     26.2470000              0.3398560
SP   6   1.00
    491.7650000             -0.0022974              0.0039894
    116.9840000             -0.0307140              0.0303180
     37.4153000             -0.1125280              0.1298800
     13.7834000              0.0450160              0.3279510
      5.4521500              0.5893530              0.4535270
      2.2258800              0.4652060              0.2521540
SP   3   1.00
      3.1864900             -0.2518300             -0.0142990
      1.1442700              0.0615890              0.3235720
      0.4203770              1.0601800              0.7435070
SP   1   1.00
      0.1426570              1.0000000              1.0000000
D    1   1.00
      1.5000000              1.0000000
D    1   1.00
      0.3750000              1.0000000
F    1   1.00
      0.7000000              1.0000000
****
}

set {
reference uhf
freeze_core true
e_convergence 10
d_convergence 10
dft_spherical_points 1202
dft_radial_points 99
}

e = energy('b3lyp')

print_out('Grab this energy {0}'.format(e))
--------------------------------------------------------------------------

    Molecular point group: c1

    Geometry (in Bohr), charge = 0, multiplicity = 2:

       Center              X                  Y                   Z               Mass
    ------------   -----------------  -----------------  -----------------  -----------------
         C           -0.323340444078     0.000695278038     0.000000353196    12.000000000000
         C            0.061223352022    -1.399222594162    -2.428371702104    12.000000000000
         C            0.060852535822     2.799962119838     0.001599526396    12.000000000000
         C            0.061224022122    -1.401996376262     2.426771433596    12.000000000000
         H            2.086976376322    -1.644129333362    -2.846752321204     1.007825032230
         H           -0.765718137278    -0.387885366462    -4.025109508304     1.007825032230
         H           -0.765381781978    -3.291720526762    -2.348402843004     1.007825032230
         H            2.086713837922     3.289259655538    -0.000620751604     1.007825032230
         H           -0.765710980978     3.681450903838     1.676041862796     1.007825032230
         H           -0.765317246778     3.681327906938    -1.676646687104     1.007825032230
         H            2.086977784922    -1.643055390662     2.847374997896     1.007825032230
         H           -0.765775991778    -3.291264970262     2.348823494296     1.007825032230
         H           -0.765325212178    -0.387296330662     4.025296386996     1.007825032230

  Charge       = 0
  Multiplicity = 2
  Basis Set: ANONYMOUSD5A204C1
    Blend: 6-31G_2DFP_
  Basis Set: (ANONYMOUSD5A204C1 AUX)
    Blend: DEF2-UNIVERSAL-JKFIT

    Orbital Energies [Eh]
    ---------------------

    Alpha Occupied:

       1A    -10.180342     2A    -10.167063     3A    -10.167009
       4A    -10.166973     5A     -0.797766     6A     -0.686210
       7A     -0.686164     8A     -0.530776     9A     -0.441124
      10A     -0.434753    11A     -0.434590    12A     -0.382688
      13A     -0.382509    14A     -0.363612    15A     -0.338207
      16A     -0.337790    17A     -0.168961

    Alpha Virtual:

      18A      0.076072    19A      0.134136    20A      0.134173
      21A      0.142565    22A      0.142693    23A      0.154879
      24A      0.178697    25A      0.178861    26A      0.203543
      27A      0.214804    28A      0.275759    29A      0.276212
      30A      0.399221    31A      0.399235    32A      0.403346
      33A      0.424053    34A      0.424141    35A      0.456593
      36A      0.495368    37A      0.495410    38A      0.512153
      39A      0.513987    40A      0.578783    41A      0.578847
      42A      0.591575    43A      0.591695    44A      0.602573
      45A      0.624751    46A      0.631785    47A      0.636082
      48A      0.636414    49A      0.663350    50A      0.663472
      51A      0.683832    52A      0.683875    53A      0.734994
      54A      0.825354    55A      0.825461    56A      0.853916
      57A      0.915008    58A      0.915044    59A      0.944125
      60A      0.944615    61A      0.961268    62A      0.961316
      63A      1.003452    64A      1.128042    65A      1.128171
      66A      1.142225    67A      1.162986    68A      1.163552
      69A      1.223323    70A      1.274189    71A      1.274774
      72A      1.279371    73A      1.324289    74A      1.324423
      75A      1.355982    76A      1.365905    77A      1.366217
      78A      1.392457    79A      1.403871    80A      1.404230
      81A      1.416942    82A      1.417264    83A      1.427916
      84A      1.491452    85A      1.499126    86A      1.542754
      87A      1.542897    88A      1.574259    89A      1.574642
      90A      1.669819    91A      1.739283    92A      1.739563
      93A      1.768323    94A      1.830894    95A      1.831899
      96A      1.971730    97A      2.018260    98A      2.018518
      99A      2.019616   100A      2.051957   101A      2.053329
     102A      2.738365   103A      2.738607   104A      2.790916
     105A      2.811433   106A      2.889878   107A      2.890018
     108A      2.894947   109A      2.929440   110A      2.929555
     111A      2.958995   112A      2.964307   113A      2.964449
     114A      3.034009   115A      3.071156   116A      3.071413
     117A      3.084349   118A      3.168600   119A      3.168948
     120A      3.180606   121A      3.285302   122A      3.285324
     123A      3.326978   124A      3.327346   125A      3.375615
     126A      3.489816   127A      3.490497   128A      3.513984
     129A      3.525355   130A      3.568298   131A      3.568486
     132A      3.575148   133A      3.665664   134A      3.667069
     135A      3.679666   136A      3.694025   137A      3.694240
     138A      3.776636   139A      3.776977   140A      3.789120
     141A      3.911478   142A      3.912971   143A      4.034454
     144A      4.111216   145A      4.111530   146A      4.147834
     147A      4.148416   148A      4.173246   149A      4.202475
     150A      4.202666   151A      4.203656   152A      4.210862
     153A      4.315222   154A      4.316665   155A      4.358977
     156A      4.423434   157A      4.425387   158A      4.443515
     159A      4.516195   160A      4.517495   161A      4.578249
     162A      4.578294   163A      4.617537   164A      4.709456
     165A      4.774270   166A      4.774884   167A      4.836925
     168A      4.962829   169A      5.002280   170A      5.003655
     171A      5.228040   172A      5.246616   173A      5.247015
     174A      5.355445   175A      5.355562   176A      5.479351

    Beta Occupied:

       1A    -10.167822     2A    -10.167760     3A    -10.167742
       4A    -10.166519     5A     -0.781091     6A     -0.684018
       7A     -0.683961     8A     -0.511748     9A     -0.431126
      10A     -0.430959    11A     -0.421822    12A     -0.376793
      13A     -0.376574    14A     -0.362595    15A     -0.333330
      16A     -0.332912

    Beta Virtual:

      17A     -0.025743    18A      0.077081    19A      0.135041
      20A      0.135047    21A      0.144452    22A      0.144546
      23A      0.163338    24A      0.182380    25A      0.182520
      26A      0.215027    27A      0.218933    28A      0.282116
      29A      0.282552    30A      0.400393    31A      0.400402
      32A      0.419791    33A      0.426863    34A      0.426954
      35A      0.468501    36A      0.497622    37A      0.497678
      38A      0.513895    39A      0.556325    40A      0.584328
      41A      0.584403    42A      0.597754    43A      0.597874
      44A      0.609997    45A      0.628119    46A      0.631948
      47A      0.639371    48A      0.639696    49A      0.666908
      50A      0.667042    51A      0.686479    52A      0.686498
      53A      0.757517    54A      0.830517    55A      0.830635
      56A      0.855269    57A      0.922977    58A      0.923018
      59A      0.945963    60A      0.953542    61A      0.966577
      62A      0.966619    63A      1.008692    64A      1.132074
      65A      1.132199    66A      1.155597    67A      1.168041
      68A      1.168646    69A      1.232296    70A      1.279783
      71A      1.280374    72A      1.285125    73A      1.329293
      74A      1.329398    75A      1.365395    76A      1.371175
      77A      1.371432    78A      1.393519    79A      1.407389
      80A      1.407643    81A      1.422005    82A      1.422297
      83A      1.428191    84A      1.492519    85A      1.509549
      86A      1.547155    87A      1.547311    88A      1.582124
      89A      1.582522    90A      1.674666    91A      1.745040
      92A      1.745328    93A      1.779104    94A      1.834759
      95A      1.835744    96A      1.972590    97A      2.024913
      98A      2.025993    99A      2.039662   100A      2.058670
     101A      2.060051   102A      2.746723   103A      2.746919
     104A      2.811804   105A      2.816094   106A      2.902587
     107A      2.902690   108A      2.924646   109A      2.931936
     110A      2.932024   111A      2.960058   112A      2.968836
     113A      2.969008   114A      3.041944   115A      3.081071
     116A      3.081315   117A      3.086170   118A      3.184339
     119A      3.184660   120A      3.188336   121A      3.290095
     122A      3.290127   123A      3.330790   124A      3.331142
     125A      3.383434   126A      3.492523   127A      3.493249
     128A      3.512358   129A      3.528391   130A      3.575004
     131A      3.581624   132A      3.581843   133A      3.670389
     134A      3.671847   135A      3.692960   136A      3.725640
     137A      3.725885   138A      3.781118   139A      3.781544
     140A      3.817667   141A      3.921346   142A      3.922736
     143A      4.045341   144A      4.117928   145A      4.118447
     146A      4.155139   147A      4.155530   148A      4.187305
     149A      4.208593   150A      4.209288   151A      4.210755
     152A      4.215339   153A      4.322633   154A      4.324134
     155A      4.362340   156A      4.431657   157A      4.433572
     158A      4.446423   159A      4.523990   160A      4.525279
     161A      4.588835   162A      4.588911   163A      4.624730
     164A      4.719801   165A      4.781243   166A      4.781817
     167A      4.839843   168A      4.967624   169A      5.006333
     170A      5.007679   171A      5.233756   172A      5.248408
     173A      5.248792   174A      5.361904   175A      5.362063
     176A      5.481672

    Final Occupation by Irrep:
              A
    DOCC [    16 ]
    SOCC [     1 ]

  @DF-UKS Final Energy:  -157.81306930033276

   => Energetics <=

    Nuclear Repulsion Energy =            125.3946144937459906
    One-Electron Energy =                -458.7488922512055751
    Two-Electron Energy =                 195.8483510835364712
    DFT Exchange-Correlation Energy =     -20.3071426264096182
    Empirical Dispersion Energy =           0.0000000000000000
    VV10 Nonlocal Energy =                  0.0000000000000000
    Total Energy =                       -157.8130693003327565

  UHF NO Occupations:
  HONO-2 :   15  A 1.9996009
  HONO-1 :   16  A 1.9989805
  HONO-0 :   17  A 1.0000000
  LUNO+0 :   18  A 0.0010195
  LUNO+1 :   19  A 0.0003991
  LUNO+2 :   20  A 0.0001979
  LUNO+3 :   21  A 0.0001972

Computation Completed

Properties will be evaluated at   0.000000,   0.000000,   0.000000 [a0]

Properties computed using the SCF density matrix

  Nuclear Dipole Moment: [e a0]
     X:     0.8272      Y:     0.0033      Z:     0.0000

  Electronic Dipole Moment: [e a0]
     X:    -0.7493      Y:    -0.0034      Z:     0.0000

  Dipole Moment: [e a0]
     X:     0.0779      Y:    -0.0001      Z:     0.0000     Total:     0.0779

  Dipole Moment: [D]
     X:     0.1980      Y:    -0.0002      Z:     0.0000     Total:     0.1980

*** tstop() called on n049 at Fri Nov  5 12:41:28 2021
Module time:
	user time   =     508.81 seconds =       8.48 minutes
	system time =      11.17 seconds =       0.19 minutes
	total time  =        131 seconds =       2.18 minutes
Total time:
	user time   =     508.81 seconds =       8.48 minutes
	system time =      11.17 seconds =       0.19 minutes
	total time  =        131 seconds =       2.18 minutes
Grab this energy -157.81306930033276
    Psi4 stopped on: Friday, 05 November 2021 12:41PM
    Psi4 wall time for execution: 0:02:10.84

*** Psi4 exiting successfully. Buy a developer a beer!
