                               Psi4 1.4a2.dev629

  ==> Input File <==

--------------------------------------------------------------------------
import os
memory 14 GB

molecule {
 C   -0.3233399659   -0.0000017094   -0.0002464310
 C    0.0601783871   -1.4009950407   -2.4264365620
 C    0.0610202570    2.8017600236    0.0001481184
 C    0.0621033602   -1.4007594198    2.4263248442
 H    2.0841220697   -1.6422627505   -2.8424108170
 H   -0.7663424007   -0.3889775538   -4.0275591215
 H   -0.7674673558   -3.2936318994   -2.3521977517
 H    2.0867981864    3.2881038285    0.0018538345
 H   -0.7666096158    3.6816728310    1.6759262348
 H   -0.7646829120    3.6788363747   -1.6770734106
 H    2.0897412316   -1.6459356498    2.8524802931
 H   -0.7636638466   -3.2903644984    2.3457836850
 H   -0.7644652719   -0.3874688496    4.0234070839
units bohr
0 2
}

basis {

assign 6-31g_2dfp_

[ 6-31g_2dfp_ ]

spherical

!----------------------------------------------------------------------
! Basis Set Exchange
! Version v0.8.13
! https://www.basissetexchange.org
!----------------------------------------------------------------------
!   Basis set: 6-31G(2df,p)
! Description: 6-31G(2df,p)
!        Role: orbital
!     Version: 0  (Data from the original Basis Set Exchange)
!----------------------------------------------------------------------

****
H     0
S    3   1.00
     18.7311370              0.03349460
      2.8253937              0.23472695
      0.6401217              0.81375733
S    1   1.00
      0.1612778              1.00000000
P    1   1.00
      1.5000000              1.0000000
P    1   1.00
      0.3750000              1.0000000
****
B     0
S    6   1.00
   2068.8823000              0.0018663
    310.6495700              0.0142515
     70.6830330              0.0695516
     19.8610800              0.2325729
      6.2993048              0.4670787
      2.1270270              0.3634314
SP   3   1.00
      4.7279710             -0.1303938              0.0745976
      1.1903377             -0.1307889              0.3078467
      0.3594117              1.1309444              0.7434568
SP   1   1.00
      0.1267512              1.0000000              1.0000000
D    1   1.00
      0.8020000              1.0000000
D    1   1.00
      0.2005000              1.0000000
F    1   1.00
      0.5000000              1.0000000
****
C     0
S    6   1.00
   3047.5249000              0.0018347
    457.3695100              0.0140373
    103.9486900              0.0688426
     29.2101550              0.2321844
      9.2866630              0.4679413
      3.1639270              0.3623120
SP   3   1.00
      7.8682724             -0.1193324              0.0689991
      1.8812885             -0.1608542              0.3164240
      0.5442493              1.1434564              0.7443083
SP   1   1.00
      0.1687144              1.0000000              1.0000000
D    1   1.00
      1.2520000              1.0000000
D    1   1.00
      0.3130000              1.0000000
F    1   1.00
      0.8000000              1.0000000
****
N     0
S    6   1.00
   4173.5110000              0.0018348
    627.4579000              0.0139950
    142.9021000              0.0685870
     40.2343300              0.2322410
     12.8202100              0.4690700
      4.3904370              0.3604550
SP   3   1.00
     11.6263580             -0.1149610              0.0675800
      2.7162800             -0.1691180              0.3239070
      0.7722180              1.1458520              0.7408950
SP   1   1.00
      0.2120313              1.0000000              1.0000000
D    1   1.00
      1.8260000              1.0000000
D    1   1.00
      0.4565000              1.0000000
F    1   1.00
      1.0000000              1.0000000
****
O     0
S    6   1.00
   5484.6717000              0.0018311
    825.2349500              0.0139501
    188.0469600              0.0684451
     52.9645000              0.2327143
     16.8975700              0.4701930
      5.7996353              0.3585209
SP   3   1.00
     15.5396160             -0.1107775              0.0708743
      3.5999336             -0.1480263              0.3397528
      1.0137618              1.1307670              0.7271586
SP   1   1.00
      0.2700058              1.0000000              1.0000000
D    1   1.00
      2.5840000              1.0000000
D    1   1.00
      0.6460000              1.0000000
F    1   1.00
      1.4000000              1.0000000
****
F     0
S    6   1.00
   7001.7130900              0.0018196169
   1051.3660900              0.0139160796
    239.2856900              0.0684053245
     67.3974453              0.233185760
     21.5199573              0.471267439
      7.40310130             0.356618546
SP   3   1.00
     20.8479528             -0.108506975            0.0716287243
      4.80830834            -0.146451658            0.3459121030
      1.34406986             1.128688580            0.7224699570
SP   1   1.00
      0.358151393            1.0000000              1.0000000
D    1   1.00
      3.5000000              1.0000000
D    1   1.00
      0.8750000              1.0000000
F    1   1.00
      1.8500000              1.0000000
****
Al     0
S    6   1.00
  13983.1000000              0.00194267
   2098.7500000              0.0148599
    477.7050000              0.0728494
    134.3600000              0.2468300
     42.8709000              0.4872580
     14.5189000              0.3234960
SP   6   1.00
    239.6680000             -0.00292619             0.00460285
     57.4419000             -0.0374080              0.0331990
     18.2859000             -0.1144870              0.1362820
      6.5991400              0.1156350              0.3304760
      2.4904900              0.6125950              0.4491460
      0.9445400              0.3937990              0.2657040
SP   3   1.00
      1.2779000             -0.2276060             -0.0175130
      0.3975900              0.00144583             0.2445330
      0.1600950              1.0927900              0.8049340
SP   1   1.00
      0.0556577              1.0000000              1.0000000
D    1   1.00
      0.6500000              1.0000000
D    1   1.00
      0.1625000              1.0000000
F    1   1.00
      0.2500000              1.0000000
****
Si     0
S    6   1.00
  16115.9000000              0.00195948
   2425.5800000              0.01492880
    553.8670000              0.07284780
    156.3400000              0.24613000
     50.0683000              0.48591400
     17.0178000              0.32500200
SP   6   1.00
    292.7180000             -0.00278094             0.00443826
     69.8731000             -0.03571460             0.03266790
     22.3363000             -0.11498500             0.13472100
      8.1503900              0.09356340             0.32867800
      3.1345800              0.60301700             0.44964000
      1.2254300              0.41895900             0.26137200
SP   3   1.00
      1.7273800             -0.24463000            -0.01779510
      0.5729220              0.00431572             0.25353900
      0.2221920              1.09818000             0.80066900
SP   1   1.00
      0.0778369              1.00000000             1.00000000
D    1   1.00
      0.9000000              1.0000000
D    1   1.00
      0.2250000              1.0000000
F    1   1.00
      0.3200000              1.0000000
****
P     0
S    6   1.00
  19413.3000000              0.0018516
   2909.4200000              0.0142062
    661.3640000              0.0699995
    185.7590000              0.2400790
     59.1943000              0.4847620
     20.0310000              0.3352000
SP   6   1.00
    339.4780000             -0.00278217             0.00456462
     81.0101000             -0.0360499              0.03369360
     25.8780000             -0.1166310              0.13975500
      9.4522100              0.0968328              0.33936200
      3.6656600              0.6144180              0.45092100
      1.4674600              0.4037980              0.23858600
SP   3   1.00
      2.1562300             -0.2529230             -0.01776530
      0.7489970              0.0328517              0.27405800
      0.2831450              1.0812500              0.78542100
SP   1   1.00
      0.0998317              1.0000000              1.00000000
D    1   1.00
      1.1000000              1.0000000
D    1   1.00
      0.2750000              1.0000000
F    1   1.00
      0.4500000              1.0000000
****
S     0
S    6   1.00
  21917.1000000              0.0018690
   3301.4900000              0.0142300
    754.1460000              0.0696960
    212.7110000              0.2384870
     67.9896000              0.4833070
     23.0515000              0.3380740
SP   6   1.00
    423.7350000             -0.0023767              0.0040610
    100.7100000             -0.0316930              0.0306810
     32.1599000             -0.1133170              0.1304520
     11.8079000              0.0560900              0.3272050
      4.6311000              0.5922550              0.4528510
      1.8702500              0.4550060              0.2560420
SP   3   1.00
      2.6158400             -0.2503740             -0.0145110
      0.9221670              0.0669570              0.3102630
      0.3412870              1.0545100              0.7544830
SP   1   1.00
      0.1171670              1.0000000              1.0000000
D    1   1.00
      1.3000000              1.0000000
D    1   1.00
      0.3250000              1.0000000
F    1   1.00
      0.5500000              1.0000000
****
Cl     0
S    6   1.00
  25180.1000000              0.0018330
   3780.3500000              0.0140340
    860.4740000              0.0690970
    242.1450000              0.2374520
     77.3349000              0.4830340
     26.2470000              0.3398560
SP   6   1.00
    491.7650000             -0.0022974              0.0039894
    116.9840000             -0.0307140              0.0303180
     37.4153000             -0.1125280              0.1298800
     13.7834000              0.0450160              0.3279510
      5.4521500              0.5893530              0.4535270
      2.2258800              0.4652060              0.2521540
SP   3   1.00
      3.1864900             -0.2518300             -0.0142990
      1.1442700              0.0615890              0.3235720
      0.4203770              1.0601800              0.7435070
SP   1   1.00
      0.1426570              1.0000000              1.0000000
D    1   1.00
      1.5000000              1.0000000
D    1   1.00
      0.3750000              1.0000000
F    1   1.00
      0.7000000              1.0000000
****
}

set {
reference uhf
freeze_core true
e_convergence 10
d_convergence 10
dft_spherical_points 1202
dft_radial_points 99
}

e = energy('b3lyp')

print_out('Grab this energy {0}'.format(e))
--------------------------------------------------------------------------

    Molecular point group: c1

    Geometry (in Bohr), charge = 0, multiplicity = 2:

       Center              X                  Y                   Z               Mass
    ------------   -----------------  -----------------  -----------------  -----------------
         C           -0.323340355591    -0.000002022289    -0.000205977634    12.000000000000
         C            0.060177997409    -1.400995353589    -2.426396108634    12.000000000000
         C            0.061019867309     2.801759710711     0.000188571766    12.000000000000
         C            0.062102970509    -1.400759732689     2.426365297566    12.000000000000
         H            2.084121680009    -1.642263063389    -2.842370363634     1.007825032230
         H           -0.766342790391    -0.388977866689    -4.027518668134     1.007825032230
         H           -0.767467745491    -3.293632212289    -2.352157298334     1.007825032230
         H            2.086797796709     3.288103515611     0.001894287866     1.007825032230
         H           -0.766610005491     3.681672518111     1.675966688166     1.007825032230
         H           -0.764683301691     3.678836061811    -1.677032957234     1.007825032230
         H            2.089740841909    -1.645935962689     2.852520746466     1.007825032230
         H           -0.763664236291    -3.290364811289     2.345824138366     1.007825032230
         H           -0.764465661591    -0.387469162489     4.023447537266     1.007825032230

  Charge       = 0
  Multiplicity = 2
  Basis Set: ANONYMOUS674FBA82
    Blend: 6-31G_2DFP_
  Basis Set: (ANONYMOUS674FBA82 AUX)
    Blend: DEF2-UNIVERSAL-JKFIT

    Orbital Energies [Eh]
    ---------------------

    Alpha Occupied:

       1A    -10.180342     2A    -10.167051     3A    -10.167020
       4A    -10.166974     5A     -0.797766     6A     -0.686216
       7A     -0.686158     8A     -0.530775     9A     -0.441125
      10A     -0.434758    11A     -0.434585    12A     -0.382823
      13A     -0.382373    14A     -0.363611    15A     -0.338152
      16A     -0.337846    17A     -0.168961

    Alpha Virtual:

      18A      0.076073    19A      0.134107    20A      0.134204
      21A      0.142422    22A      0.142834    23A      0.154880
      24A      0.178641    25A      0.178912    26A      0.203550
      27A      0.214802    28A      0.275964    29A      0.276006
      30A      0.399103    31A      0.399354    32A      0.403344
      33A      0.423995    34A      0.424200    35A      0.456594
      36A      0.495378    37A      0.495400    38A      0.512161
      39A      0.513981    40A      0.578685    41A      0.578938
      42A      0.591368    43A      0.591880    44A      0.602602
      45A      0.624763    46A      0.631749    47A      0.636041
      48A      0.636479    49A      0.663373    50A      0.663453
      51A      0.683738    52A      0.683965    53A      0.734993
      54A      0.825347    55A      0.825466    56A      0.853916
      57A      0.914706    58A      0.915342    59A      0.944109
      60A      0.944614    61A      0.961223    62A      0.961384
      63A      1.003452    64A      1.127705    65A      1.128515
      66A      1.142204    67A      1.163116    68A      1.163435
      69A      1.223325    70A      1.274383    71A      1.274585
      72A      1.279369    73A      1.324284    74A      1.324426
      75A      1.355976    76A      1.366055    77A      1.366068
      78A      1.392453    79A      1.403558    80A      1.404536
      81A      1.416760    82A      1.417439    83A      1.427924
      84A      1.491501    85A      1.499060    86A      1.542821
      87A      1.542849    88A      1.573965    89A      1.574941
      90A      1.669829    91A      1.739318    92A      1.739506
      93A      1.768327    94A      1.830970    95A      1.831827
      96A      1.971721    97A      2.018298    98A      2.018968
      99A      2.019131   100A      2.052177   101A      2.053099
     102A      2.738476   103A      2.738499   104A      2.790926
     105A      2.811429   106A      2.889777   107A      2.890102
     108A      2.894975   109A      2.929186   110A      2.929801
     111A      2.958989   112A      2.964197   113A      2.964561
     114A      3.034003   115A      3.070643   116A      3.071928
     117A      3.084351   118A      3.168556   119A      3.169013
     120A      3.180578   121A      3.285199   122A      3.285431
     123A      3.326288   124A      3.328042   125A      3.375618
     126A      3.489097   127A      3.491225   128A      3.514008
     129A      3.525336   130A      3.568216   131A      3.568419
     132A      3.575291   133A      3.665935   134A      3.666819
     135A      3.679661   136A      3.693461   137A      3.694766
     138A      3.776730   139A      3.776863   140A      3.789169
     141A      3.912100   142A      3.912355   143A      4.034450
     144A      4.111241   145A      4.111498   146A      4.148084
     147A      4.148147   148A      4.173246   149A      4.202203
     150A      4.202958   151A      4.203650   152A      4.210837
     153A      4.315767   154A      4.316156   155A      4.358976
     156A      4.424383   157A      4.424554   158A      4.443408
     159A      4.516198   160A      4.517448   161A      4.578261
     162A      4.578297   163A      4.617580   164A      4.709399
     165A      4.774005   166A      4.775192   167A      4.836908
     168A      4.962865   169A      5.002405   170A      5.003499
     171A      5.228065   172A      5.246261   173A      5.247358
     174A      5.355458   175A      5.355557   176A      5.479345

    Beta Occupied:

       1A    -10.167803     2A    -10.167776     3A    -10.167744
       4A    -10.166520     5A     -0.781091     6A     -0.684014
       7A     -0.683965     8A     -0.511747     9A     -0.431140
      10A     -0.430945    11A     -0.421823    12A     -0.376914
      13A     -0.376452    14A     -0.362595    15A     -0.333264
      16A     -0.332981

    Beta Virtual:

      17A     -0.025743    18A      0.077082    19A      0.135004
      20A      0.135087    21A      0.144315    22A      0.144682
      23A      0.163339    24A      0.182308    25A      0.182588
      26A      0.215032    27A      0.218932    28A      0.282308
      29A      0.282359    30A      0.400275    31A      0.400519
      32A      0.419791    33A      0.426804    34A      0.427012
      35A      0.468502    36A      0.497638    37A      0.497663
      38A      0.513896    39A      0.556326    40A      0.584230
      41A      0.584495    42A      0.597544    43A      0.598066
      44A      0.610019    45A      0.628139    46A      0.631915
      47A      0.639324    48A      0.639757    49A      0.666928
      50A      0.667025    51A      0.686389    52A      0.686584
      53A      0.757516    54A      0.830519    55A      0.830632
      56A      0.855269    57A      0.922704    58A      0.923288
      59A      0.945948    60A      0.953540    61A      0.966542
      62A      0.966676    63A      1.008692    64A      1.131778
      65A      1.132498    66A      1.155576    67A      1.168159
      68A      1.168544    69A      1.232297    70A      1.279995
      71A      1.280170    72A      1.285121    73A      1.329269
      74A      1.329420    75A      1.365379    76A      1.371288
      77A      1.371336    78A      1.393511    79A      1.407017
      80A      1.408006    81A      1.421808    82A      1.422477
      83A      1.428206    84A      1.492550    85A      1.509501
      86A      1.547140    87A      1.547354    88A      1.581745
      89A      1.582901    90A      1.674675    91A      1.745083
      92A      1.745265    93A      1.779106    94A      1.834830
      95A      1.835678    96A      1.972581    97A      2.025391
      98A      2.025514    99A      2.039670   100A      2.058880
     101A      2.059827   102A      2.746799   103A      2.746846
     104A      2.811841   105A      2.816061   106A      2.902455
     107A      2.902827   108A      2.924655   109A      2.931679
     110A      2.932271   111A      2.960056   112A      2.968740
     113A      2.969103   114A      3.041938   115A      3.080510
     116A      3.081881   117A      3.086167   118A      3.184309
     119A      3.184768   120A      3.188251   121A      3.289960
     122A      3.290267   123A      3.330103   124A      3.331836
     125A      3.383436   126A      3.491850   127A      3.493933
     128A      3.512373   129A      3.528381   130A      3.574886
     131A      3.581641   132A      3.581936   133A      3.670699
     134A      3.671552   135A      3.692947   136A      3.725346
     137A      3.726163   138A      3.781285   139A      3.781368
     140A      3.817700   141A      3.921911   142A      3.922177
     143A      4.045338   144A      4.118085   145A      4.118287
     146A      4.155210   147A      4.155437   148A      4.187306
     149A      4.208573   150A      4.209257   151A      4.210825
     152A      4.215309   153A      4.323236   154A      4.323568
     155A      4.362337   156A      4.432588   157A      4.432781
     158A      4.446289   159A      4.523997   160A      4.525231
     161A      4.588848   162A      4.588913   163A      4.624772
     164A      4.719743   165A      4.780929   166A      4.782176
     167A      4.839826   168A      4.967660   169A      5.006460
     170A      5.007523   171A      5.233781   172A      5.248046
     173A      5.249140   174A      5.361946   175A      5.362031
     176A      5.481667

    Final Occupation by Irrep:
              A
    DOCC [    16 ]
    SOCC [     1 ]

  @DF-UKS Final Energy:  -157.81306789710456

   => Energetics <=

    Nuclear Repulsion Energy =            125.3945925781708866
    One-Electron Energy =                -458.7488442046063710
    Two-Electron Energy =                 195.8483262126950137
    DFT Exchange-Correlation Energy =     -20.3071424833640997
    Empirical Dispersion Energy =           0.0000000000000000
    VV10 Nonlocal Energy =                  0.0000000000000000
    Total Energy =                       -157.8130678971045597

  UHF NO Occupations:
  HONO-2 :   15  A 1.9996009
  HONO-1 :   16  A 1.9989805
  HONO-0 :   17  A 1.0000000
  LUNO+0 :   18  A 0.0010195
  LUNO+1 :   19  A 0.0003991
  LUNO+2 :   20  A 0.0001977
  LUNO+3 :   21  A 0.0001974

Computation Completed

Properties will be evaluated at   0.000000,   0.000000,   0.000000 [a0]

Properties computed using the SCF density matrix

  Nuclear Dipole Moment: [e a0]
     X:     0.8272      Y:    -0.0000      Z:     0.0003

  Electronic Dipole Moment: [e a0]
     X:    -0.7493      Y:     0.0000      Z:    -0.0010

  Dipole Moment: [e a0]
     X:     0.0779      Y:     0.0000      Z:    -0.0008     Total:     0.0779

  Dipole Moment: [D]
     X:     0.1980      Y:     0.0000      Z:    -0.0019     Total:     0.1980

*** tstop() called on n065 at Fri Nov  5 15:14:58 2021
Module time:
	user time   =     508.72 seconds =       8.48 minutes
	system time =      11.15 seconds =       0.19 minutes
	total time  =        131 seconds =       2.18 minutes
Total time:
	user time   =     508.72 seconds =       8.48 minutes
	system time =      11.15 seconds =       0.19 minutes
	total time  =        131 seconds =       2.18 minutes
Grab this energy -157.81306789710456
    Psi4 stopped on: Friday, 05 November 2021 03:14PM
    Psi4 wall time for execution: 0:02:10.77

*** Psi4 exiting successfully. Buy a developer a beer!
