                               Psi4 1.4a2.dev629

  ==> Input File <==

--------------------------------------------------------------------------
import os
memory 14 GB

molecule {
 C   -0.3236403220   -0.0000020579    0.0000017745
 C    0.0612796766   -1.4035598035   -2.4311205842
 C    0.0611591552    2.8072046878    0.0000484687
 C    0.0612786878   -1.4036405923    2.4310721188
 H    2.0872264197   -1.6433623186   -2.8554800474
 H   -0.7695806790   -0.3927352271   -4.0300691149
 H   -0.7617178917   -3.2969460745   -2.3528038004
 H    2.0870854018    3.2946979025    0.0046528965
 H   -0.7698180302    3.6864851012    1.6748883778
 H   -0.7618013413    3.6860272109   -1.6788721726
 H    2.0872227538   -1.6514280583    2.8508243929
 H   -0.7697455283   -3.2937137704    2.3551875259
 H   -0.7615561790   -0.3890513133    4.0316701644
units bohr
0 2
}

basis {

assign 6-31g_2dfp_

[ 6-31g_2dfp_ ]

spherical

!----------------------------------------------------------------------
! Basis Set Exchange
! Version v0.8.13
! https://www.basissetexchange.org
!----------------------------------------------------------------------
!   Basis set: 6-31G(2df,p)
! Description: 6-31G(2df,p)
!        Role: orbital
!     Version: 0  (Data from the original Basis Set Exchange)
!----------------------------------------------------------------------

****
H     0
S    3   1.00
     18.7311370              0.03349460
      2.8253937              0.23472695
      0.6401217              0.81375733
S    1   1.00
      0.1612778              1.00000000
P    1   1.00
      1.5000000              1.0000000
P    1   1.00
      0.3750000              1.0000000
****
B     0
S    6   1.00
   2068.8823000              0.0018663
    310.6495700              0.0142515
     70.6830330              0.0695516
     19.8610800              0.2325729
      6.2993048              0.4670787
      2.1270270              0.3634314
SP   3   1.00
      4.7279710             -0.1303938              0.0745976
      1.1903377             -0.1307889              0.3078467
      0.3594117              1.1309444              0.7434568
SP   1   1.00
      0.1267512              1.0000000              1.0000000
D    1   1.00
      0.8020000              1.0000000
D    1   1.00
      0.2005000              1.0000000
F    1   1.00
      0.5000000              1.0000000
****
C     0
S    6   1.00
   3047.5249000              0.0018347
    457.3695100              0.0140373
    103.9486900              0.0688426
     29.2101550              0.2321844
      9.2866630              0.4679413
      3.1639270              0.3623120
SP   3   1.00
      7.8682724             -0.1193324              0.0689991
      1.8812885             -0.1608542              0.3164240
      0.5442493              1.1434564              0.7443083
SP   1   1.00
      0.1687144              1.0000000              1.0000000
D    1   1.00
      1.2520000              1.0000000
D    1   1.00
      0.3130000              1.0000000
F    1   1.00
      0.8000000              1.0000000
****
N     0
S    6   1.00
   4173.5110000              0.0018348
    627.4579000              0.0139950
    142.9021000              0.0685870
     40.2343300              0.2322410
     12.8202100              0.4690700
      4.3904370              0.3604550
SP   3   1.00
     11.6263580             -0.1149610              0.0675800
      2.7162800             -0.1691180              0.3239070
      0.7722180              1.1458520              0.7408950
SP   1   1.00
      0.2120313              1.0000000              1.0000000
D    1   1.00
      1.8260000              1.0000000
D    1   1.00
      0.4565000              1.0000000
F    1   1.00
      1.0000000              1.0000000
****
O     0
S    6   1.00
   5484.6717000              0.0018311
    825.2349500              0.0139501
    188.0469600              0.0684451
     52.9645000              0.2327143
     16.8975700              0.4701930
      5.7996353              0.3585209
SP   3   1.00
     15.5396160             -0.1107775              0.0708743
      3.5999336             -0.1480263              0.3397528
      1.0137618              1.1307670              0.7271586
SP   1   1.00
      0.2700058              1.0000000              1.0000000
D    1   1.00
      2.5840000              1.0000000
D    1   1.00
      0.6460000              1.0000000
F    1   1.00
      1.4000000              1.0000000
****
F     0
S    6   1.00
   7001.7130900              0.0018196169
   1051.3660900              0.0139160796
    239.2856900              0.0684053245
     67.3974453              0.233185760
     21.5199573              0.471267439
      7.40310130             0.356618546
SP   3   1.00
     20.8479528             -0.108506975            0.0716287243
      4.80830834            -0.146451658            0.3459121030
      1.34406986             1.128688580            0.7224699570
SP   1   1.00
      0.358151393            1.0000000              1.0000000
D    1   1.00
      3.5000000              1.0000000
D    1   1.00
      0.8750000              1.0000000
F    1   1.00
      1.8500000              1.0000000
****
Al     0
S    6   1.00
  13983.1000000              0.00194267
   2098.7500000              0.0148599
    477.7050000              0.0728494
    134.3600000              0.2468300
     42.8709000              0.4872580
     14.5189000              0.3234960
SP   6   1.00
    239.6680000             -0.00292619             0.00460285
     57.4419000             -0.0374080              0.0331990
     18.2859000             -0.1144870              0.1362820
      6.5991400              0.1156350              0.3304760
      2.4904900              0.6125950              0.4491460
      0.9445400              0.3937990              0.2657040
SP   3   1.00
      1.2779000             -0.2276060             -0.0175130
      0.3975900              0.00144583             0.2445330
      0.1600950              1.0927900              0.8049340
SP   1   1.00
      0.0556577              1.0000000              1.0000000
D    1   1.00
      0.6500000              1.0000000
D    1   1.00
      0.1625000              1.0000000
F    1   1.00
      0.2500000              1.0000000
****
Si     0
S    6   1.00
  16115.9000000              0.00195948
   2425.5800000              0.01492880
    553.8670000              0.07284780
    156.3400000              0.24613000
     50.0683000              0.48591400
     17.0178000              0.32500200
SP   6   1.00
    292.7180000             -0.00278094             0.00443826
     69.8731000             -0.03571460             0.03266790
     22.3363000             -0.11498500             0.13472100
      8.1503900              0.09356340             0.32867800
      3.1345800              0.60301700             0.44964000
      1.2254300              0.41895900             0.26137200
SP   3   1.00
      1.7273800             -0.24463000            -0.01779510
      0.5729220              0.00431572             0.25353900
      0.2221920              1.09818000             0.80066900
SP   1   1.00
      0.0778369              1.00000000             1.00000000
D    1   1.00
      0.9000000              1.0000000
D    1   1.00
      0.2250000              1.0000000
F    1   1.00
      0.3200000              1.0000000
****
P     0
S    6   1.00
  19413.3000000              0.0018516
   2909.4200000              0.0142062
    661.3640000              0.0699995
    185.7590000              0.2400790
     59.1943000              0.4847620
     20.0310000              0.3352000
SP   6   1.00
    339.4780000             -0.00278217             0.00456462
     81.0101000             -0.0360499              0.03369360
     25.8780000             -0.1166310              0.13975500
      9.4522100              0.0968328              0.33936200
      3.6656600              0.6144180              0.45092100
      1.4674600              0.4037980              0.23858600
SP   3   1.00
      2.1562300             -0.2529230             -0.01776530
      0.7489970              0.0328517              0.27405800
      0.2831450              1.0812500              0.78542100
SP   1   1.00
      0.0998317              1.0000000              1.00000000
D    1   1.00
      1.1000000              1.0000000
D    1   1.00
      0.2750000              1.0000000
F    1   1.00
      0.4500000              1.0000000
****
S     0
S    6   1.00
  21917.1000000              0.0018690
   3301.4900000              0.0142300
    754.1460000              0.0696960
    212.7110000              0.2384870
     67.9896000              0.4833070
     23.0515000              0.3380740
SP   6   1.00
    423.7350000             -0.0023767              0.0040610
    100.7100000             -0.0316930              0.0306810
     32.1599000             -0.1133170              0.1304520
     11.8079000              0.0560900              0.3272050
      4.6311000              0.5922550              0.4528510
      1.8702500              0.4550060              0.2560420
SP   3   1.00
      2.6158400             -0.2503740             -0.0145110
      0.9221670              0.0669570              0.3102630
      0.3412870              1.0545100              0.7544830
SP   1   1.00
      0.1171670              1.0000000              1.0000000
D    1   1.00
      1.3000000              1.0000000
D    1   1.00
      0.3250000              1.0000000
F    1   1.00
      0.5500000              1.0000000
****
Cl     0
S    6   1.00
  25180.1000000              0.0018330
   3780.3500000              0.0140340
    860.4740000              0.0690970
    242.1450000              0.2374520
     77.3349000              0.4830340
     26.2470000              0.3398560
SP   6   1.00
    491.7650000             -0.0022974              0.0039894
    116.9840000             -0.0307140              0.0303180
     37.4153000             -0.1125280              0.1298800
     13.7834000              0.0450160              0.3279510
      5.4521500              0.5893530              0.4535270
      2.2258800              0.4652060              0.2521540
SP   3   1.00
      3.1864900             -0.2518300             -0.0142990
      1.1442700              0.0615890              0.3235720
      0.4203770              1.0601800              0.7435070
SP   1   1.00
      0.1426570              1.0000000              1.0000000
D    1   1.00
      1.5000000              1.0000000
D    1   1.00
      0.3750000              1.0000000
F    1   1.00
      0.7000000              1.0000000
****
}

set {
reference uhf
freeze_core true
e_convergence 10
d_convergence 10
dft_spherical_points 1202
dft_radial_points 99
}

e = energy('b3lyp')

print_out('Grab this energy {0}'.format(e))
--------------------------------------------------------------------------

    Molecular point group: c1

    Geometry (in Bohr), charge = 0, multiplicity = 2:

       Center              X                  Y                   Z               Mass
    ------------   -----------------  -----------------  -----------------  -----------------
         C           -0.323662892185    -0.000002058844     0.000001432083    12.000000000000
         C            0.061257106415    -1.403559804444    -2.431120926617    12.000000000000
         C            0.061136585015     2.807204686856     0.000048126283    12.000000000000
         C            0.061256117615    -1.403640593244     2.431071776383    12.000000000000
         H            2.087203849515    -1.643362319544    -2.855480389817     1.007825032230
         H           -0.769603249185    -0.392735228044    -4.030069457317     1.007825032230
         H           -0.761740461885    -3.296946075444    -2.352804142817     1.007825032230
         H            2.087062831615     3.294697901556     0.004652554083     1.007825032230
         H           -0.769840600385     3.686485100256     1.674888035383     1.007825032230
         H           -0.761823911485     3.686027209956    -1.678872515017     1.007825032230
         H            2.087200183615    -1.651428059244     2.850824050483     1.007825032230
         H           -0.769768098485    -3.293713771344     2.355187183483     1.007825032230
         H           -0.761578749185    -0.389051314244     4.031669821983     1.007825032230

  Charge       = 0
  Multiplicity = 2
  Basis Set: ANONYMOUSFD376C2A
    Blend: 6-31G_2DFP_
  Basis Set: (ANONYMOUSFD376C2A AUX)
    Blend: DEF2-UNIVERSAL-JKFIT

    Orbital Energies [Eh]
    ---------------------

    Alpha Occupied:

       1A    -10.181113     2A    -10.167391     3A    -10.167391
       4A    -10.167346     5A     -0.796720     6A     -0.685887
       7A     -0.685887     8A     -0.530778     9A     -0.440531
      10A     -0.434192    11A     -0.434191    12A     -0.382525
      13A     -0.382524    14A     -0.363729    15A     -0.337811
      16A     -0.337811    17A     -0.169286

    Alpha Virtual:

      18A      0.076102    19A      0.134115    20A      0.134116
      21A      0.142426    22A      0.142427    23A      0.154818
      24A      0.178602    25A      0.178602    26A      0.202437
      27A      0.214457    28A      0.275453    29A      0.275455
      30A      0.399247    31A      0.399251    32A      0.403548
      33A      0.424383    34A      0.424383    35A      0.456030
      36A      0.495164    37A      0.495165    38A      0.511812
      39A      0.513584    40A      0.578116    41A      0.578124
      42A      0.591089    43A      0.591091    44A      0.602121
      45A      0.624354    46A      0.631424    47A      0.635448
      48A      0.635452    49A      0.662931    50A      0.662932
      51A      0.683410    52A      0.683411    53A      0.735194
      54A      0.825561    55A      0.825564    56A      0.852909
      57A      0.914296    58A      0.914302    59A      0.942766
      60A      0.945209    61A      0.960332    62A      0.960348
      63A      1.002346    64A      1.127213    65A      1.127226
      66A      1.141883    67A      1.162484    68A      1.162496
      69A      1.222435    70A      1.273579    71A      1.273582
      72A      1.278834    73A      1.324021    74A      1.324023
      75A      1.355806    76A      1.364227    77A      1.364231
      78A      1.390956    79A      1.404321    80A      1.404323
      81A      1.416754    82A      1.416761    83A      1.426478
      84A      1.490273    85A      1.498530    86A      1.542088
      87A      1.542090    88A      1.573276    89A      1.573279
      90A      1.669898    91A      1.738778    92A      1.738789
      93A      1.766806    94A      1.830195    95A      1.830196
      96A      1.970355    97A      2.016014    98A      2.017928
      99A      2.017932   100A      2.048182   101A      2.048184
     102A      2.737883   103A      2.737883   104A      2.789754
     105A      2.808705   106A      2.888785   107A      2.888791
     108A      2.893419   109A      2.929323   110A      2.929331
     111A      2.958757   112A      2.964669   113A      2.964683
     114A      3.034037   115A      3.070339   116A      3.070352
     117A      3.082781   118A      3.167930   119A      3.167937
     120A      3.178731   121A      3.284787   122A      3.284788
     123A      3.326740   124A      3.326746   125A      3.376978
     126A      3.488352   127A      3.488372   128A      3.513214
     129A      3.522988   130A      3.568459   131A      3.568479
     132A      3.573034   133A      3.666429   134A      3.666437
     135A      3.677729   136A      3.692687   137A      3.692703
     138A      3.772323   139A      3.772349   140A      3.788415
     141A      3.910131   142A      3.910137   143A      4.032623
     144A      4.108477   145A      4.108482   146A      4.147426
     147A      4.147434   148A      4.172031   149A      4.200745
     150A      4.200748   151A      4.201224   152A      4.209234
     153A      4.314419   154A      4.314439   155A      4.356483
     156A      4.422403   157A      4.422405   158A      4.441012
     159A      4.513862   160A      4.513863   161A      4.574717
     162A      4.574729   163A      4.610241   164A      4.704677
     165A      4.768156   166A      4.768164   167A      4.832944
     168A      4.959847   169A      5.001331   170A      5.001343
     171A      5.227029   172A      5.245398   173A      5.245399
     174A      5.352897   175A      5.352910   176A      5.473647

    Beta Occupied:

       1A    -10.168142     2A    -10.168142     3A    -10.168124
       4A    -10.167259     5A     -0.780068     6A     -0.683710
       7A     -0.683710     8A     -0.511648     9A     -0.430582
      10A     -0.430581    11A     -0.421325    12A     -0.376647
      13A     -0.376646    14A     -0.362724    15A     -0.332930
      16A     -0.332929

    Beta Virtual:

      17A     -0.025774    18A      0.077100    19A      0.135012
      20A      0.135012    21A      0.144268    22A      0.144268
      23A      0.163233    24A      0.182247    25A      0.182247
      26A      0.214678    27A      0.218000    28A      0.281870
      29A      0.281872    30A      0.400384    31A      0.400388
      32A      0.420092    33A      0.427203    34A      0.427203
      35A      0.467584    36A      0.497410    37A      0.497411
      38A      0.513546    39A      0.555987    40A      0.583661
      41A      0.583669    42A      0.597328    43A      0.597329
      44A      0.609509    45A      0.627670    46A      0.631570
      47A      0.638661    48A      0.638665    49A      0.666535
      50A      0.666536    51A      0.685967    52A      0.685968
      53A      0.757895    54A      0.830712    55A      0.830715
      56A      0.854226    57A      0.922254    58A      0.922261
      59A      0.944618    60A      0.954210    61A      0.965613
      62A      0.965629    63A      1.007664    64A      1.131242
      65A      1.131254    66A      1.155251    67A      1.167554
      68A      1.167566    69A      1.231267    70A      1.279138
      71A      1.279141    72A      1.284653    73A      1.329013
      74A      1.329015    75A      1.365187    76A      1.369477
      77A      1.369481    78A      1.392010    79A      1.407819
      80A      1.407822    81A      1.421748    82A      1.421754
      83A      1.426713    84A      1.491334    85A      1.508898
      86A      1.546553    87A      1.546553    88A      1.581081
      89A      1.581082    90A      1.674737    91A      1.744536
      92A      1.744548    93A      1.777563    94A      1.834032
      95A      1.834033    96A      1.971211    97A      2.024323
      98A      2.024326    99A      2.037321   100A      2.054866
     101A      2.054868   102A      2.746313   103A      2.746314
     104A      2.809076   105A      2.814946   106A      2.901690
     107A      2.901696   108A      2.923066   109A      2.931644
     110A      2.931653   111A      2.959807   112A      2.969156
     113A      2.969170   114A      3.041884   115A      3.080164
     116A      3.080175   117A      3.084579   118A      3.183794
     119A      3.183798   120A      3.186458   121A      3.289411
     122A      3.289411   123A      3.330621   124A      3.330626
     125A      3.384813   126A      3.491099   127A      3.491119
     128A      3.511593   129A      3.526079   130A      3.572874
     131A      3.581779   132A      3.581801   133A      3.671277
     134A      3.671288   135A      3.691039   136A      3.724502
     137A      3.724517   138A      3.776807   139A      3.776833
     140A      3.817094   141A      3.919940   142A      3.919948
     143A      4.043580   144A      4.115566   145A      4.115569
     146A      4.154451   147A      4.154459   148A      4.185979
     149A      4.206684   150A      4.206687   151A      4.209128
     152A      4.213633   153A      4.321828   154A      4.321848
     155A      4.359865   156A      4.430514   157A      4.430516
     158A      4.443877   159A      4.521525   160A      4.521527
     161A      4.585299   162A      4.585311   163A      4.617448
     164A      4.714940   165A      4.775107   166A      4.775114
     167A      4.835863   168A      4.964619   169A      5.005331
     170A      5.005343   171A      5.232706   172A      5.247170
     173A      5.247171   174A      5.359323   175A      5.359336
     176A      5.475946

    Final Occupation by Irrep:
              A
    DOCC [    16 ]
    SOCC [     1 ]

  @DF-UKS Final Energy:  -157.81307420401328

   => Energetics <=

    Nuclear Repulsion Energy =            125.2136275225536082
    One-Electron Energy =                -458.3925381912440571
    Two-Electron Energy =                 195.6691861725117860
    DFT Exchange-Correlation Energy =     -20.3033497078346414
    Empirical Dispersion Energy =           0.0000000000000000
    VV10 Nonlocal Energy =                  0.0000000000000000
    Total Energy =                       -157.8130742040132759

  UHF NO Occupations:
  HONO-2 :   15  A 1.9996026
  HONO-1 :   16  A 1.9989734
  HONO-0 :   17  A 1.0000000
  LUNO+0 :   18  A 0.0010266
  LUNO+1 :   19  A 0.0003974
  LUNO+2 :   20  A 0.0001997
  LUNO+3 :   21  A 0.0001997

Computation Completed

Properties will be evaluated at   0.000000,   0.000000,   0.000000 [a0]

Properties computed using the SCF density matrix

  Nuclear Dipole Moment: [e a0]
     X:     0.8270      Y:    -0.0000      Z:    -0.0000

  Electronic Dipole Moment: [e a0]
     X:    -0.7483      Y:     0.0000      Z:     0.0000

  Dipole Moment: [e a0]
     X:     0.0788      Y:     0.0000      Z:    -0.0000     Total:     0.0788

  Dipole Moment: [D]
     X:     0.2002      Y:     0.0000      Z:    -0.0000     Total:     0.2002

*** tstop() called on n079 at Fri Nov  5 15:43:08 2021
Module time:
	user time   =     495.76 seconds =       8.26 minutes
	system time =       4.52 seconds =       0.08 minutes
	total time  =        126 seconds =       2.10 minutes
Total time:
	user time   =     495.76 seconds =       8.26 minutes
	system time =       4.52 seconds =       0.08 minutes
	total time  =        126 seconds =       2.10 minutes
Grab this energy -157.81307420401328
    Psi4 stopped on: Friday, 05 November 2021 03:43PM
    Psi4 wall time for execution: 0:02:05.80

*** Psi4 exiting successfully. Buy a developer a beer!
