                               Psi4 1.4a2.dev629

  ==> Input File <==

--------------------------------------------------------------------------
import os
memory 14 GB

molecule {
 C   -0.3243651465   -0.0000020869    0.0000017735
 C    0.0600803644   -1.4009161428   -2.4265372650
 C    0.0599600051    2.8019134760    0.0000463213
 C    0.0600793761   -1.4009932095    2.4264909466
 H    2.0902460541   -1.6402682768   -2.8501350924
 H   -0.7703641624   -0.3919777422   -4.0232844192
 H   -0.7625134557   -3.2914505856   -2.3487514935
 H    2.0901054985    3.2885220559    0.0046603297
 H   -0.7706009405    3.6802304653    1.6721515761
 H   -0.7625971084    3.6797700598   -1.6761392301
 H    2.0902423878   -1.6483469083    2.8454720023
 H   -0.7705282177   -3.2882161993    2.3511393363
 H   -0.7623525316   -0.3882892193    4.0248852144
units bohr
0 2
}

basis {

assign 6-31g_2dfp_

[ 6-31g_2dfp_ ]

spherical

!----------------------------------------------------------------------
! Basis Set Exchange
! Version v0.8.13
! https://www.basissetexchange.org
!----------------------------------------------------------------------
!   Basis set: 6-31G(2df,p)
! Description: 6-31G(2df,p)
!        Role: orbital
!     Version: 0  (Data from the original Basis Set Exchange)
!----------------------------------------------------------------------

****
H     0
S    3   1.00
     18.7311370              0.03349460
      2.8253937              0.23472695
      0.6401217              0.81375733
S    1   1.00
      0.1612778              1.00000000
P    1   1.00
      1.5000000              1.0000000
P    1   1.00
      0.3750000              1.0000000
****
B     0
S    6   1.00
   2068.8823000              0.0018663
    310.6495700              0.0142515
     70.6830330              0.0695516
     19.8610800              0.2325729
      6.2993048              0.4670787
      2.1270270              0.3634314
SP   3   1.00
      4.7279710             -0.1303938              0.0745976
      1.1903377             -0.1307889              0.3078467
      0.3594117              1.1309444              0.7434568
SP   1   1.00
      0.1267512              1.0000000              1.0000000
D    1   1.00
      0.8020000              1.0000000
D    1   1.00
      0.2005000              1.0000000
F    1   1.00
      0.5000000              1.0000000
****
C     0
S    6   1.00
   3047.5249000              0.0018347
    457.3695100              0.0140373
    103.9486900              0.0688426
     29.2101550              0.2321844
      9.2866630              0.4679413
      3.1639270              0.3623120
SP   3   1.00
      7.8682724             -0.1193324              0.0689991
      1.8812885             -0.1608542              0.3164240
      0.5442493              1.1434564              0.7443083
SP   1   1.00
      0.1687144              1.0000000              1.0000000
D    1   1.00
      1.2520000              1.0000000
D    1   1.00
      0.3130000              1.0000000
F    1   1.00
      0.8000000              1.0000000
****
N     0
S    6   1.00
   4173.5110000              0.0018348
    627.4579000              0.0139950
    142.9021000              0.0685870
     40.2343300              0.2322410
     12.8202100              0.4690700
      4.3904370              0.3604550
SP   3   1.00
     11.6263580             -0.1149610              0.0675800
      2.7162800             -0.1691180              0.3239070
      0.7722180              1.1458520              0.7408950
SP   1   1.00
      0.2120313              1.0000000              1.0000000
D    1   1.00
      1.8260000              1.0000000
D    1   1.00
      0.4565000              1.0000000
F    1   1.00
      1.0000000              1.0000000
****
O     0
S    6   1.00
   5484.6717000              0.0018311
    825.2349500              0.0139501
    188.0469600              0.0684451
     52.9645000              0.2327143
     16.8975700              0.4701930
      5.7996353              0.3585209
SP   3   1.00
     15.5396160             -0.1107775              0.0708743
      3.5999336             -0.1480263              0.3397528
      1.0137618              1.1307670              0.7271586
SP   1   1.00
      0.2700058              1.0000000              1.0000000
D    1   1.00
      2.5840000              1.0000000
D    1   1.00
      0.6460000              1.0000000
F    1   1.00
      1.4000000              1.0000000
****
F     0
S    6   1.00
   7001.7130900              0.0018196169
   1051.3660900              0.0139160796
    239.2856900              0.0684053245
     67.3974453              0.233185760
     21.5199573              0.471267439
      7.40310130             0.356618546
SP   3   1.00
     20.8479528             -0.108506975            0.0716287243
      4.80830834            -0.146451658            0.3459121030
      1.34406986             1.128688580            0.7224699570
SP   1   1.00
      0.358151393            1.0000000              1.0000000
D    1   1.00
      3.5000000              1.0000000
D    1   1.00
      0.8750000              1.0000000
F    1   1.00
      1.8500000              1.0000000
****
Al     0
S    6   1.00
  13983.1000000              0.00194267
   2098.7500000              0.0148599
    477.7050000              0.0728494
    134.3600000              0.2468300
     42.8709000              0.4872580
     14.5189000              0.3234960
SP   6   1.00
    239.6680000             -0.00292619             0.00460285
     57.4419000             -0.0374080              0.0331990
     18.2859000             -0.1144870              0.1362820
      6.5991400              0.1156350              0.3304760
      2.4904900              0.6125950              0.4491460
      0.9445400              0.3937990              0.2657040
SP   3   1.00
      1.2779000             -0.2276060             -0.0175130
      0.3975900              0.00144583             0.2445330
      0.1600950              1.0927900              0.8049340
SP   1   1.00
      0.0556577              1.0000000              1.0000000
D    1   1.00
      0.6500000              1.0000000
D    1   1.00
      0.1625000              1.0000000
F    1   1.00
      0.2500000              1.0000000
****
Si     0
S    6   1.00
  16115.9000000              0.00195948
   2425.5800000              0.01492880
    553.8670000              0.07284780
    156.3400000              0.24613000
     50.0683000              0.48591400
     17.0178000              0.32500200
SP   6   1.00
    292.7180000             -0.00278094             0.00443826
     69.8731000             -0.03571460             0.03266790
     22.3363000             -0.11498500             0.13472100
      8.1503900              0.09356340             0.32867800
      3.1345800              0.60301700             0.44964000
      1.2254300              0.41895900             0.26137200
SP   3   1.00
      1.7273800             -0.24463000            -0.01779510
      0.5729220              0.00431572             0.25353900
      0.2221920              1.09818000             0.80066900
SP   1   1.00
      0.0778369              1.00000000             1.00000000
D    1   1.00
      0.9000000              1.0000000
D    1   1.00
      0.2250000              1.0000000
F    1   1.00
      0.3200000              1.0000000
****
P     0
S    6   1.00
  19413.3000000              0.0018516
   2909.4200000              0.0142062
    661.3640000              0.0699995
    185.7590000              0.2400790
     59.1943000              0.4847620
     20.0310000              0.3352000
SP   6   1.00
    339.4780000             -0.00278217             0.00456462
     81.0101000             -0.0360499              0.03369360
     25.8780000             -0.1166310              0.13975500
      9.4522100              0.0968328              0.33936200
      3.6656600              0.6144180              0.45092100
      1.4674600              0.4037980              0.23858600
SP   3   1.00
      2.1562300             -0.2529230             -0.01776530
      0.7489970              0.0328517              0.27405800
      0.2831450              1.0812500              0.78542100
SP   1   1.00
      0.0998317              1.0000000              1.00000000
D    1   1.00
      1.1000000              1.0000000
D    1   1.00
      0.2750000              1.0000000
F    1   1.00
      0.4500000              1.0000000
****
S     0
S    6   1.00
  21917.1000000              0.0018690
   3301.4900000              0.0142300
    754.1460000              0.0696960
    212.7110000              0.2384870
     67.9896000              0.4833070
     23.0515000              0.3380740
SP   6   1.00
    423.7350000             -0.0023767              0.0040610
    100.7100000             -0.0316930              0.0306810
     32.1599000             -0.1133170              0.1304520
     11.8079000              0.0560900              0.3272050
      4.6311000              0.5922550              0.4528510
      1.8702500              0.4550060              0.2560420
SP   3   1.00
      2.6158400             -0.2503740             -0.0145110
      0.9221670              0.0669570              0.3102630
      0.3412870              1.0545100              0.7544830
SP   1   1.00
      0.1171670              1.0000000              1.0000000
D    1   1.00
      1.3000000              1.0000000
D    1   1.00
      0.3250000              1.0000000
F    1   1.00
      0.5500000              1.0000000
****
Cl     0
S    6   1.00
  25180.1000000              0.0018330
   3780.3500000              0.0140340
    860.4740000              0.0690970
    242.1450000              0.2374520
     77.3349000              0.4830340
     26.2470000              0.3398560
SP   6   1.00
    491.7650000             -0.0022974              0.0039894
    116.9840000             -0.0307140              0.0303180
     37.4153000             -0.1125280              0.1298800
     13.7834000              0.0450160              0.3279510
      5.4521500              0.5893530              0.4535270
      2.2258800              0.4652060              0.2521540
SP   3   1.00
      3.1864900             -0.2518300             -0.0142990
      1.1442700              0.0615890              0.3235720
      0.4203770              1.0601800              0.7435070
SP   1   1.00
      0.1426570              1.0000000              1.0000000
D    1   1.00
      1.5000000              1.0000000
D    1   1.00
      0.3750000              1.0000000
F    1   1.00
      0.7000000              1.0000000
****
}

set {
reference uhf
freeze_core true
e_convergence 10
d_convergence 10
dft_spherical_points 1202
dft_radial_points 99
}

e = energy('b3lyp')

print_out('Grab this energy {0}'.format(e))
--------------------------------------------------------------------------

    Molecular point group: c1

    Geometry (in Bohr), charge = 0, multiplicity = 2:

       Center              X                  Y                   Z               Mass
    ------------   -----------------  -----------------  -----------------  -----------------
         C           -0.323555153076    -0.000002049839     0.000001431353    12.000000000000
         C            0.060890357824    -1.400916105739    -2.426537607147    12.000000000000
         C            0.060769998524     2.801913513061     0.000045979153    12.000000000000
         C            0.060889369524    -1.400993172439     2.426490604453    12.000000000000
         H            2.091056047524    -1.640268239739    -2.850135434547     1.007825032230
         H           -0.769554168976    -0.391977705139    -4.023284761347     1.007825032230
         H           -0.761703462276    -3.291450548539    -2.348751835647     1.007825032230
         H            2.090915491924     3.288522092961     0.004659987553     1.007825032230
         H           -0.769790947076     3.680230502361     1.672151233953     1.007825032230
         H           -0.761787114976     3.679770096861    -1.676139572247     1.007825032230
         H            2.091052381224    -1.648346871239     2.845471660153     1.007825032230
         H           -0.769718224276    -3.288216162239     2.351138994153     1.007825032230
         H           -0.761542538176    -0.388289182239     4.024884872253     1.007825032230

  Charge       = 0
  Multiplicity = 2
  Basis Set: ANONYMOUS766822CF
    Blend: 6-31G_2DFP_
  Basis Set: (ANONYMOUS766822CF AUX)
    Blend: DEF2-UNIVERSAL-JKFIT

    Orbital Energies [Eh]
    ---------------------

    Alpha Occupied:

       1A    -10.180401     2A    -10.167033     3A    -10.167033
       4A    -10.166988     5A     -0.797729     6A     -0.686183
       7A     -0.686182     8A     -0.530769     9A     -0.441025
      10A     -0.434716    11A     -0.434716    12A     -0.382462
      13A     -0.382460    14A     -0.363790    15A     -0.338053
      16A     -0.338053    17A     -0.168998

    Alpha Virtual:

      18A      0.076157    19A      0.134147    20A      0.134148
      21A      0.142703    22A      0.142703    23A      0.154712
      24A      0.178604    25A      0.178604    26A      0.203504
      27A      0.215075    28A      0.275960    29A      0.275962
      30A      0.399107    31A      0.399111    32A      0.403256
      33A      0.424286    34A      0.424286    35A      0.456518
      36A      0.495569    37A      0.495570    38A      0.512029
      39A      0.513840    40A      0.578640    41A      0.578649
      42A      0.591369    43A      0.591371    44A      0.601816
      45A      0.625274    46A      0.632166    47A      0.636616
      48A      0.636620    49A      0.662926    50A      0.662926
      51A      0.684102    52A      0.684103    53A      0.735057
      54A      0.825373    55A      0.825375    56A      0.853636
      57A      0.914798    58A      0.914804    59A      0.944274
      60A      0.944883    61A      0.961192    62A      0.961209
      63A      1.003277    64A      1.128355    65A      1.128368
      66A      1.141504    67A      1.163529    68A      1.163541
      69A      1.223738    70A      1.274246    71A      1.274249
      72A      1.279189    73A      1.324141    74A      1.324143
      75A      1.356495    76A      1.365968    77A      1.365973
      78A      1.392417    79A      1.403023    80A      1.403025
      81A      1.418092    82A      1.418099    83A      1.427693
      84A      1.491453    85A      1.498179    86A      1.542461
      87A      1.542464    88A      1.574807    89A      1.574810
      90A      1.671088    91A      1.738571    92A      1.738582
      93A      1.766459    94A      1.832792    95A      1.832793
      96A      1.972741    97A      2.018219    98A      2.019019
      99A      2.019021   100A      2.051402   101A      2.051404
     102A      2.738805   103A      2.738806   104A      2.790526
     105A      2.811882   106A      2.889578   107A      2.889584
     108A      2.894600   109A      2.929699   110A      2.929708
     111A      2.958863   112A      2.963951   113A      2.963965
     114A      3.033319   115A      3.071246   116A      3.071260
     117A      3.085757   118A      3.168653   119A      3.168660
     120A      3.180539   121A      3.285220   122A      3.285220
     123A      3.327789   124A      3.327795   125A      3.375787
     126A      3.489931   127A      3.489951   128A      3.512789
     129A      3.526537   130A      3.567977   131A      3.567997
     132A      3.574325   133A      3.666007   134A      3.666016
     135A      3.680259   136A      3.694309   137A      3.694325
     138A      3.777208   139A      3.777234   140A      3.788332
     141A      3.912782   142A      3.912788   143A      4.034880
     144A      4.111320   145A      4.111325   146A      4.147508
     147A      4.147516   148A      4.171466   149A      4.202686
     150A      4.203912   151A      4.203915   152A      4.209653
     153A      4.315526   154A      4.315545   155A      4.360213
     156A      4.423729   157A      4.423731   158A      4.443678
     159A      4.516184   160A      4.516185   161A      4.578964
     162A      4.578977   163A      4.617394   164A      4.708928
     165A      4.774717   166A      4.774725   167A      4.838257
     168A      4.963172   169A      5.001636   170A      5.001648
     171A      5.225329   172A      5.249809   173A      5.249809
     174A      5.353544   175A      5.353557   176A      5.481307

    Beta Occupied:

       1A    -10.167788     2A    -10.167787     3A    -10.167763
       4A    -10.166584     5A     -0.781061     6A     -0.683997
       7A     -0.683997     8A     -0.511789     9A     -0.431111
      10A     -0.431111    11A     -0.421664    12A     -0.376522
      13A     -0.376521    14A     -0.362783    15A     -0.333173
      16A     -0.333172

    Beta Virtual:

      17A     -0.025872    18A      0.077183    19A      0.135109
      20A      0.135110    21A      0.144547    22A      0.144547
      23A      0.163191    24A      0.182246    25A      0.182247
      26A      0.215296    27A      0.218887    28A      0.282312
      29A      0.282315    30A      0.400278    31A      0.400282
      32A      0.419800    33A      0.427096    34A      0.427097
      35A      0.468326    36A      0.497839    37A      0.497839
      38A      0.513784    39A      0.556134    40A      0.584218
      41A      0.584226    42A      0.597540    43A      0.597541
      44A      0.609362    45A      0.628525    46A      0.632321
      47A      0.639864    48A      0.639868    49A      0.666520
      50A      0.666521    51A      0.686724    52A      0.686726
      53A      0.757576    54A      0.830563    55A      0.830565
      56A      0.854997    57A      0.922787    58A      0.922794
      59A      0.946223    60A      0.953741    61A      0.966464
      62A      0.966480    63A      1.008477    64A      1.132419
      65A      1.132431    66A      1.154963    67A      1.168577
      68A      1.168590    69A      1.232695    70A      1.279821
      71A      1.279825    72A      1.284886    73A      1.329177
      74A      1.329179    75A      1.365887    76A      1.371283
      77A      1.371288    78A      1.393497    79A      1.406430
      80A      1.406433    81A      1.423110    82A      1.423116
      83A      1.427967    84A      1.492491    85A      1.508614
      86A      1.546901    87A      1.546901    88A      1.582664
      89A      1.582664    90A      1.675986    91A      1.744327
      92A      1.744338    93A      1.777228    94A      1.836649
      95A      1.836650    96A      1.973587    97A      2.025276
      98A      2.025279    99A      2.039586   100A      2.058242
     101A      2.058245   102A      2.747149   103A      2.747150
     104A      2.812239   105A      2.815682   106A      2.902240
     107A      2.902246   108A      2.924111   109A      2.932180
     110A      2.932189   111A      2.959922   112A      2.968460
     113A      2.968474   114A      3.041468   115A      3.081145
     116A      3.081157   117A      3.087573   118A      3.184425
     119A      3.184428   120A      3.188197   121A      3.290049
     122A      3.290050   123A      3.331558   124A      3.331564
     125A      3.383579   126A      3.492621   127A      3.492641
     128A      3.511155   129A      3.529564   130A      3.574181
     131A      3.581487   132A      3.581509   133A      3.670662
     134A      3.670673   135A      3.693528   136A      3.725937
     137A      3.725953   138A      3.781670   139A      3.781696
     140A      3.816905   141A      3.922655   142A      3.922662
     143A      4.045830   144A      4.118140   145A      4.118142
     146A      4.154707   147A      4.154716   148A      4.185551
     149A      4.209971   150A      4.209974   151A      4.210592
     152A      4.214247   153A      4.322902   154A      4.322922
     155A      4.363530   156A      4.431943   157A      4.431945
     158A      4.446508   159A      4.524009   160A      4.524010
     161A      4.589525   162A      4.589537   163A      4.624494
     164A      4.719389   165A      4.781621   166A      4.781629
     167A      4.841162   168A      4.967979   169A      5.005702
     170A      5.005714   171A      5.231009   172A      5.251579
     173A      5.251580   174A      5.359996   175A      5.360010
     176A      5.483616

    Final Occupation by Irrep:
              A
    DOCC [    16 ]
    SOCC [     1 ]

  @DF-UKS Final Energy:  -157.81306094898443

   => Energetics <=

    Nuclear Repulsion Energy =            125.3892617200676227
    One-Electron Energy =                -458.7381361196930811
    Two-Electron Energy =                 195.8428492866372892
    DFT Exchange-Correlation Energy =     -20.3070358359962491
    Empirical Dispersion Energy =           0.0000000000000000
    VV10 Nonlocal Energy =                  0.0000000000000000
    Total Energy =                       -157.8130609489844289

  UHF NO Occupations:
  HONO-2 :   15  A 1.9995985
  HONO-1 :   16  A 1.9989796
  HONO-0 :   17  A 1.0000000
  LUNO+0 :   18  A 0.0010204
  LUNO+1 :   19  A 0.0004015
  LUNO+2 :   20  A 0.0001975
  LUNO+3 :   21  A 0.0001975

Computation Completed

Properties will be evaluated at   0.000000,   0.000000,   0.000000 [a0]

Properties computed using the SCF density matrix

  Nuclear Dipole Moment: [e a0]
     X:     0.8329      Y:    -0.0000      Z:    -0.0000

  Electronic Dipole Moment: [e a0]
     X:    -0.7582      Y:     0.0000      Z:     0.0000

  Dipole Moment: [e a0]
     X:     0.0747      Y:     0.0000      Z:    -0.0000     Total:     0.0747

  Dipole Moment: [D]
     X:     0.1899      Y:     0.0000      Z:    -0.0000     Total:     0.1899

*** tstop() called on n079 at Fri Nov  5 14:52:09 2021
Module time:
	user time   =     498.48 seconds =       8.31 minutes
	system time =       4.55 seconds =       0.08 minutes
	total time  =        127 seconds =       2.12 minutes
Total time:
	user time   =     498.48 seconds =       8.31 minutes
	system time =       4.55 seconds =       0.08 minutes
	total time  =        127 seconds =       2.12 minutes
Grab this energy -157.81306094898443
    Psi4 stopped on: Friday, 05 November 2021 02:52PM
    Psi4 wall time for execution: 0:02:06.48

*** Psi4 exiting successfully. Buy a developer a beer!
