                               Psi4 1.4a2.dev629

  ==> Input File <==

--------------------------------------------------------------------------
import os
memory 14 GB

molecule {
 C   -0.3233393998   -0.0010238505   -0.0019984530
 C    0.0613781578   -1.3985619345   -2.4266448226
 C    0.0602718673    2.8021528746   -0.0011534933
 C    0.0616490573   -1.4002942564    2.4273343418
 H    2.0870886768   -1.6408846808   -2.8447607328
 H   -0.7658828880   -0.3909534093   -4.0275033780
 H   -0.7644224417   -3.2906112834   -2.3467212236
 H    2.0868775096    3.2880092252   -0.0040978022
 H   -0.7640548496    3.6745507391    1.6773819930
 H   -0.7668067380    3.6857985520   -1.6757896766
 H    2.0866959339   -1.6484022177    2.8496004101
 H   -0.7666716264   -3.2936912991    2.3509903883
 H   -0.7653911360   -0.3861127726    4.0233624490
units bohr
0 2
}

basis {

assign 6-31g_2dfp_

[ 6-31g_2dfp_ ]

spherical

!----------------------------------------------------------------------
! Basis Set Exchange
! Version v0.8.13
! https://www.basissetexchange.org
!----------------------------------------------------------------------
!   Basis set: 6-31G(2df,p)
! Description: 6-31G(2df,p)
!        Role: orbital
!     Version: 0  (Data from the original Basis Set Exchange)
!----------------------------------------------------------------------

****
H     0
S    3   1.00
     18.7311370              0.03349460
      2.8253937              0.23472695
      0.6401217              0.81375733
S    1   1.00
      0.1612778              1.00000000
P    1   1.00
      1.5000000              1.0000000
P    1   1.00
      0.3750000              1.0000000
****
B     0
S    6   1.00
   2068.8823000              0.0018663
    310.6495700              0.0142515
     70.6830330              0.0695516
     19.8610800              0.2325729
      6.2993048              0.4670787
      2.1270270              0.3634314
SP   3   1.00
      4.7279710             -0.1303938              0.0745976
      1.1903377             -0.1307889              0.3078467
      0.3594117              1.1309444              0.7434568
SP   1   1.00
      0.1267512              1.0000000              1.0000000
D    1   1.00
      0.8020000              1.0000000
D    1   1.00
      0.2005000              1.0000000
F    1   1.00
      0.5000000              1.0000000
****
C     0
S    6   1.00
   3047.5249000              0.0018347
    457.3695100              0.0140373
    103.9486900              0.0688426
     29.2101550              0.2321844
      9.2866630              0.4679413
      3.1639270              0.3623120
SP   3   1.00
      7.8682724             -0.1193324              0.0689991
      1.8812885             -0.1608542              0.3164240
      0.5442493              1.1434564              0.7443083
SP   1   1.00
      0.1687144              1.0000000              1.0000000
D    1   1.00
      1.2520000              1.0000000
D    1   1.00
      0.3130000              1.0000000
F    1   1.00
      0.8000000              1.0000000
****
N     0
S    6   1.00
   4173.5110000              0.0018348
    627.4579000              0.0139950
    142.9021000              0.0685870
     40.2343300              0.2322410
     12.8202100              0.4690700
      4.3904370              0.3604550
SP   3   1.00
     11.6263580             -0.1149610              0.0675800
      2.7162800             -0.1691180              0.3239070
      0.7722180              1.1458520              0.7408950
SP   1   1.00
      0.2120313              1.0000000              1.0000000
D    1   1.00
      1.8260000              1.0000000
D    1   1.00
      0.4565000              1.0000000
F    1   1.00
      1.0000000              1.0000000
****
O     0
S    6   1.00
   5484.6717000              0.0018311
    825.2349500              0.0139501
    188.0469600              0.0684451
     52.9645000              0.2327143
     16.8975700              0.4701930
      5.7996353              0.3585209
SP   3   1.00
     15.5396160             -0.1107775              0.0708743
      3.5999336             -0.1480263              0.3397528
      1.0137618              1.1307670              0.7271586
SP   1   1.00
      0.2700058              1.0000000              1.0000000
D    1   1.00
      2.5840000              1.0000000
D    1   1.00
      0.6460000              1.0000000
F    1   1.00
      1.4000000              1.0000000
****
F     0
S    6   1.00
   7001.7130900              0.0018196169
   1051.3660900              0.0139160796
    239.2856900              0.0684053245
     67.3974453              0.233185760
     21.5199573              0.471267439
      7.40310130             0.356618546
SP   3   1.00
     20.8479528             -0.108506975            0.0716287243
      4.80830834            -0.146451658            0.3459121030
      1.34406986             1.128688580            0.7224699570
SP   1   1.00
      0.358151393            1.0000000              1.0000000
D    1   1.00
      3.5000000              1.0000000
D    1   1.00
      0.8750000              1.0000000
F    1   1.00
      1.8500000              1.0000000
****
Al     0
S    6   1.00
  13983.1000000              0.00194267
   2098.7500000              0.0148599
    477.7050000              0.0728494
    134.3600000              0.2468300
     42.8709000              0.4872580
     14.5189000              0.3234960
SP   6   1.00
    239.6680000             -0.00292619             0.00460285
     57.4419000             -0.0374080              0.0331990
     18.2859000             -0.1144870              0.1362820
      6.5991400              0.1156350              0.3304760
      2.4904900              0.6125950              0.4491460
      0.9445400              0.3937990              0.2657040
SP   3   1.00
      1.2779000             -0.2276060             -0.0175130
      0.3975900              0.00144583             0.2445330
      0.1600950              1.0927900              0.8049340
SP   1   1.00
      0.0556577              1.0000000              1.0000000
D    1   1.00
      0.6500000              1.0000000
D    1   1.00
      0.1625000              1.0000000
F    1   1.00
      0.2500000              1.0000000
****
Si     0
S    6   1.00
  16115.9000000              0.00195948
   2425.5800000              0.01492880
    553.8670000              0.07284780
    156.3400000              0.24613000
     50.0683000              0.48591400
     17.0178000              0.32500200
SP   6   1.00
    292.7180000             -0.00278094             0.00443826
     69.8731000             -0.03571460             0.03266790
     22.3363000             -0.11498500             0.13472100
      8.1503900              0.09356340             0.32867800
      3.1345800              0.60301700             0.44964000
      1.2254300              0.41895900             0.26137200
SP   3   1.00
      1.7273800             -0.24463000            -0.01779510
      0.5729220              0.00431572             0.25353900
      0.2221920              1.09818000             0.80066900
SP   1   1.00
      0.0778369              1.00000000             1.00000000
D    1   1.00
      0.9000000              1.0000000
D    1   1.00
      0.2250000              1.0000000
F    1   1.00
      0.3200000              1.0000000
****
P     0
S    6   1.00
  19413.3000000              0.0018516
   2909.4200000              0.0142062
    661.3640000              0.0699995
    185.7590000              0.2400790
     59.1943000              0.4847620
     20.0310000              0.3352000
SP   6   1.00
    339.4780000             -0.00278217             0.00456462
     81.0101000             -0.0360499              0.03369360
     25.8780000             -0.1166310              0.13975500
      9.4522100              0.0968328              0.33936200
      3.6656600              0.6144180              0.45092100
      1.4674600              0.4037980              0.23858600
SP   3   1.00
      2.1562300             -0.2529230             -0.01776530
      0.7489970              0.0328517              0.27405800
      0.2831450              1.0812500              0.78542100
SP   1   1.00
      0.0998317              1.0000000              1.00000000
D    1   1.00
      1.1000000              1.0000000
D    1   1.00
      0.2750000              1.0000000
F    1   1.00
      0.4500000              1.0000000
****
S     0
S    6   1.00
  21917.1000000              0.0018690
   3301.4900000              0.0142300
    754.1460000              0.0696960
    212.7110000              0.2384870
     67.9896000              0.4833070
     23.0515000              0.3380740
SP   6   1.00
    423.7350000             -0.0023767              0.0040610
    100.7100000             -0.0316930              0.0306810
     32.1599000             -0.1133170              0.1304520
     11.8079000              0.0560900              0.3272050
      4.6311000              0.5922550              0.4528510
      1.8702500              0.4550060              0.2560420
SP   3   1.00
      2.6158400             -0.2503740             -0.0145110
      0.9221670              0.0669570              0.3102630
      0.3412870              1.0545100              0.7544830
SP   1   1.00
      0.1171670              1.0000000              1.0000000
D    1   1.00
      1.3000000              1.0000000
D    1   1.00
      0.3250000              1.0000000
F    1   1.00
      0.5500000              1.0000000
****
Cl     0
S    6   1.00
  25180.1000000              0.0018330
   3780.3500000              0.0140340
    860.4740000              0.0690970
    242.1450000              0.2374520
     77.3349000              0.4830340
     26.2470000              0.3398560
SP   6   1.00
    491.7650000             -0.0022974              0.0039894
    116.9840000             -0.0307140              0.0303180
     37.4153000             -0.1125280              0.1298800
     13.7834000              0.0450160              0.3279510
      5.4521500              0.5893530              0.4535270
      2.2258800              0.4652060              0.2521540
SP   3   1.00
      3.1864900             -0.2518300             -0.0142990
      1.1442700              0.0615890              0.3235720
      0.4203770              1.0601800              0.7435070
SP   1   1.00
      0.1426570              1.0000000              1.0000000
D    1   1.00
      1.5000000              1.0000000
D    1   1.00
      0.3750000              1.0000000
F    1   1.00
      0.7000000              1.0000000
****
}

set {
reference uhf
freeze_core true
e_convergence 10
d_convergence 10
dft_spherical_points 1202
dft_radial_points 99
}

e = energy('b3lyp')

print_out('Grab this energy {0}'.format(e))
--------------------------------------------------------------------------

    Molecular point group: c1

    Geometry (in Bohr), charge = 0, multiplicity = 2:

       Center              X                  Y                   Z               Mass
    ------------   -----------------  -----------------  -----------------  -----------------
         C           -0.323339335746    -0.001461185187    -0.001524171806    12.000000000000
         C            0.061378221854    -1.398999269187    -2.426170541406    12.000000000000
         C            0.060271931354     2.801715539913    -0.000679212106    12.000000000000
         C            0.061649121354    -1.400731591087     2.427808622994    12.000000000000
         H            2.087088740854    -1.641322015487    -2.844286451606     1.007825032230
         H           -0.765882823946    -0.391390743987    -4.027029096806     1.007825032230
         H           -0.764422377646    -3.291048618087    -2.346246942406     1.007825032230
         H            2.086877573654     3.287571890513    -0.003623521006     1.007825032230
         H           -0.764054785546     3.674113404413     1.677856274194     1.007825032230
         H           -0.766806673946     3.685361217313    -1.675315395406     1.007825032230
         H            2.086695997954    -1.648839552387     2.850074691294     1.007825032230
         H           -0.766671562346    -3.294128633787     2.351464669494     1.007825032230
         H           -0.765391071946    -0.386550107287     4.023836730194     1.007825032230

  Charge       = 0
  Multiplicity = 2
  Basis Set: ANONYMOUS9C55E44B
    Blend: 6-31G_2DFP_
  Basis Set: (ANONYMOUS9C55E44B AUX)
    Blend: DEF2-UNIVERSAL-JKFIT

    Orbital Energies [Eh]
    ---------------------

    Alpha Occupied:

       1A    -10.180342     2A    -10.167190     3A    -10.166986
       4A    -10.166869     5A     -0.797767     6A     -0.686332
       7A     -0.686042     8A     -0.530776     9A     -0.441130
      10A     -0.434738    11A     -0.434600    12A     -0.382650
      13A     -0.382549    14A     -0.363610    15A     -0.338299
      16A     -0.337697    17A     -0.168960

    Alpha Virtual:

      18A      0.076072    19A      0.134106    20A      0.134205
      21A      0.142539    22A      0.142713    23A      0.154880
      24A      0.178715    25A      0.178841    26A      0.203548
      27A      0.214804    28A      0.275689    29A      0.276282
      30A      0.399112    31A      0.399337    32A      0.403351
      33A      0.424044    34A      0.424153    35A      0.456593
      36A      0.495321    37A      0.495458    38A      0.512159
      39A      0.513979    40A      0.578525    41A      0.579109
      42A      0.591339    43A      0.591923    44A      0.602576
      45A      0.624756    46A      0.631770    47A      0.636209
      48A      0.636303    49A      0.663316    50A      0.663506
      51A      0.683823    52A      0.683884    53A      0.734994
      54A      0.825190    55A      0.825622    56A      0.853916
      57A      0.914841    58A      0.915198    59A      0.944123
      60A      0.944612    61A      0.960606    62A      0.961985
      63A      1.003463    64A      1.127886    65A      1.128320
      66A      1.142211    67A      1.163172    68A      1.163388
      69A      1.223326    70A      1.274246    71A      1.274729
      72A      1.279351    73A      1.324302    74A      1.324414
      75A      1.355995    76A      1.365764    77A      1.366340
      78A      1.392435    79A      1.403672    80A      1.404448
      81A      1.416643    82A      1.417585    83A      1.427917
      84A      1.491494    85A      1.499079    86A      1.542507
      87A      1.543151    88A      1.574133    89A      1.574762
      90A      1.669822    91A      1.739030    92A      1.739800
      93A      1.768331    94A      1.830901    95A      1.831902
      96A      1.971724    97A      2.017858    98A      2.018973
      99A      2.019565   100A      2.051629   101A      2.053653
     102A      2.738203   103A      2.738763   104A      2.790929
     105A      2.811416   106A      2.889243   107A      2.890624
     108A      2.894994   109A      2.929326   110A      2.929671
     111A      2.958992   112A      2.964057   113A      2.964700
     114A      3.034010   115A      3.071103   116A      3.071465
     117A      3.084350   118A      3.168546   119A      3.169002
     120A      3.180605   121A      3.285090   122A      3.285537
     123A      3.326822   124A      3.327491   125A      3.375622
     126A      3.489974   127A      3.490316   128A      3.514025
     129A      3.525307   130A      3.568022   131A      3.568680
     132A      3.575245   133A      3.666087   134A      3.666613
     135A      3.679660   136A      3.693713   137A      3.694586
     138A      3.775571   139A      3.778042   140A      3.789152
     141A      3.911783   142A      3.912674   143A      4.034455
     144A      4.110088   145A      4.112635   146A      4.147196
     147A      4.149020   148A      4.173288   149A      4.202560
     150A      4.203099   151A      4.203130   152A      4.210859
     153A      4.314806   154A      4.317071   155A      4.359022
     156A      4.423808   157A      4.425069   158A      4.443478
     159A      4.516383   160A      4.517277   161A      4.577838
     162A      4.578680   163A      4.617523   164A      4.709461
     165A      4.773538   166A      4.775646   167A      4.836960
     168A      4.962858   169A      5.002495   170A      5.003407
     171A      5.228028   172A      5.246302   173A      5.247339
     174A      5.354782   175A      5.356222   176A      5.479358

    Beta Occupied:

       1A    -10.167948     2A    -10.167744     3A    -10.167632
       4A    -10.166519     5A     -0.781092     6A     -0.684127
       7A     -0.683852     8A     -0.511747     9A     -0.431109
      10A     -0.430981    11A     -0.421818    12A     -0.376738
      13A     -0.376632    14A     -0.362593    15A     -0.333421
      16A     -0.332821

    Beta Virtual:

      17A     -0.025742    18A      0.077081    19A      0.134990
      20A      0.135101    21A      0.144421    22A      0.144574
      23A      0.163339    24A      0.182406    25A      0.182492
      26A      0.215034    27A      0.218930    28A      0.282052
      29A      0.282615    30A      0.400282    31A      0.400514
      32A      0.419787    33A      0.426858    34A      0.426966
      35A      0.468500    36A      0.497586    37A      0.497715
      38A      0.513894    39A      0.556324    40A      0.584073
      41A      0.584660    42A      0.597532    43A      0.598091
      44A      0.609997    45A      0.628134    46A      0.631929
      47A      0.639476    48A      0.639605    49A      0.666875
      50A      0.667075    51A      0.686437    52A      0.686540
      53A      0.757517    54A      0.830337    55A      0.830812
      56A      0.855269    57A      0.922837    58A      0.923143
      59A      0.945961    60A      0.953536    61A      0.965970
      62A      0.967239    63A      1.008704    64A      1.131841
      65A      1.132423    66A      1.155583    67A      1.168315
      68A      1.168397    69A      1.232298    70A      1.279822
      71A      1.280346    72A      1.285106    73A      1.329280
      74A      1.329415    75A      1.365412    76A      1.371000
      77A      1.371589    78A      1.393497    79A      1.407108
      80A      1.407938    81A      1.421707    82A      1.422618
      83A      1.428190    84A      1.492542    85A      1.509523
      86A      1.546906    87A      1.547567    88A      1.582012
      89A      1.582626    90A      1.674669    91A      1.744785
      92A      1.745571    93A      1.779108    94A      1.834759
      95A      1.835756    96A      1.972584    97A      2.025025
      98A      2.025857    99A      2.039693   100A      2.058307
     101A      2.060403   102A      2.746556   103A      2.747083
     104A      2.811830   105A      2.816062   106A      2.901962
     107A      2.903320   108A      2.924658   109A      2.931779
     110A      2.932184   111A      2.960056   112A      2.968618
     113A      2.969225   114A      3.041944   115A      3.081013
     116A      3.081375   117A      3.086166   118A      3.184257
     119A      3.184762   120A      3.188317   121A      3.289911
     122A      3.290313   123A      3.330642   124A      3.331281
     125A      3.383441   126A      3.492714   127A      3.493033
     128A      3.512394   129A      3.528360   130A      3.574899
     131A      3.581458   132A      3.582118   133A      3.670800
     134A      3.671446   135A      3.692946   136A      3.725539
     137A      3.725983   138A      3.780142   139A      3.782525
     140A      3.817697   141A      3.921592   142A      3.922499
     143A      4.045341   144A      4.117014   145A      4.119343
     146A      4.154392   147A      4.156246   148A      4.187341
     149A      4.208904   150A      4.209088   151A      4.210640
     152A      4.215334   153A      4.322200   154A      4.324551
     155A      4.362390   156A      4.432030   157A      4.433264
     158A      4.446376   159A      4.524188   160A      4.525051
     161A      4.588456   162A      4.589262   163A      4.624719
     164A      4.719806   165A      4.780536   166A      4.782554
     167A      4.839879   168A      4.967652   169A      5.006526
     170A      5.007454   171A      5.233742   172A      5.248085
     173A      5.249126   174A      5.361240   175A      5.362725
     176A      5.481680

    Final Occupation by Irrep:
              A
    DOCC [    16 ]
    SOCC [     1 ]

  @DF-UKS Final Energy:  -157.81306678399432

   => Energetics <=

    Nuclear Repulsion Energy =            125.3946351794663627
    One-Electron Energy =                -458.7489276816633037
    Two-Electron Energy =                 195.8483689708280053
    DFT Exchange-Correlation Energy =     -20.3071432526253943
    Empirical Dispersion Energy =           0.0000000000000000
    VV10 Nonlocal Energy =                  0.0000000000000000
    Total Energy =                       -157.8130667839943158

  UHF NO Occupations:
  HONO-2 :   15  A 1.9996009
  HONO-1 :   16  A 1.9989805
  HONO-0 :   17  A 1.0000000
  LUNO+0 :   18  A 0.0010195
  LUNO+1 :   19  A 0.0003991
  LUNO+2 :   20  A 0.0001981
  LUNO+3 :   21  A 0.0001970

Computation Completed

Properties will be evaluated at   0.000000,   0.000000,   0.000000 [a0]

Properties computed using the SCF density matrix

  Nuclear Dipole Moment: [e a0]
     X:     0.8272      Y:    -0.0031      Z:     0.0033

  Electronic Dipole Moment: [e a0]
     X:    -0.7493      Y:     0.0030      Z:    -0.0034

  Dipole Moment: [e a0]
     X:     0.0779      Y:    -0.0001      Z:    -0.0000     Total:     0.0779

  Dipole Moment: [D]
     X:     0.1980      Y:    -0.0001      Z:    -0.0001     Total:     0.1980

*** tstop() called on n091 at Fri Nov  5 11:54:27 2021
Module time:
	user time   =     513.36 seconds =       8.56 minutes
	system time =       4.61 seconds =       0.08 minutes
	total time  =        130 seconds =       2.17 minutes
Total time:
	user time   =     513.36 seconds =       8.56 minutes
	system time =       4.61 seconds =       0.08 minutes
	total time  =        130 seconds =       2.17 minutes
Grab this energy -157.81306678399432
    Psi4 stopped on: Friday, 05 November 2021 11:54AM
    Psi4 wall time for execution: 0:02:10.22

*** Psi4 exiting successfully. Buy a developer a beer!
