                               Psi4 1.4a2.dev629

  ==> Input File <==

--------------------------------------------------------------------------
import os
memory 14 GB

molecule {
 C   -0.3233403535   -0.0002488244    0.0000004477
 C    0.0605856087   -1.4021839399   -2.4256975566
 C    0.0621323438    2.8016347200   -0.0016000539
 C    0.0605828605   -1.3994113864    2.4272988907
 H    2.0853115485   -1.6406474837   -2.8459141667
 H   -0.7668611425   -0.3897553448   -4.0278612307
 H   -0.7657494591   -3.2924694384   -2.3492977103
 H    2.0900336631    3.2942018734    0.0006218297
 H   -0.7638041808    3.6768594395    1.6766870036
 H   -0.7642007545    3.6769890623   -1.6760835540
 H    2.0853126186   -1.6417211421    2.8452931905
 H   -0.7653573290   -3.2929270498    2.3488811674
 H   -0.7672533005   -0.3903447992    4.0276717425
units bohr
0 2
}

basis {

assign 6-31g_2dfp_

[ 6-31g_2dfp_ ]

spherical

!----------------------------------------------------------------------
! Basis Set Exchange
! Version v0.8.13
! https://www.basissetexchange.org
!----------------------------------------------------------------------
!   Basis set: 6-31G(2df,p)
! Description: 6-31G(2df,p)
!        Role: orbital
!     Version: 0  (Data from the original Basis Set Exchange)
!----------------------------------------------------------------------

****
H     0
S    3   1.00
     18.7311370              0.03349460
      2.8253937              0.23472695
      0.6401217              0.81375733
S    1   1.00
      0.1612778              1.00000000
P    1   1.00
      1.5000000              1.0000000
P    1   1.00
      0.3750000              1.0000000
****
B     0
S    6   1.00
   2068.8823000              0.0018663
    310.6495700              0.0142515
     70.6830330              0.0695516
     19.8610800              0.2325729
      6.2993048              0.4670787
      2.1270270              0.3634314
SP   3   1.00
      4.7279710             -0.1303938              0.0745976
      1.1903377             -0.1307889              0.3078467
      0.3594117              1.1309444              0.7434568
SP   1   1.00
      0.1267512              1.0000000              1.0000000
D    1   1.00
      0.8020000              1.0000000
D    1   1.00
      0.2005000              1.0000000
F    1   1.00
      0.5000000              1.0000000
****
C     0
S    6   1.00
   3047.5249000              0.0018347
    457.3695100              0.0140373
    103.9486900              0.0688426
     29.2101550              0.2321844
      9.2866630              0.4679413
      3.1639270              0.3623120
SP   3   1.00
      7.8682724             -0.1193324              0.0689991
      1.8812885             -0.1608542              0.3164240
      0.5442493              1.1434564              0.7443083
SP   1   1.00
      0.1687144              1.0000000              1.0000000
D    1   1.00
      1.2520000              1.0000000
D    1   1.00
      0.3130000              1.0000000
F    1   1.00
      0.8000000              1.0000000
****
N     0
S    6   1.00
   4173.5110000              0.0018348
    627.4579000              0.0139950
    142.9021000              0.0685870
     40.2343300              0.2322410
     12.8202100              0.4690700
      4.3904370              0.3604550
SP   3   1.00
     11.6263580             -0.1149610              0.0675800
      2.7162800             -0.1691180              0.3239070
      0.7722180              1.1458520              0.7408950
SP   1   1.00
      0.2120313              1.0000000              1.0000000
D    1   1.00
      1.8260000              1.0000000
D    1   1.00
      0.4565000              1.0000000
F    1   1.00
      1.0000000              1.0000000
****
O     0
S    6   1.00
   5484.6717000              0.0018311
    825.2349500              0.0139501
    188.0469600              0.0684451
     52.9645000              0.2327143
     16.8975700              0.4701930
      5.7996353              0.3585209
SP   3   1.00
     15.5396160             -0.1107775              0.0708743
      3.5999336             -0.1480263              0.3397528
      1.0137618              1.1307670              0.7271586
SP   1   1.00
      0.2700058              1.0000000              1.0000000
D    1   1.00
      2.5840000              1.0000000
D    1   1.00
      0.6460000              1.0000000
F    1   1.00
      1.4000000              1.0000000
****
F     0
S    6   1.00
   7001.7130900              0.0018196169
   1051.3660900              0.0139160796
    239.2856900              0.0684053245
     67.3974453              0.233185760
     21.5199573              0.471267439
      7.40310130             0.356618546
SP   3   1.00
     20.8479528             -0.108506975            0.0716287243
      4.80830834            -0.146451658            0.3459121030
      1.34406986             1.128688580            0.7224699570
SP   1   1.00
      0.358151393            1.0000000              1.0000000
D    1   1.00
      3.5000000              1.0000000
D    1   1.00
      0.8750000              1.0000000
F    1   1.00
      1.8500000              1.0000000
****
Al     0
S    6   1.00
  13983.1000000              0.00194267
   2098.7500000              0.0148599
    477.7050000              0.0728494
    134.3600000              0.2468300
     42.8709000              0.4872580
     14.5189000              0.3234960
SP   6   1.00
    239.6680000             -0.00292619             0.00460285
     57.4419000             -0.0374080              0.0331990
     18.2859000             -0.1144870              0.1362820
      6.5991400              0.1156350              0.3304760
      2.4904900              0.6125950              0.4491460
      0.9445400              0.3937990              0.2657040
SP   3   1.00
      1.2779000             -0.2276060             -0.0175130
      0.3975900              0.00144583             0.2445330
      0.1600950              1.0927900              0.8049340
SP   1   1.00
      0.0556577              1.0000000              1.0000000
D    1   1.00
      0.6500000              1.0000000
D    1   1.00
      0.1625000              1.0000000
F    1   1.00
      0.2500000              1.0000000
****
Si     0
S    6   1.00
  16115.9000000              0.00195948
   2425.5800000              0.01492880
    553.8670000              0.07284780
    156.3400000              0.24613000
     50.0683000              0.48591400
     17.0178000              0.32500200
SP   6   1.00
    292.7180000             -0.00278094             0.00443826
     69.8731000             -0.03571460             0.03266790
     22.3363000             -0.11498500             0.13472100
      8.1503900              0.09356340             0.32867800
      3.1345800              0.60301700             0.44964000
      1.2254300              0.41895900             0.26137200
SP   3   1.00
      1.7273800             -0.24463000            -0.01779510
      0.5729220              0.00431572             0.25353900
      0.2221920              1.09818000             0.80066900
SP   1   1.00
      0.0778369              1.00000000             1.00000000
D    1   1.00
      0.9000000              1.0000000
D    1   1.00
      0.2250000              1.0000000
F    1   1.00
      0.3200000              1.0000000
****
P     0
S    6   1.00
  19413.3000000              0.0018516
   2909.4200000              0.0142062
    661.3640000              0.0699995
    185.7590000              0.2400790
     59.1943000              0.4847620
     20.0310000              0.3352000
SP   6   1.00
    339.4780000             -0.00278217             0.00456462
     81.0101000             -0.0360499              0.03369360
     25.8780000             -0.1166310              0.13975500
      9.4522100              0.0968328              0.33936200
      3.6656600              0.6144180              0.45092100
      1.4674600              0.4037980              0.23858600
SP   3   1.00
      2.1562300             -0.2529230             -0.01776530
      0.7489970              0.0328517              0.27405800
      0.2831450              1.0812500              0.78542100
SP   1   1.00
      0.0998317              1.0000000              1.00000000
D    1   1.00
      1.1000000              1.0000000
D    1   1.00
      0.2750000              1.0000000
F    1   1.00
      0.4500000              1.0000000
****
S     0
S    6   1.00
  21917.1000000              0.0018690
   3301.4900000              0.0142300
    754.1460000              0.0696960
    212.7110000              0.2384870
     67.9896000              0.4833070
     23.0515000              0.3380740
SP   6   1.00
    423.7350000             -0.0023767              0.0040610
    100.7100000             -0.0316930              0.0306810
     32.1599000             -0.1133170              0.1304520
     11.8079000              0.0560900              0.3272050
      4.6311000              0.5922550              0.4528510
      1.8702500              0.4550060              0.2560420
SP   3   1.00
      2.6158400             -0.2503740             -0.0145110
      0.9221670              0.0669570              0.3102630
      0.3412870              1.0545100              0.7544830
SP   1   1.00
      0.1171670              1.0000000              1.0000000
D    1   1.00
      1.3000000              1.0000000
D    1   1.00
      0.3250000              1.0000000
F    1   1.00
      0.5500000              1.0000000
****
Cl     0
S    6   1.00
  25180.1000000              0.0018330
   3780.3500000              0.0140340
    860.4740000              0.0690970
    242.1450000              0.2374520
     77.3349000              0.4830340
     26.2470000              0.3398560
SP   6   1.00
    491.7650000             -0.0022974              0.0039894
    116.9840000             -0.0307140              0.0303180
     37.4153000             -0.1125280              0.1298800
     13.7834000              0.0450160              0.3279510
      5.4521500              0.5893530              0.4535270
      2.2258800              0.4652060              0.2521540
SP   3   1.00
      3.1864900             -0.2518300             -0.0142990
      1.1442700              0.0615890              0.3235720
      0.4203770              1.0601800              0.7435070
SP   1   1.00
      0.1426570              1.0000000              1.0000000
D    1   1.00
      1.5000000              1.0000000
D    1   1.00
      0.3750000              1.0000000
F    1   1.00
      0.7000000              1.0000000
****
}

set {
reference uhf
freeze_core true
e_convergence 10
d_convergence 10
dft_spherical_points 1202
dft_radial_points 99
}

e = energy('b3lyp')

print_out('Grab this energy {0}'.format(e))
--------------------------------------------------------------------------

    Molecular point group: c1

    Geometry (in Bohr), charge = 0, multiplicity = 2:

       Center              X                  Y                   Z               Mass
    ------------   -----------------  -----------------  -----------------  -----------------
         C           -0.323340439084    -0.000208057179     0.000000114896    12.000000000000
         C            0.060585523116    -1.402143172679    -2.425697889404    12.000000000000
         C            0.062132258216     2.801675487221    -0.001600386704    12.000000000000
         C            0.060582774916    -1.399370619179     2.427298557896    12.000000000000
         H            2.085311462916    -1.640606716479    -2.845914499504     1.007825032230
         H           -0.766861228084    -0.389714577579    -4.027861563504     1.007825032230
         H           -0.765749544684    -3.292428671179    -2.349298043104     1.007825032230
         H            2.090033577516     3.294242640621     0.000621496896     1.007825032230
         H           -0.763804266384     3.676900206721     1.676686670796     1.007825032230
         H           -0.764200840084     3.677029829521    -1.676083886804     1.007825032230
         H            2.085312533016    -1.641680374879     2.845292857696     1.007825032230
         H           -0.765357414584    -3.292886282579     2.348880834596     1.007825032230
         H           -0.767253386084    -0.390304031979     4.027671409696     1.007825032230

  Charge       = 0
  Multiplicity = 2
  Basis Set: ANONYMOUSF7296D95
    Blend: 6-31G_2DFP_
  Basis Set: (ANONYMOUSF7296D95 AUX)
    Blend: DEF2-UNIVERSAL-JKFIT

    Orbital Energies [Eh]
    ---------------------

    Alpha Occupied:

       1A    -10.180342     2A    -10.167047     3A    -10.167027
       4A    -10.166971     5A     -0.797766     6A     -0.686216
       7A     -0.686158     8A     -0.530776     9A     -0.441126
      10A     -0.434759    11A     -0.434585    12A     -0.382823
      13A     -0.382373    14A     -0.363610    15A     -0.338152
      16A     -0.337846    17A     -0.168961

    Alpha Virtual:

      18A      0.076072    19A      0.134105    20A      0.134204
      21A      0.142422    22A      0.142834    23A      0.154879
      24A      0.178639    25A      0.178915    26A      0.203549
      27A      0.214804    28A      0.275965    29A      0.276005
      30A      0.399105    31A      0.399351    32A      0.403344
      33A      0.423995    34A      0.424200    35A      0.456594
      36A      0.495379    37A      0.495400    38A      0.512154
      39A      0.513988    40A      0.578692    41A      0.578931
      42A      0.591358    43A      0.591892    44A      0.602601
      45A      0.624752    46A      0.631763    47A      0.636028
      48A      0.636490    49A      0.663372    50A      0.663453
      51A      0.683740    52A      0.683967    53A      0.734993
      54A      0.825348    55A      0.825465    56A      0.853916
      57A      0.914707    58A      0.915341    59A      0.944109
      60A      0.944615    61A      0.961225    62A      0.961381
      63A      1.003452    64A      1.127710    65A      1.128506
      66A      1.142202    67A      1.163116    68A      1.163436
      69A      1.223323    70A      1.274389    71A      1.274575
      72A      1.279368    73A      1.324288    74A      1.324418
      75A      1.355966    76A      1.366052    77A      1.366077
      78A      1.392460    79A      1.403558    80A      1.404540
      81A      1.416770    82A      1.417424    83A      1.427920
      84A      1.491462    85A      1.499108    86A      1.542812
      87A      1.542856    88A      1.573967    89A      1.574951
      90A      1.669828    91A      1.739306    92A      1.739520
      93A      1.768336    94A      1.830966    95A      1.831829
      96A      1.971723    97A      2.018299    98A      2.018969
      99A      2.019136   100A      2.052181   101A      2.053098
     102A      2.738479   103A      2.738497   104A      2.790919
     105A      2.811436   106A      2.889793   107A      2.890077
     108A      2.894976   109A      2.929187   110A      2.929806
     111A      2.958991   112A      2.964214   113A      2.964552
     114A      3.034003   115A      3.070652   116A      3.071920
     117A      3.084349   118A      3.168563   119A      3.169010
     120A      3.180580   121A      3.285197   122A      3.285430
     123A      3.326292   124A      3.328044   125A      3.375617
     126A      3.489104   127A      3.491216   128A      3.513977
     129A      3.525359   130A      3.568154   131A      3.568479
     132A      3.575296   133A      3.665896   134A      3.666837
     135A      3.679663   136A      3.693469   137A      3.694773
     138A      3.776751   139A      3.776854   140A      3.789171
     141A      3.912100   142A      3.912354   143A      4.034449
     144A      4.111238   145A      4.111499   146A      4.148078
     147A      4.148158   148A      4.173245   149A      4.202344
     150A      4.202714   151A      4.203746   152A      4.210841
     153A      4.315753   154A      4.316156   155A      4.358974
     156A      4.424367   157A      4.424563   158A      4.443403
     159A      4.516174   160A      4.517484   161A      4.578258
     162A      4.578302   163A      4.617581   164A      4.709404
     165A      4.774027   166A      4.775179   167A      4.836916
     168A      4.962866   169A      5.002409   170A      5.003488
     171A      5.228067   172A      5.246268   173A      5.247365
     174A      5.355464   175A      5.355555   176A      5.479349

    Beta Occupied:

       1A    -10.167798     2A    -10.167785     3A    -10.167741
       4A    -10.166520     5A     -0.781091     6A     -0.684014
       7A     -0.683966     8A     -0.511747     9A     -0.431141
      10A     -0.430945    11A     -0.421824    12A     -0.376914
      13A     -0.376451    14A     -0.362594    15A     -0.333263
      16A     -0.332980

    Beta Virtual:

      17A     -0.025743    18A      0.077081    19A      0.135002
      20A      0.135086    21A      0.144315    22A      0.144682
      23A      0.163338    24A      0.182307    25A      0.182591
      26A      0.215027    27A      0.218937    28A      0.282308
      29A      0.282358    30A      0.400278    31A      0.400516
      32A      0.419791    33A      0.426804    34A      0.427013
      35A      0.468502    36A      0.497638    37A      0.497663
      38A      0.513896    39A      0.556326    40A      0.584236
      41A      0.584488    42A      0.597535    43A      0.598076
      44A      0.610018    45A      0.628122    46A      0.631935
      47A      0.639318    48A      0.639763    49A      0.666927
      50A      0.667026    51A      0.686391    52A      0.686586
      53A      0.757516    54A      0.830519    55A      0.830630
      56A      0.855269    57A      0.922706    58A      0.923287
      59A      0.945948    60A      0.953540    61A      0.966546
      62A      0.966672    63A      1.008692    64A      1.131783
      65A      1.132489    66A      1.155574    67A      1.168155
      68A      1.168550    69A      1.232296    70A      1.280000
      71A      1.280161    72A      1.285120    73A      1.329271
      74A      1.329412    75A      1.365366    76A      1.371278
      77A      1.371352    78A      1.393521    79A      1.407017
      80A      1.408010    81A      1.421825    82A      1.422455
      83A      1.428203    84A      1.492529    85A      1.509529
      86A      1.547124    87A      1.547367    88A      1.581748
      89A      1.582909    90A      1.674674    91A      1.745073
      92A      1.745278    93A      1.779115    94A      1.834826
      95A      1.835681    96A      1.972584    97A      2.025392
      98A      2.025518    99A      2.039670   100A      2.058886
     101A      2.059825   102A      2.746802   103A      2.746844
     104A      2.811806   105A      2.816097   106A      2.902456
     107A      2.902816   108A      2.924653   109A      2.931684
     110A      2.932274   111A      2.960059   112A      2.968754
     113A      2.969096   114A      3.041938   115A      3.080518
     116A      3.081874   117A      3.086166   118A      3.184314
     119A      3.184767   120A      3.188253   121A      3.289958
     122A      3.290265   123A      3.330106   124A      3.331838
     125A      3.383436   126A      3.491857   127A      3.493924
     128A      3.512350   129A      3.528396   130A      3.574896
     131A      3.581605   132A      3.581967   133A      3.670666
     134A      3.671567   135A      3.692950   136A      3.725353
     137A      3.726164   138A      3.781303   139A      3.781363
     140A      3.817700   141A      3.921911   142A      3.922176
     143A      4.045337   144A      4.118084   145A      4.118286
     146A      4.155204   147A      4.155447   148A      4.187304
     149A      4.208652   150A      4.209144   151A      4.210849
     152A      4.215315   153A      4.323222   154A      4.323569
     155A      4.362335   156A      4.432572   157A      4.432790
     158A      4.446284   159A      4.523973   160A      4.525265
     161A      4.588843   162A      4.588919   163A      4.624773
     164A      4.719747   165A      4.780952   166A      4.782162
     167A      4.839834   168A      4.967661   169A      5.006464
     170A      5.007512   171A      5.233782   172A      5.248054
     173A      5.249147   174A      5.361951   175A      5.362028
     176A      5.481670

    Final Occupation by Irrep:
              A
    DOCC [    16 ]
    SOCC [     1 ]

  @DF-UKS Final Energy:  -157.81306522341615

   => Energetics <=

    Nuclear Repulsion Energy =            125.3946152005083690
    One-Electron Energy =                -458.7488813759301252
    Two-Electron Energy =                 195.8483442515691593
    DFT Exchange-Correlation Energy =     -20.3071432995635632
    Empirical Dispersion Energy =           0.0000000000000000
    VV10 Nonlocal Energy =                  0.0000000000000000
    Total Energy =                       -157.8130652234161460

  UHF NO Occupations:
  HONO-2 :   15  A 1.9996009
  HONO-1 :   16  A 1.9989805
  HONO-0 :   17  A 1.0000000
  LUNO+0 :   18  A 0.0010195
  LUNO+1 :   19  A 0.0003991
  LUNO+2 :   20  A 0.0001977
  LUNO+3 :   21  A 0.0001974

Computation Completed

Properties will be evaluated at   0.000000,   0.000000,   0.000000 [a0]

Properties computed using the SCF density matrix

  Nuclear Dipole Moment: [e a0]
     X:     0.8272      Y:     0.0003      Z:    -0.0000

  Electronic Dipole Moment: [e a0]
     X:    -0.7493      Y:    -0.0010      Z:     0.0000

  Dipole Moment: [e a0]
     X:     0.0779      Y:    -0.0008      Z:     0.0000     Total:     0.0779

  Dipole Moment: [D]
     X:     0.1980      Y:    -0.0020      Z:     0.0000     Total:     0.1980

*** tstop() called on n065 at Fri Nov  5 12:48:58 2021
Module time:
	user time   =     508.87 seconds =       8.48 minutes
	system time =      11.34 seconds =       0.19 minutes
	total time  =        131 seconds =       2.18 minutes
Total time:
	user time   =     508.87 seconds =       8.48 minutes
	system time =      11.34 seconds =       0.19 minutes
	total time  =        131 seconds =       2.18 minutes
Grab this energy -157.81306522341615
    Psi4 stopped on: Friday, 05 November 2021 12:48PM
    Psi4 wall time for execution: 0:02:10.98

*** Psi4 exiting successfully. Buy a developer a beer!
