                               Psi4 1.4a2.dev629

  ==> Input File <==

--------------------------------------------------------------------------
import os
memory 14 GB

molecule {
 C   -0.3233321304    0.0049901587    0.0000000000
 C    0.0614420654   -1.4035688799   -2.4202437411
 C    0.0604194753    2.8096671349   -0.0000000000
 C    0.0614420654   -1.4035688799    2.4202437411
 H    2.0873241568   -1.6501548306   -2.8386343808
 H   -0.7624942786   -0.3967041418   -4.0235796010
 H   -0.7674277396   -3.2937129238   -2.3358090985
 H    2.0860221862    3.2972586290   -0.0000000000
 H   -0.7667029078    3.6881706581    1.6766963809
 H   -0.7667029078    3.6881706581   -1.6766963809
 H    2.0873241568   -1.6501548306    2.8386343808
 H   -0.7674277396   -3.2937129238    2.3358090985
 H   -0.7624942786   -0.3967041418    4.0235796010
units bohr
0 2
}

basis {

assign 6-31g_2dfp_

[ 6-31g_2dfp_ ]

spherical

!----------------------------------------------------------------------
! Basis Set Exchange
! Version v0.8.13
! https://www.basissetexchange.org
!----------------------------------------------------------------------
!   Basis set: 6-31G(2df,p)
! Description: 6-31G(2df,p)
!        Role: orbital
!     Version: 0  (Data from the original Basis Set Exchange)
!----------------------------------------------------------------------

****
H     0
S    3   1.00
     18.7311370              0.03349460
      2.8253937              0.23472695
      0.6401217              0.81375733
S    1   1.00
      0.1612778              1.00000000
P    1   1.00
      1.5000000              1.0000000
P    1   1.00
      0.3750000              1.0000000
****
B     0
S    6   1.00
   2068.8823000              0.0018663
    310.6495700              0.0142515
     70.6830330              0.0695516
     19.8610800              0.2325729
      6.2993048              0.4670787
      2.1270270              0.3634314
SP   3   1.00
      4.7279710             -0.1303938              0.0745976
      1.1903377             -0.1307889              0.3078467
      0.3594117              1.1309444              0.7434568
SP   1   1.00
      0.1267512              1.0000000              1.0000000
D    1   1.00
      0.8020000              1.0000000
D    1   1.00
      0.2005000              1.0000000
F    1   1.00
      0.5000000              1.0000000
****
C     0
S    6   1.00
   3047.5249000              0.0018347
    457.3695100              0.0140373
    103.9486900              0.0688426
     29.2101550              0.2321844
      9.2866630              0.4679413
      3.1639270              0.3623120
SP   3   1.00
      7.8682724             -0.1193324              0.0689991
      1.8812885             -0.1608542              0.3164240
      0.5442493              1.1434564              0.7443083
SP   1   1.00
      0.1687144              1.0000000              1.0000000
D    1   1.00
      1.2520000              1.0000000
D    1   1.00
      0.3130000              1.0000000
F    1   1.00
      0.8000000              1.0000000
****
N     0
S    6   1.00
   4173.5110000              0.0018348
    627.4579000              0.0139950
    142.9021000              0.0685870
     40.2343300              0.2322410
     12.8202100              0.4690700
      4.3904370              0.3604550
SP   3   1.00
     11.6263580             -0.1149610              0.0675800
      2.7162800             -0.1691180              0.3239070
      0.7722180              1.1458520              0.7408950
SP   1   1.00
      0.2120313              1.0000000              1.0000000
D    1   1.00
      1.8260000              1.0000000
D    1   1.00
      0.4565000              1.0000000
F    1   1.00
      1.0000000              1.0000000
****
O     0
S    6   1.00
   5484.6717000              0.0018311
    825.2349500              0.0139501
    188.0469600              0.0684451
     52.9645000              0.2327143
     16.8975700              0.4701930
      5.7996353              0.3585209
SP   3   1.00
     15.5396160             -0.1107775              0.0708743
      3.5999336             -0.1480263              0.3397528
      1.0137618              1.1307670              0.7271586
SP   1   1.00
      0.2700058              1.0000000              1.0000000
D    1   1.00
      2.5840000              1.0000000
D    1   1.00
      0.6460000              1.0000000
F    1   1.00
      1.4000000              1.0000000
****
F     0
S    6   1.00
   7001.7130900              0.0018196169
   1051.3660900              0.0139160796
    239.2856900              0.0684053245
     67.3974453              0.233185760
     21.5199573              0.471267439
      7.40310130             0.356618546
SP   3   1.00
     20.8479528             -0.108506975            0.0716287243
      4.80830834            -0.146451658            0.3459121030
      1.34406986             1.128688580            0.7224699570
SP   1   1.00
      0.358151393            1.0000000              1.0000000
D    1   1.00
      3.5000000              1.0000000
D    1   1.00
      0.8750000              1.0000000
F    1   1.00
      1.8500000              1.0000000
****
Al     0
S    6   1.00
  13983.1000000              0.00194267
   2098.7500000              0.0148599
    477.7050000              0.0728494
    134.3600000              0.2468300
     42.8709000              0.4872580
     14.5189000              0.3234960
SP   6   1.00
    239.6680000             -0.00292619             0.00460285
     57.4419000             -0.0374080              0.0331990
     18.2859000             -0.1144870              0.1362820
      6.5991400              0.1156350              0.3304760
      2.4904900              0.6125950              0.4491460
      0.9445400              0.3937990              0.2657040
SP   3   1.00
      1.2779000             -0.2276060             -0.0175130
      0.3975900              0.00144583             0.2445330
      0.1600950              1.0927900              0.8049340
SP   1   1.00
      0.0556577              1.0000000              1.0000000
D    1   1.00
      0.6500000              1.0000000
D    1   1.00
      0.1625000              1.0000000
F    1   1.00
      0.2500000              1.0000000
****
Si     0
S    6   1.00
  16115.9000000              0.00195948
   2425.5800000              0.01492880
    553.8670000              0.07284780
    156.3400000              0.24613000
     50.0683000              0.48591400
     17.0178000              0.32500200
SP   6   1.00
    292.7180000             -0.00278094             0.00443826
     69.8731000             -0.03571460             0.03266790
     22.3363000             -0.11498500             0.13472100
      8.1503900              0.09356340             0.32867800
      3.1345800              0.60301700             0.44964000
      1.2254300              0.41895900             0.26137200
SP   3   1.00
      1.7273800             -0.24463000            -0.01779510
      0.5729220              0.00431572             0.25353900
      0.2221920              1.09818000             0.80066900
SP   1   1.00
      0.0778369              1.00000000             1.00000000
D    1   1.00
      0.9000000              1.0000000
D    1   1.00
      0.2250000              1.0000000
F    1   1.00
      0.3200000              1.0000000
****
P     0
S    6   1.00
  19413.3000000              0.0018516
   2909.4200000              0.0142062
    661.3640000              0.0699995
    185.7590000              0.2400790
     59.1943000              0.4847620
     20.0310000              0.3352000
SP   6   1.00
    339.4780000             -0.00278217             0.00456462
     81.0101000             -0.0360499              0.03369360
     25.8780000             -0.1166310              0.13975500
      9.4522100              0.0968328              0.33936200
      3.6656600              0.6144180              0.45092100
      1.4674600              0.4037980              0.23858600
SP   3   1.00
      2.1562300             -0.2529230             -0.01776530
      0.7489970              0.0328517              0.27405800
      0.2831450              1.0812500              0.78542100
SP   1   1.00
      0.0998317              1.0000000              1.00000000
D    1   1.00
      1.1000000              1.0000000
D    1   1.00
      0.2750000              1.0000000
F    1   1.00
      0.4500000              1.0000000
****
S     0
S    6   1.00
  21917.1000000              0.0018690
   3301.4900000              0.0142300
    754.1460000              0.0696960
    212.7110000              0.2384870
     67.9896000              0.4833070
     23.0515000              0.3380740
SP   6   1.00
    423.7350000             -0.0023767              0.0040610
    100.7100000             -0.0316930              0.0306810
     32.1599000             -0.1133170              0.1304520
     11.8079000              0.0560900              0.3272050
      4.6311000              0.5922550              0.4528510
      1.8702500              0.4550060              0.2560420
SP   3   1.00
      2.6158400             -0.2503740             -0.0145110
      0.9221670              0.0669570              0.3102630
      0.3412870              1.0545100              0.7544830
SP   1   1.00
      0.1171670              1.0000000              1.0000000
D    1   1.00
      1.3000000              1.0000000
D    1   1.00
      0.3250000              1.0000000
F    1   1.00
      0.5500000              1.0000000
****
Cl     0
S    6   1.00
  25180.1000000              0.0018330
   3780.3500000              0.0140340
    860.4740000              0.0690970
    242.1450000              0.2374520
     77.3349000              0.4830340
     26.2470000              0.3398560
SP   6   1.00
    491.7650000             -0.0022974              0.0039894
    116.9840000             -0.0307140              0.0303180
     37.4153000             -0.1125280              0.1298800
     13.7834000              0.0450160              0.3279510
      5.4521500              0.5893530              0.4535270
      2.2258800              0.4652060              0.2521540
SP   3   1.00
      3.1864900             -0.2518300             -0.0142990
      1.1442700              0.0615890              0.3235720
      0.4203770              1.0601800              0.7435070
SP   1   1.00
      0.1426570              1.0000000              1.0000000
D    1   1.00
      1.5000000              1.0000000
D    1   1.00
      0.3750000              1.0000000
F    1   1.00
      0.7000000              1.0000000
****
}

set {
reference uhf
freeze_core true
e_convergence 10
d_convergence 10
dft_spherical_points 1202
dft_radial_points 99
}

e = energy('b3lyp')

print_out('Grab this energy {0}'.format(e))
--------------------------------------------------------------------------

    Molecular point group: cs

    Geometry (in Bohr), charge = 0, multiplicity = 2:

       Center              X                  Y                   Z               Mass
    ------------   -----------------  -----------------  -----------------  -----------------
         C           -0.323334337787     0.003542271688     0.000000000000    12.000000000000
         C            0.061439858013    -1.405016766912    -2.420243741100    12.000000000000
         C            0.060417267913     2.808219247888     0.000000000000    12.000000000000
         C            0.061439858013    -1.405016766912     2.420243741100    12.000000000000
         H            2.087321949413    -1.651602717612    -2.838634380800     1.007825032230
         H           -0.762496485987    -0.398152028812    -4.023579601000     1.007825032230
         H           -0.767429946987    -3.295160810812    -2.335809098500     1.007825032230
         H            2.086019978813     3.295810741988     0.000000000000     1.007825032230
         H           -0.766705115187     3.686722771088     1.676696380900     1.007825032230
         H           -0.766705115187     3.686722771088    -1.676696380900     1.007825032230
         H            2.087321949413    -1.651602717612     2.838634380800     1.007825032230
         H           -0.767429946987    -3.295160810812     2.335809098500     1.007825032230
         H           -0.762496485987    -0.398152028812     4.023579601000     1.007825032230

  Charge       = 0
  Multiplicity = 2
  Basis Set: ANONYMOUS9BC4963C
    Blend: 6-31G_2DFP_
  Basis Set: (ANONYMOUS9BC4963C AUX)
    Blend: DEF2-UNIVERSAL-JKFIT

    Orbital Energies [Eh]
    ---------------------

    Alpha Occupied:

       1Ap   -10.180341     2Ap   -10.167329     1App  -10.166874
       3Ap   -10.166842     4Ap    -0.797769     5Ap    -0.686407
       2App   -0.685964     6Ap    -0.530776     7Ap    -0.441126
       8Ap    -0.434936     3App   -0.434406     9Ap    -0.382745
       4App   -0.382452     5App   -0.363611    10Ap    -0.338275
       6App   -0.337721    11Ap    -0.168961

    Alpha Virtual:

      12Ap     0.076072    13Ap     0.133915     7App    0.134397
      14Ap     0.142489     8App    0.142767    15Ap     0.154880
      16Ap     0.178555     9App    0.179003    17Ap     0.203544
      10App    0.214807    18Ap     0.275817    11App    0.276155
      19Ap     0.399024    12App    0.399372    20Ap     0.403411
      21Ap     0.423967    13App    0.424237    22Ap     0.456595
      23Ap     0.494984    14App    0.495786    15App    0.512172
      24Ap     0.513987    25Ap     0.578545    16App    0.579064
      26Ap     0.591612    17App    0.591663    27Ap     0.602574
      28Ap     0.624768    18App    0.631768    19App    0.636028
      29Ap     0.636470    30Ap     0.663195    20App    0.663631
      31Ap     0.683608    21App    0.684100    32Ap     0.734993
      33Ap     0.824581    22App    0.826221    23App    0.853914
      34Ap     0.914778    24App    0.915277    25App    0.944049
      35Ap     0.944519    26App    0.961129    36Ap     0.961663
      37Ap     1.003471    38Ap     1.126944    27App    1.129298
      39Ap     1.142212    40Ap     1.162772    28App    1.163761
      41Ap     1.223332    42Ap     1.273977    29App    1.275020
      43Ap     1.279351    30App    1.324264    44Ap     1.324446
      45Ap     1.355993    46Ap     1.365339    31App    1.366712
      32App    1.392443    47Ap     1.403261    33App    1.404909
      48Ap     1.416631    34App    1.417603    35App    1.427928
      36App    1.491437    49Ap     1.499063    50Ap     1.542455
      37App    1.543210    51Ap     1.572594    38App    1.576407
      52Ap     1.669820    53Ap     1.738326    39App    1.740477
      54Ap     1.768345    55Ap     1.830890    40App    1.831912
      41App    1.971723    56Ap     2.017579    57Ap     2.018292
      42App    2.020486    58Ap     2.050127    43App    2.055245
      59Ap     2.738219    44App    2.738751    60Ap     2.790920
      45App    2.811439    46App    2.889859    61Ap     2.890041
      62Ap     2.894944    63Ap     2.929311    47App    2.929672
      48App    2.958990    64Ap     2.963470    49App    2.965309
      65Ap     3.034011    66Ap     3.070298    50App    3.072241
      51App    3.084383    67Ap     3.168003    52App    3.169604
      68Ap     3.180558    53App    3.284601    69Ap     3.286013
      70Ap     3.326210    54App    3.328123    71Ap     3.375665
      72Ap     3.489669    55App    3.490584    56App    3.514036
      73Ap     3.525301    74Ap     3.567314    57App    3.569302
      58App    3.575397    75Ap     3.666267    59App    3.666521
      76Ap     3.679654    60App    3.693662    77Ap     3.694545
      61App    3.776012    78Ap     3.777495    79Ap     3.789296
      80Ap     3.910802    62App    3.913652    81Ap     4.034476
      82Ap     4.110018    63App    4.112752    83Ap     4.146447
      64App    4.149762    84Ap     4.173230    85Ap     4.201388
      86Ap     4.202698    65App    4.204639    66App    4.210984
      67App    4.315934    87Ap     4.315963    68App    4.358999
      88Ap     4.424309    69App    4.424482    70App    4.443542
      89Ap     4.515984    71App    4.517722    90Ap     4.577197
      72App    4.579341    91Ap     4.617534    92Ap     4.709438
      93Ap     4.773317    73App    4.775876    74App    4.836940
      94Ap     4.962860    95Ap     5.001985    75App    5.003932
      96Ap     5.228025    76App    5.246656    97Ap     5.246985
      98Ap     5.354797    77App    5.356203    78App    5.479330

    Beta Occupied:

       1Ap   -10.168085     1App  -10.167628     2Ap   -10.167612
       3Ap   -10.166518     4Ap    -0.781094     5Ap    -0.684213
       2App   -0.683763     6Ap    -0.511747     7Ap    -0.431316
       3App   -0.430768     8Ap    -0.421823     9Ap    -0.376840
       4App   -0.376527     5App   -0.362595    10Ap    -0.333401
       6App   -0.332840

    Beta Virtual:

      11Ap    -0.025743    12Ap     0.077081    13Ap     0.134795
       7App    0.135297    14Ap     0.144366     8App    0.144631
      15Ap     0.163339    16Ap     0.182216     9App    0.182684
      10App    0.215037    17Ap     0.218927    18Ap     0.282153
      11App    0.282514    19Ap     0.400271    12App    0.400517
      20Ap     0.419799    21Ap     0.426764    13App    0.427063
      22Ap     0.468506    23Ap     0.497244    14App    0.498050
      15App    0.513908    24Ap     0.556328    25Ap     0.584126
      16App    0.584585    26Ap     0.597777    17App    0.597855
      27Ap     0.609994    28Ap     0.628149    18App    0.631926
      19App    0.639295    29Ap     0.639773    30Ap     0.666732
      20App    0.667220    31Ap     0.686192    21App    0.686788
      32Ap     0.757516    33Ap     0.829739    22App    0.831399
      23App    0.855268    34Ap     0.922735    24App    0.923262
      25App    0.945908    35Ap     0.953435    26App    0.966362
      36Ap     0.967038    37Ap     1.008708    38Ap     1.130982
      27App    1.133318    39Ap     1.155585    40Ap     1.167818
      28App    1.168866    41Ap     1.232302    42Ap     1.279572
      29App    1.280620    43Ap     1.285104    30App    1.329238
      44Ap     1.329451    45Ap     1.365409    46Ap     1.370479
      31App    1.372051    32App    1.393504    47Ap     1.406763
      33App    1.408347    48Ap     1.421678    34App    1.422647
      35App    1.428200    36App    1.492488    49Ap     1.509506
      50Ap     1.546753    37App    1.547723    51Ap     1.580620
      38App    1.584127    52Ap     1.674666    53Ap     1.744093
      39App    1.746234    54Ap     1.779123    55Ap     1.834728
      40App    1.835785    41App    1.972586    56Ap     2.023937
      42App    2.026950    57Ap     2.039637    58Ap     2.056942
      43App    2.061867    59Ap     2.746510    44App    2.747131
      45App    2.811852    60Ap     2.816056    46App    2.902580
      61Ap     2.902696    62Ap     2.924650    63Ap     2.931887
      47App    2.932063    48App    2.960056    64Ap     2.968046
      49App    2.969817    65Ap     3.041946    66Ap     3.080100
      50App    3.082100    51App    3.086369    67Ap     3.183863
      52App    3.185231    68Ap     3.188239    53App    3.289466
      69Ap     3.290750    70Ap     3.330008    54App    3.331937
      71Ap     3.383481    72Ap     3.492408    55App    3.493298
      56App    3.512411    73Ap     3.528356    57App    3.574804
      74Ap     3.580648    58App    3.583094    75Ap     3.670988
      59App    3.671287    76Ap     3.692951    60App    3.725344
      77Ap     3.726125    61App    3.780516    78Ap     3.782126
      79Ap     3.817758    80Ap     3.920618    62App    3.923470
      81Ap     4.045363    82Ap     4.116839    63App    4.119558
      83Ap     4.153713    64App    4.156916    84Ap     4.187292
      85Ap     4.207322    65App    4.210559    86Ap     4.210647
      66App    4.215499    67App    4.323356    87Ap     4.323422
      68App    4.362361    88Ap     4.432551    69App    4.432625
      70App    4.446473    89Ap     4.523872    71App    4.525407
      90Ap     4.587719    72App    4.590023    91Ap     4.624727
      92Ap     4.719783    93Ap     4.780235    73App    4.782863
      74App    4.839859    94Ap     4.967654    95Ap     5.006026
      75App    5.007970    96Ap     5.233738    76App    5.248435
      97Ap     5.248777    98Ap     5.361259    77App    5.362702
      78App    5.481651

    Final Occupation by Irrep:
             Ap   App
    DOCC [    10,    6 ]
    SOCC [     1,    0 ]

  @DF-UKS Final Energy:  -157.81306523030719

   => Energetics <=

    Nuclear Repulsion Energy =            125.3948322490779503
    One-Electron Energy =                -458.7493205391605215
    Two-Electron Energy =                 195.8485679272367008
    DFT Exchange-Correlation Energy =     -20.3071448674612789
    Empirical Dispersion Energy =           0.0000000000000000
    VV10 Nonlocal Energy =                  0.0000000000000000
    Total Energy =                       -157.8130652303071884

  UHF NO Occupations:
  HONO-2 :    9 Ap 1.9996009
  HONO-1 :   10 Ap 1.9989804
  HONO-0 :   11 Ap 1.0000000
  LUNO+0 :   12 Ap 0.0010196
  LUNO+1 :   13 Ap 0.0003991
  LUNO+2 :    7App 0.0001979
  LUNO+3 :   14 Ap 0.0001972

Computation Completed

Properties will be evaluated at   0.000000,   0.000000,   0.000000 [a0]

Properties computed using the SCF density matrix

  Nuclear Dipole Moment: [e a0]
     X:     0.8272      Y:    -0.0102      Z:     0.0000

  Electronic Dipole Moment: [e a0]
     X:    -0.7493      Y:     0.0110      Z:     0.0000

  Dipole Moment: [e a0]
     X:     0.0779      Y:     0.0008      Z:     0.0000     Total:     0.0779

  Dipole Moment: [D]
     X:     0.1980      Y:     0.0019      Z:     0.0000     Total:     0.1980

*** tstop() called on n058 at Fri Nov  5 15:51:36 2021
Module time:
	user time   =     538.94 seconds =       8.98 minutes
	system time =      11.80 seconds =       0.20 minutes
	total time  =        139 seconds =       2.32 minutes
Total time:
	user time   =     538.94 seconds =       8.98 minutes
	system time =      11.80 seconds =       0.20 minutes
	total time  =        139 seconds =       2.32 minutes
Grab this energy -157.8130652303072
    Psi4 stopped on: Friday, 05 November 2021 03:51PM
    Psi4 wall time for execution: 0:02:18.53

*** Psi4 exiting successfully. Buy a developer a beer!
