                               Psi4 1.4a2.dev629

  ==> Input File <==

--------------------------------------------------------------------------
import os
memory 14 GB

molecule {
 C   -0.3215615051    0.0004946247    0.0000000000
 C    0.0623858522   -1.4004377642   -2.4262818012
 C    0.0602028011    2.8015969333    0.0000000000
 C    0.0623858522   -1.4004377642    2.4262818012
 H    2.0845392567   -1.6470957777   -2.8529470644
 H   -0.7638201999   -0.3847852316   -4.0232488108
 H   -0.7660624884   -3.2926395221   -2.3453237763
 H    2.0905897792    3.2936555758    0.0000000000
 H   -0.7679618965    3.6770725719    1.6739341848
 H   -0.7679618965    3.6770725719   -1.6739341848
 H    2.0845392567   -1.6470957777    2.8529470644
 H   -0.7660624884   -3.2926395221    2.3453237763
 H   -0.7638201999   -0.3847852316    4.0232488108
units bohr
0 2
}

basis {

assign 6-31g_2dfp_

[ 6-31g_2dfp_ ]

spherical

!----------------------------------------------------------------------
! Basis Set Exchange
! Version v0.8.13
! https://www.basissetexchange.org
!----------------------------------------------------------------------
!   Basis set: 6-31G(2df,p)
! Description: 6-31G(2df,p)
!        Role: orbital
!     Version: 0  (Data from the original Basis Set Exchange)
!----------------------------------------------------------------------

****
H     0
S    3   1.00
     18.7311370              0.03349460
      2.8253937              0.23472695
      0.6401217              0.81375733
S    1   1.00
      0.1612778              1.00000000
P    1   1.00
      1.5000000              1.0000000
P    1   1.00
      0.3750000              1.0000000
****
B     0
S    6   1.00
   2068.8823000              0.0018663
    310.6495700              0.0142515
     70.6830330              0.0695516
     19.8610800              0.2325729
      6.2993048              0.4670787
      2.1270270              0.3634314
SP   3   1.00
      4.7279710             -0.1303938              0.0745976
      1.1903377             -0.1307889              0.3078467
      0.3594117              1.1309444              0.7434568
SP   1   1.00
      0.1267512              1.0000000              1.0000000
D    1   1.00
      0.8020000              1.0000000
D    1   1.00
      0.2005000              1.0000000
F    1   1.00
      0.5000000              1.0000000
****
C     0
S    6   1.00
   3047.5249000              0.0018347
    457.3695100              0.0140373
    103.9486900              0.0688426
     29.2101550              0.2321844
      9.2866630              0.4679413
      3.1639270              0.3623120
SP   3   1.00
      7.8682724             -0.1193324              0.0689991
      1.8812885             -0.1608542              0.3164240
      0.5442493              1.1434564              0.7443083
SP   1   1.00
      0.1687144              1.0000000              1.0000000
D    1   1.00
      1.2520000              1.0000000
D    1   1.00
      0.3130000              1.0000000
F    1   1.00
      0.8000000              1.0000000
****
N     0
S    6   1.00
   4173.5110000              0.0018348
    627.4579000              0.0139950
    142.9021000              0.0685870
     40.2343300              0.2322410
     12.8202100              0.4690700
      4.3904370              0.3604550
SP   3   1.00
     11.6263580             -0.1149610              0.0675800
      2.7162800             -0.1691180              0.3239070
      0.7722180              1.1458520              0.7408950
SP   1   1.00
      0.2120313              1.0000000              1.0000000
D    1   1.00
      1.8260000              1.0000000
D    1   1.00
      0.4565000              1.0000000
F    1   1.00
      1.0000000              1.0000000
****
O     0
S    6   1.00
   5484.6717000              0.0018311
    825.2349500              0.0139501
    188.0469600              0.0684451
     52.9645000              0.2327143
     16.8975700              0.4701930
      5.7996353              0.3585209
SP   3   1.00
     15.5396160             -0.1107775              0.0708743
      3.5999336             -0.1480263              0.3397528
      1.0137618              1.1307670              0.7271586
SP   1   1.00
      0.2700058              1.0000000              1.0000000
D    1   1.00
      2.5840000              1.0000000
D    1   1.00
      0.6460000              1.0000000
F    1   1.00
      1.4000000              1.0000000
****
F     0
S    6   1.00
   7001.7130900              0.0018196169
   1051.3660900              0.0139160796
    239.2856900              0.0684053245
     67.3974453              0.233185760
     21.5199573              0.471267439
      7.40310130             0.356618546
SP   3   1.00
     20.8479528             -0.108506975            0.0716287243
      4.80830834            -0.146451658            0.3459121030
      1.34406986             1.128688580            0.7224699570
SP   1   1.00
      0.358151393            1.0000000              1.0000000
D    1   1.00
      3.5000000              1.0000000
D    1   1.00
      0.8750000              1.0000000
F    1   1.00
      1.8500000              1.0000000
****
Al     0
S    6   1.00
  13983.1000000              0.00194267
   2098.7500000              0.0148599
    477.7050000              0.0728494
    134.3600000              0.2468300
     42.8709000              0.4872580
     14.5189000              0.3234960
SP   6   1.00
    239.6680000             -0.00292619             0.00460285
     57.4419000             -0.0374080              0.0331990
     18.2859000             -0.1144870              0.1362820
      6.5991400              0.1156350              0.3304760
      2.4904900              0.6125950              0.4491460
      0.9445400              0.3937990              0.2657040
SP   3   1.00
      1.2779000             -0.2276060             -0.0175130
      0.3975900              0.00144583             0.2445330
      0.1600950              1.0927900              0.8049340
SP   1   1.00
      0.0556577              1.0000000              1.0000000
D    1   1.00
      0.6500000              1.0000000
D    1   1.00
      0.1625000              1.0000000
F    1   1.00
      0.2500000              1.0000000
****
Si     0
S    6   1.00
  16115.9000000              0.00195948
   2425.5800000              0.01492880
    553.8670000              0.07284780
    156.3400000              0.24613000
     50.0683000              0.48591400
     17.0178000              0.32500200
SP   6   1.00
    292.7180000             -0.00278094             0.00443826
     69.8731000             -0.03571460             0.03266790
     22.3363000             -0.11498500             0.13472100
      8.1503900              0.09356340             0.32867800
      3.1345800              0.60301700             0.44964000
      1.2254300              0.41895900             0.26137200
SP   3   1.00
      1.7273800             -0.24463000            -0.01779510
      0.5729220              0.00431572             0.25353900
      0.2221920              1.09818000             0.80066900
SP   1   1.00
      0.0778369              1.00000000             1.00000000
D    1   1.00
      0.9000000              1.0000000
D    1   1.00
      0.2250000              1.0000000
F    1   1.00
      0.3200000              1.0000000
****
P     0
S    6   1.00
  19413.3000000              0.0018516
   2909.4200000              0.0142062
    661.3640000              0.0699995
    185.7590000              0.2400790
     59.1943000              0.4847620
     20.0310000              0.3352000
SP   6   1.00
    339.4780000             -0.00278217             0.00456462
     81.0101000             -0.0360499              0.03369360
     25.8780000             -0.1166310              0.13975500
      9.4522100              0.0968328              0.33936200
      3.6656600              0.6144180              0.45092100
      1.4674600              0.4037980              0.23858600
SP   3   1.00
      2.1562300             -0.2529230             -0.01776530
      0.7489970              0.0328517              0.27405800
      0.2831450              1.0812500              0.78542100
SP   1   1.00
      0.0998317              1.0000000              1.00000000
D    1   1.00
      1.1000000              1.0000000
D    1   1.00
      0.2750000              1.0000000
F    1   1.00
      0.4500000              1.0000000
****
S     0
S    6   1.00
  21917.1000000              0.0018690
   3301.4900000              0.0142300
    754.1460000              0.0696960
    212.7110000              0.2384870
     67.9896000              0.4833070
     23.0515000              0.3380740
SP   6   1.00
    423.7350000             -0.0023767              0.0040610
    100.7100000             -0.0316930              0.0306810
     32.1599000             -0.1133170              0.1304520
     11.8079000              0.0560900              0.3272050
      4.6311000              0.5922550              0.4528510
      1.8702500              0.4550060              0.2560420
SP   3   1.00
      2.6158400             -0.2503740             -0.0145110
      0.9221670              0.0669570              0.3102630
      0.3412870              1.0545100              0.7544830
SP   1   1.00
      0.1171670              1.0000000              1.0000000
D    1   1.00
      1.3000000              1.0000000
D    1   1.00
      0.3250000              1.0000000
F    1   1.00
      0.5500000              1.0000000
****
Cl     0
S    6   1.00
  25180.1000000              0.0018330
   3780.3500000              0.0140340
    860.4740000              0.0690970
    242.1450000              0.2374520
     77.3349000              0.4830340
     26.2470000              0.3398560
SP   6   1.00
    491.7650000             -0.0022974              0.0039894
    116.9840000             -0.0307140              0.0303180
     37.4153000             -0.1125280              0.1298800
     13.7834000              0.0450160              0.3279510
      5.4521500              0.5893530              0.4535270
      2.2258800              0.4652060              0.2521540
SP   3   1.00
      3.1864900             -0.2518300             -0.0142990
      1.1442700              0.0615890              0.3235720
      0.4203770              1.0601800              0.7435070
SP   1   1.00
      0.1426570              1.0000000              1.0000000
D    1   1.00
      1.5000000              1.0000000
D    1   1.00
      0.3750000              1.0000000
F    1   1.00
      0.7000000              1.0000000
****
}

set {
reference uhf
freeze_core true
e_convergence 10
d_convergence 10
dft_spherical_points 1202
dft_radial_points 99
}

e = energy('b3lyp')

print_out('Grab this energy {0}'.format(e))
--------------------------------------------------------------------------

    Molecular point group: cs

    Geometry (in Bohr), charge = 0, multiplicity = 2:

       Center              X                  Y                   Z               Mass
    ------------   -----------------  -----------------  -----------------  -----------------
         C           -0.322226574930     0.000260838002     0.000000000000    12.000000000000
         C            0.061720782370    -1.400671550898    -2.426281801200    12.000000000000
         C            0.059537731270     2.801363146602     0.000000000000    12.000000000000
         C            0.061720782370    -1.400671550898     2.426281801200    12.000000000000
         H            2.083874186870    -1.647329564398    -2.852947064400     1.007825032230
         H           -0.764485269730    -0.385019018298    -4.023248810800     1.007825032230
         H           -0.766727558230    -3.292873308798    -2.345323776300     1.007825032230
         H            2.089924709370     3.293421789102     0.000000000000     1.007825032230
         H           -0.768626966330     3.676838785202     1.673934184800     1.007825032230
         H           -0.768626966330     3.676838785202    -1.673934184800     1.007825032230
         H            2.083874186870    -1.647329564398     2.852947064400     1.007825032230
         H           -0.766727558230    -3.292873308798     2.345323776300     1.007825032230
         H           -0.764485269730    -0.385019018298     4.023248810800     1.007825032230

  Charge       = 0
  Multiplicity = 2
  Basis Set: ANONYMOUS046E62DE
    Blend: 6-31G_2DFP_
  Basis Set: (ANONYMOUS046E62DE AUX)
    Blend: DEF2-UNIVERSAL-JKFIT

    Orbital Energies [Eh]
    ---------------------

    Alpha Occupied:

       1Ap   -10.180330     2Ap   -10.167001     1App  -10.166971
       3Ap   -10.166933     4Ap    -0.797831     5Ap    -0.686225
       2App   -0.686225     6Ap    -0.530790     7Ap    -0.440956
       3App   -0.434906     8Ap    -0.434857     4App   -0.382470
       9Ap    -0.382423     5App   -0.363749    10Ap    -0.338054
       6App   -0.337987    11Ap    -0.169051

    Alpha Virtual:

      12Ap     0.076107    13Ap     0.133937     7App    0.134274
      14Ap     0.142629     8App    0.142759    15Ap     0.155086
      16Ap     0.178662     9App    0.178825    17Ap     0.203680
      10App    0.215024    11App    0.275949    18Ap     0.276101
      12App    0.399424    19Ap     0.399487    20Ap     0.403268
      21Ap     0.423860    13App    0.424030    22Ap     0.456828
      14App    0.495221    23Ap     0.495507    15App    0.511973
      24Ap     0.514039    25Ap     0.578774    16App    0.579150
      26Ap     0.591304    17App    0.591591    27Ap     0.602349
      28Ap     0.624825    18App    0.632007    29Ap     0.636233
      19App    0.636462    30Ap     0.663329    20App    0.664062
      21App    0.683594    31Ap     0.683945    32Ap     0.735078
      22App    0.825279    33Ap     0.825324    23App    0.854266
      34Ap     0.914961    24App    0.915386    35Ap     0.943812
      25App    0.944350    36Ap     0.960893    26App    0.961133
      37Ap     1.004177    38Ap     1.128512    27App    1.128621
      39Ap     1.141608    40Ap     1.163694    28App    1.163947
      41Ap     1.223257    42Ap     1.274302    29App    1.274611
      43Ap     1.279599    44Ap     1.324586    30App    1.324667
      45Ap     1.355545    46Ap     1.366352    31App    1.366408
      32App    1.392258    47Ap     1.403308    33App    1.404237
      34App    1.416427    48Ap     1.417524    35App    1.428525
      36App    1.492089    49Ap     1.498760    50Ap     1.542443
      37App    1.543361    38App    1.573680    51Ap     1.573983
      52Ap     1.669888    53Ap     1.739084    39App    1.739445
      54Ap     1.768208    40App    1.830868    55Ap     1.832483
      41App    1.971819    56Ap     2.017971    57Ap     2.019568
      42App    2.020349    58Ap     2.052190    43App    2.054060
      59Ap     2.737664    44App    2.738480    60Ap     2.791153
      45App    2.811941    61Ap     2.890091    46App    2.890108
      62Ap     2.895218    63Ap     2.929933    47App    2.929970
      48App    2.959060    64Ap     2.964096    49App    2.964766
      65Ap     3.034484    66Ap     3.070793    50App    3.070804
      51App    3.084016    52App    3.168503    67Ap     3.168924
      68Ap     3.180763    53App    3.284590    69Ap     3.285240
      54App    3.328062    70Ap     3.328464    71Ap     3.375333
      55App    3.489495    72Ap     3.489843    56App    3.514231
      73Ap     3.525490    57App    3.568805    74Ap     3.569049
      58App    3.576024    75Ap     3.665607    59App    3.667073
      76Ap     3.680728    60App    3.693432    77Ap     3.693787
      78Ap     3.777953    61App    3.777966    79Ap     3.787817
      62App    3.912239    80Ap     3.912440    81Ap     4.033332
      82Ap     4.111007    63App    4.111934    64App    4.147297
      83Ap     4.148446    84Ap     4.173164    85Ap     4.202072
      65App    4.202983    86Ap     4.204901    66App    4.211411
      87Ap     4.315438    67App    4.317198    68App    4.360122
      69App    4.423646    88Ap     4.424273    70App    4.444440
      89Ap     4.516967    71App    4.518364    72App    4.579137
      90Ap     4.579363    91Ap     4.618033    92Ap     4.709774
      93Ap     4.774503    73App    4.775404    74App    4.835890
      94Ap     4.963386    95Ap     5.002091    75App    5.003578
      96Ap     5.228373    97Ap     5.244683    76App    5.248800
      98Ap     5.354925    77App    5.357298    78App    5.479635

    Beta Occupied:

       1Ap   -10.167760     1App  -10.167724     2Ap   -10.167705
       3Ap   -10.166512     4Ap    -0.781160     5Ap    -0.684031
       2App   -0.684021     6Ap    -0.511758     3App   -0.431262
       7Ap    -0.431231     8Ap    -0.421655     4App   -0.376566
       9Ap    -0.376475     5App   -0.362727    10Ap    -0.333174
       6App   -0.333122

    Beta Virtual:

      11Ap    -0.025909    12Ap     0.077112    13Ap     0.134854
       7App    0.135168    14Ap     0.144536     8App    0.144614
      15Ap     0.163593    16Ap     0.182308     9App    0.182508
      10App    0.215256    17Ap     0.219023    11App    0.282282
      18Ap     0.282441    12App    0.400599    19Ap     0.400660
      20Ap     0.419736    21Ap     0.426667    13App    0.426835
      22Ap     0.468815    14App    0.497489    23Ap     0.497791
      15App    0.513713    24Ap     0.556297    25Ap     0.584363
      16App    0.584706    26Ap     0.597434    17App    0.597767
      27Ap     0.609789    28Ap     0.628205    18App    0.632177
      29Ap     0.639512    19App    0.639732    30Ap     0.666948
      20App    0.667618    21App    0.686229    31Ap     0.686543
      32Ap     0.757565    22App    0.830460    33Ap     0.830510
      23App    0.855623    34Ap     0.922993    24App    0.923388
      25App    0.946186    35Ap     0.952822    36Ap     0.966143
      26App    0.966441    37Ap     1.009446    27App    1.132592
      38Ap     1.132601    39Ap     1.154770    40Ap     1.168727
      28App    1.169047    41Ap     1.232327    42Ap     1.279903
      29App    1.280239    43Ap     1.285423    44Ap     1.329617
      30App    1.329694    45Ap     1.364896    31App    1.371594
      46Ap     1.371639    32App    1.393332    47Ap     1.406746
      33App    1.407760    34App    1.421406    48Ap     1.422542
      35App    1.428797    36App    1.493126    49Ap     1.509180
      50Ap     1.546859    37App    1.547747    38App    1.581577
      51Ap     1.581852    52Ap     1.674738    53Ap     1.744855
      39App    1.745207    54Ap     1.778996    40App    1.834713
      55Ap     1.836344    41App    1.972687    56Ap     2.025841
      42App    2.026817    57Ap     2.039477    58Ap     2.058940
      43App    2.060716    59Ap     2.746020    44App    2.746817
      45App    2.812357    60Ap     2.816292    46App    2.902678
      61Ap     2.902785    62Ap     2.924889    63Ap     2.932398
      47App    2.932494    48App    2.960125    64Ap     2.968670
      49App    2.969362    65Ap     3.042409    66Ap     3.080598
      50App    3.080774    51App    3.085854    52App    3.184139
      67Ap     3.184761    68Ap     3.188473    53App    3.289354
      69Ap     3.290025    54App    3.331818    70Ap     3.332269
      71Ap     3.383124    55App    3.492331    72Ap     3.492602
      56App    3.512604    73Ap     3.528500    57App    3.575847
      58App    3.582060    74Ap     3.582373    75Ap     3.670223
      59App    3.671778    76Ap     3.693970    60App    3.725216
      77Ap     3.725576    78Ap     3.782483    61App    3.782625
      79Ap     3.816380    62App    3.921986    80Ap     3.922230
      81Ap     4.044272    82Ap     4.117934    63App    4.118820
      64App    4.154477    83Ap     4.155530    84Ap     4.187182
      65App    4.208834    85Ap     4.209708    86Ap     4.211241
      66App    4.215914    87Ap     4.322892    67App    4.324656
      68App    4.363506    69App    4.431864    88Ap     4.432496
      70App    4.447298    89Ap     4.524742    71App    4.526144
      72App    4.589749    90Ap     4.589996    91Ap     4.625151
      92Ap     4.720224    93Ap     4.781442    73App    4.782344
      74App    4.838810    94Ap     4.968178    95Ap     5.006166
      75App    5.007614    96Ap     5.234072    97Ap     5.246484
      76App    5.250577    98Ap     5.361397    77App    5.363790
      78App    5.481962

    Final Occupation by Irrep:
             Ap   App
    DOCC [    10,    6 ]
    SOCC [     1,    0 ]

  @DF-UKS Final Energy:  -157.81306811498433

   => Energetics <=

    Nuclear Repulsion Energy =            125.4062477266017481
    One-Electron Energy =                -458.7715854987929447
    Two-Electron Energy =                 195.8597588241674146
    DFT Exchange-Correlation Energy =     -20.3074891669605648
    Empirical Dispersion Energy =           0.0000000000000000
    VV10 Nonlocal Energy =                  0.0000000000000000
    Total Energy =                       -157.8130681149843326

  UHF NO Occupations:
  HONO-2 :    9 Ap 1.9995995
  HONO-1 :   10 Ap 1.9989824
  HONO-0 :   11 Ap 1.0000000
  LUNO+0 :   12 Ap 0.0010176
  LUNO+1 :   13 Ap 0.0004005
  LUNO+2 :   14 Ap 0.0001972
  LUNO+3 :    7App 0.0001972

Computation Completed

Properties will be evaluated at   0.000000,   0.000000,   0.000000 [a0]

Properties computed using the SCF density matrix

  Nuclear Dipole Moment: [e a0]
     X:     0.8225      Y:    -0.0017      Z:     0.0000

  Electronic Dipole Moment: [e a0]
     X:    -0.7450      Y:     0.0023      Z:     0.0000

  Dipole Moment: [e a0]
     X:     0.0775      Y:     0.0006      Z:     0.0000     Total:     0.0775

  Dipole Moment: [D]
     X:     0.1970      Y:     0.0016      Z:     0.0000     Total:     0.1970

*** tstop() called on n089 at Fri Nov  5 14:19:00 2021
Module time:
	user time   =     581.61 seconds =       9.69 minutes
	system time =       5.28 seconds =       0.09 minutes
	total time  =        148 seconds =       2.47 minutes
Total time:
	user time   =     581.61 seconds =       9.69 minutes
	system time =       5.28 seconds =       0.09 minutes
	total time  =        148 seconds =       2.47 minutes
Grab this energy -157.81306811498433
    Psi4 stopped on: Friday, 05 November 2021 02:19PM
    Psi4 wall time for execution: 0:02:27.54

*** Psi4 exiting successfully. Buy a developer a beer!
