                               Psi4 1.4a2.dev629

  ==> Input File <==

--------------------------------------------------------------------------
import os
memory 14 GB

molecule {
 C   -0.3233404010   -0.0000025084   -0.0002565754
 C    0.0593651272   -1.4012141273   -2.4261943769
 C    0.0610201958    2.8017590137    0.0007680484
 C    0.0629163469   -1.4005416320    2.4265661454
 H    2.0871134933   -1.6439918997   -2.8474947630
 H   -0.7647824606   -0.3879876747   -4.0256026166
 H   -0.7650820898   -3.2921014345   -2.3489669707
 H    2.0867987811    3.2881020428   -0.0002353252
 H   -0.7657827073    3.6802979318    1.6763350435
 H   -0.7655101379    3.6802088335   -1.6766664403
 H    2.0867636498   -1.6442013986    2.8473867137
 H   -0.7660573003   -3.2918958968    2.3490056679
 H   -0.7660303740   -0.3884555633    4.0253554492
units bohr
0 2
}

basis {

assign 6-31g_2dfp_

[ 6-31g_2dfp_ ]

spherical

!----------------------------------------------------------------------
! Basis Set Exchange
! Version v0.8.13
! https://www.basissetexchange.org
!----------------------------------------------------------------------
!   Basis set: 6-31G(2df,p)
! Description: 6-31G(2df,p)
!        Role: orbital
!     Version: 0  (Data from the original Basis Set Exchange)
!----------------------------------------------------------------------

****
H     0
S    3   1.00
     18.7311370              0.03349460
      2.8253937              0.23472695
      0.6401217              0.81375733
S    1   1.00
      0.1612778              1.00000000
P    1   1.00
      1.5000000              1.0000000
P    1   1.00
      0.3750000              1.0000000
****
B     0
S    6   1.00
   2068.8823000              0.0018663
    310.6495700              0.0142515
     70.6830330              0.0695516
     19.8610800              0.2325729
      6.2993048              0.4670787
      2.1270270              0.3634314
SP   3   1.00
      4.7279710             -0.1303938              0.0745976
      1.1903377             -0.1307889              0.3078467
      0.3594117              1.1309444              0.7434568
SP   1   1.00
      0.1267512              1.0000000              1.0000000
D    1   1.00
      0.8020000              1.0000000
D    1   1.00
      0.2005000              1.0000000
F    1   1.00
      0.5000000              1.0000000
****
C     0
S    6   1.00
   3047.5249000              0.0018347
    457.3695100              0.0140373
    103.9486900              0.0688426
     29.2101550              0.2321844
      9.2866630              0.4679413
      3.1639270              0.3623120
SP   3   1.00
      7.8682724             -0.1193324              0.0689991
      1.8812885             -0.1608542              0.3164240
      0.5442493              1.1434564              0.7443083
SP   1   1.00
      0.1687144              1.0000000              1.0000000
D    1   1.00
      1.2520000              1.0000000
D    1   1.00
      0.3130000              1.0000000
F    1   1.00
      0.8000000              1.0000000
****
N     0
S    6   1.00
   4173.5110000              0.0018348
    627.4579000              0.0139950
    142.9021000              0.0685870
     40.2343300              0.2322410
     12.8202100              0.4690700
      4.3904370              0.3604550
SP   3   1.00
     11.6263580             -0.1149610              0.0675800
      2.7162800             -0.1691180              0.3239070
      0.7722180              1.1458520              0.7408950
SP   1   1.00
      0.2120313              1.0000000              1.0000000
D    1   1.00
      1.8260000              1.0000000
D    1   1.00
      0.4565000              1.0000000
F    1   1.00
      1.0000000              1.0000000
****
O     0
S    6   1.00
   5484.6717000              0.0018311
    825.2349500              0.0139501
    188.0469600              0.0684451
     52.9645000              0.2327143
     16.8975700              0.4701930
      5.7996353              0.3585209
SP   3   1.00
     15.5396160             -0.1107775              0.0708743
      3.5999336             -0.1480263              0.3397528
      1.0137618              1.1307670              0.7271586
SP   1   1.00
      0.2700058              1.0000000              1.0000000
D    1   1.00
      2.5840000              1.0000000
D    1   1.00
      0.6460000              1.0000000
F    1   1.00
      1.4000000              1.0000000
****
F     0
S    6   1.00
   7001.7130900              0.0018196169
   1051.3660900              0.0139160796
    239.2856900              0.0684053245
     67.3974453              0.233185760
     21.5199573              0.471267439
      7.40310130             0.356618546
SP   3   1.00
     20.8479528             -0.108506975            0.0716287243
      4.80830834            -0.146451658            0.3459121030
      1.34406986             1.128688580            0.7224699570
SP   1   1.00
      0.358151393            1.0000000              1.0000000
D    1   1.00
      3.5000000              1.0000000
D    1   1.00
      0.8750000              1.0000000
F    1   1.00
      1.8500000              1.0000000
****
Al     0
S    6   1.00
  13983.1000000              0.00194267
   2098.7500000              0.0148599
    477.7050000              0.0728494
    134.3600000              0.2468300
     42.8709000              0.4872580
     14.5189000              0.3234960
SP   6   1.00
    239.6680000             -0.00292619             0.00460285
     57.4419000             -0.0374080              0.0331990
     18.2859000             -0.1144870              0.1362820
      6.5991400              0.1156350              0.3304760
      2.4904900              0.6125950              0.4491460
      0.9445400              0.3937990              0.2657040
SP   3   1.00
      1.2779000             -0.2276060             -0.0175130
      0.3975900              0.00144583             0.2445330
      0.1600950              1.0927900              0.8049340
SP   1   1.00
      0.0556577              1.0000000              1.0000000
D    1   1.00
      0.6500000              1.0000000
D    1   1.00
      0.1625000              1.0000000
F    1   1.00
      0.2500000              1.0000000
****
Si     0
S    6   1.00
  16115.9000000              0.00195948
   2425.5800000              0.01492880
    553.8670000              0.07284780
    156.3400000              0.24613000
     50.0683000              0.48591400
     17.0178000              0.32500200
SP   6   1.00
    292.7180000             -0.00278094             0.00443826
     69.8731000             -0.03571460             0.03266790
     22.3363000             -0.11498500             0.13472100
      8.1503900              0.09356340             0.32867800
      3.1345800              0.60301700             0.44964000
      1.2254300              0.41895900             0.26137200
SP   3   1.00
      1.7273800             -0.24463000            -0.01779510
      0.5729220              0.00431572             0.25353900
      0.2221920              1.09818000             0.80066900
SP   1   1.00
      0.0778369              1.00000000             1.00000000
D    1   1.00
      0.9000000              1.0000000
D    1   1.00
      0.2250000              1.0000000
F    1   1.00
      0.3200000              1.0000000
****
P     0
S    6   1.00
  19413.3000000              0.0018516
   2909.4200000              0.0142062
    661.3640000              0.0699995
    185.7590000              0.2400790
     59.1943000              0.4847620
     20.0310000              0.3352000
SP   6   1.00
    339.4780000             -0.00278217             0.00456462
     81.0101000             -0.0360499              0.03369360
     25.8780000             -0.1166310              0.13975500
      9.4522100              0.0968328              0.33936200
      3.6656600              0.6144180              0.45092100
      1.4674600              0.4037980              0.23858600
SP   3   1.00
      2.1562300             -0.2529230             -0.01776530
      0.7489970              0.0328517              0.27405800
      0.2831450              1.0812500              0.78542100
SP   1   1.00
      0.0998317              1.0000000              1.00000000
D    1   1.00
      1.1000000              1.0000000
D    1   1.00
      0.2750000              1.0000000
F    1   1.00
      0.4500000              1.0000000
****
S     0
S    6   1.00
  21917.1000000              0.0018690
   3301.4900000              0.0142300
    754.1460000              0.0696960
    212.7110000              0.2384870
     67.9896000              0.4833070
     23.0515000              0.3380740
SP   6   1.00
    423.7350000             -0.0023767              0.0040610
    100.7100000             -0.0316930              0.0306810
     32.1599000             -0.1133170              0.1304520
     11.8079000              0.0560900              0.3272050
      4.6311000              0.5922550              0.4528510
      1.8702500              0.4550060              0.2560420
SP   3   1.00
      2.6158400             -0.2503740             -0.0145110
      0.9221670              0.0669570              0.3102630
      0.3412870              1.0545100              0.7544830
SP   1   1.00
      0.1171670              1.0000000              1.0000000
D    1   1.00
      1.3000000              1.0000000
D    1   1.00
      0.3250000              1.0000000
F    1   1.00
      0.5500000              1.0000000
****
Cl     0
S    6   1.00
  25180.1000000              0.0018330
   3780.3500000              0.0140340
    860.4740000              0.0690970
    242.1450000              0.2374520
     77.3349000              0.4830340
     26.2470000              0.3398560
SP   6   1.00
    491.7650000             -0.0022974              0.0039894
    116.9840000             -0.0307140              0.0303180
     37.4153000             -0.1125280              0.1298800
     13.7834000              0.0450160              0.3279510
      5.4521500              0.5893530              0.4535270
      2.2258800              0.4652060              0.2521540
SP   3   1.00
      3.1864900             -0.2518300             -0.0142990
      1.1442700              0.0615890              0.3235720
      0.4203770              1.0601800              0.7435070
SP   1   1.00
      0.1426570              1.0000000              1.0000000
D    1   1.00
      1.5000000              1.0000000
D    1   1.00
      0.3750000              1.0000000
F    1   1.00
      0.7000000              1.0000000
****
}

set {
reference uhf
freeze_core true
e_convergence 10
d_convergence 10
dft_spherical_points 1202
dft_radial_points 99
}

e = energy('b3lyp')

print_out('Grab this energy {0}'.format(e))
--------------------------------------------------------------------------

    Molecular point group: c1

    Geometry (in Bohr), charge = 0, multiplicity = 2:

       Center              X                  Y                   Z               Mass
    ------------   -----------------  -----------------  -----------------  -----------------
         C           -0.323340642478    -0.000002222725    -0.000426694075    12.000000000000
         C            0.059364885722    -1.401213841625    -2.426364495575    12.000000000000
         C            0.061019954322     2.801759299375     0.000597929725    12.000000000000
         C            0.062916105422    -1.400541346325     2.426396026725    12.000000000000
         H            2.087113251822    -1.643991614025    -2.847664881675     1.007825032230
         H           -0.764782702078    -0.387987389025    -4.025772735275     1.007825032230
         H           -0.765082331278    -3.292101148825    -2.349137089375     1.007825032230
         H            2.086798539622     3.288102328475    -0.000405443875     1.007825032230
         H           -0.765782948778     3.680298217475     1.676164924825     1.007825032230
         H           -0.765510379378     3.680209119175    -1.676836558975     1.007825032230
         H            2.086763408322    -1.644201112925     2.847216595025     1.007825032230
         H           -0.766057541778    -3.291895611125     2.348835549225     1.007825032230
         H           -0.766030615478    -0.388455277625     4.025185330525     1.007825032230

  Charge       = 0
  Multiplicity = 2
  Basis Set: ANONYMOUS07DC7014
    Blend: 6-31G_2DFP_
  Basis Set: (ANONYMOUS07DC7014 AUX)
    Blend: DEF2-UNIVERSAL-JKFIT

    Orbital Energies [Eh]
    ---------------------

    Alpha Occupied:

       1A    -10.180342     2A    -10.167051     3A    -10.167020
       4A    -10.166974     5A     -0.797765     6A     -0.686219
       7A     -0.686154     8A     -0.530776     9A     -0.441126
      10A     -0.434771    11A     -0.434569    12A     -0.382750
      13A     -0.382448    14A     -0.363612    15A     -0.338083
      16A     -0.337914    17A     -0.168961

    Alpha Virtual:

      18A      0.076072    19A      0.134123    20A      0.134189
      21A      0.142566    22A      0.142690    23A      0.154879
      24A      0.178665    25A      0.178892    26A      0.203547
      27A      0.214802    28A      0.275930    29A      0.276040
      30A      0.399070    31A      0.399385    32A      0.403347
      33A      0.424049    34A      0.424145    35A      0.456593
      36A      0.495361    37A      0.495418    38A      0.512160
      39A      0.513979    40A      0.578732    41A      0.578904
      42A      0.591513    43A      0.591753    44A      0.602572
      45A      0.624761    46A      0.631775    47A      0.636140
      48A      0.636354    49A      0.663243    50A      0.663582
      51A      0.683703    52A      0.684000    53A      0.734995
      54A      0.825394    55A      0.825421    56A      0.853916
      57A      0.915005    58A      0.915047    59A      0.944126
      60A      0.944614    61A      0.961213    62A      0.961369
      63A      1.003453    64A      1.128007    65A      1.128215
      66A      1.142219    67A      1.163173    68A      1.163366
      69A      1.223323    70A      1.274349    71A      1.274632
      72A      1.279357    73A      1.324103    74A      1.324611
      75A      1.355986    76A      1.365751    77A      1.366361
      78A      1.392454    79A      1.403935    80A      1.404175
      81A      1.416815    82A      1.417403    83A      1.427910
      84A      1.491493    85A      1.499079    86A      1.542783
      87A      1.542868    88A      1.574293    89A      1.574601
      90A      1.669826    91A      1.739011    92A      1.739823
      93A      1.768323    94A      1.831198    95A      1.831590
      96A      1.971728    97A      2.018169    98A      2.018537
      99A      2.019683   100A      2.052264   101A      2.053008
     102A      2.738445   103A      2.738524   104A      2.790924
     105A      2.811427   106A      2.889683   107A      2.890228
     108A      2.894942   109A      2.929465   110A      2.929527
     111A      2.958996   112A      2.964268   113A      2.964478
     114A      3.034008   115A      3.071161   116A      3.071400
     117A      3.084357   118A      3.168660   119A      3.168903
     120A      3.180584   121A      3.285281   122A      3.285349
     123A      3.327006   124A      3.327315   125A      3.375619
     126A      3.489854   127A      3.490474   128A      3.514018
     129A      3.525327   130A      3.568280   131A      3.568499
     132A      3.575140   133A      3.666099   134A      3.666691
     135A      3.679649   136A      3.694106   137A      3.694136
     138A      3.776757   139A      3.776849   140A      3.789116
     141A      3.912140   142A      3.912302   143A      4.034457
     144A      4.111285   145A      4.111465   146A      4.148070
     147A      4.148183   148A      4.173242   149A      4.202467
     150A      4.202982   151A      4.203336   152A      4.210847
     153A      4.315526   154A      4.316386   155A      4.358986
     156A      4.424333   157A      4.424578   158A      4.443418
     159A      4.515789   160A      4.517895   161A      4.578067
     162A      4.578487   163A      4.617531   164A      4.709445
     165A      4.774077   166A      4.775098   167A      4.836907
     168A      4.962862   169A      5.002490   170A      5.003396
     171A      5.228049   172A      5.246787   173A      5.246829
     174A      5.355238   175A      5.355772   176A      5.479349

    Beta Occupied:

       1A    -10.167807     2A    -10.167776     3A    -10.167741
       4A    -10.166519     5A     -0.781091     6A     -0.684022
       7A     -0.683956     8A     -0.511747     9A     -0.431148
      10A     -0.430936    11A     -0.421821    12A     -0.376843
      13A     -0.376525    14A     -0.362596    15A     -0.333208
      16A     -0.333036

    Beta Virtual:

      17A     -0.025742    18A      0.077081    19A      0.135021
      20A      0.135071    21A      0.144440    22A      0.144557
      23A      0.163338    24A      0.182334    25A      0.182565
      26A      0.215032    27A      0.218930    28A      0.282281
      29A      0.282385    30A      0.400239    31A      0.400557
      32A      0.419791    33A      0.426857    34A      0.426959
      35A      0.468500    36A      0.497625    37A      0.497675
      38A      0.513895    39A      0.556325    40A      0.584286
      41A      0.584449    42A      0.597688    43A      0.597937
      44A      0.609996    45A      0.628136    46A      0.631931
      47A      0.639425    48A      0.639640    49A      0.666823
      50A      0.667131    51A      0.686336    52A      0.686638
      53A      0.757518    54A      0.830564    55A      0.830587
      56A      0.855269    57A      0.922978    58A      0.923017
      59A      0.945963    60A      0.953543    61A      0.966512
      62A      0.966682    63A      1.008693    64A      1.131997
      65A      1.132281    66A      1.155599    67A      1.168293
      68A      1.168391    69A      1.232296    70A      1.279942
      71A      1.280235    72A      1.285109    73A      1.329082
      74A      1.329611    75A      1.365402    76A      1.370993
      77A      1.371605    78A      1.393512    79A      1.407387
      80A      1.407654    81A      1.421882    82A      1.422438
      83A      1.428178    84A      1.492541    85A      1.509522
      86A      1.547206    87A      1.547261    88A      1.582219
      89A      1.582420    90A      1.674673    91A      1.744780
      92A      1.745577    93A      1.779102    94A      1.835053
      95A      1.835446    96A      1.972588    97A      2.024808
      98A      2.026081    99A      2.039682   100A      2.059004
     101A      2.059696   102A      2.746785   103A      2.746855
     104A      2.811838   105A      2.816060   106A      2.902380
     107A      2.902908   108A      2.924652   109A      2.931946
     110A      2.932004   111A      2.960057   112A      2.968817
     113A      2.969018   114A      3.041944   115A      3.081073
     116A      3.081299   117A      3.086183   118A      3.184431
     119A      3.184631   120A      3.188269   121A      3.290089
     122A      3.290138   123A      3.330797   124A      3.331133
     125A      3.383438   126A      3.492585   127A      3.493203
     128A      3.512381   129A      3.528373   130A      3.574998
     131A      3.581683   132A      3.581778   133A      3.670902
     134A      3.671376   135A      3.692944   136A      3.725611
     137A      3.725903   138A      3.781293   139A      3.781363
     140A      3.817662   141A      3.921941   142A      3.922135
     143A      4.045344   144A      4.118154   145A      4.118227
     146A      4.155232   147A      4.155436   148A      4.187305
     149A      4.208803   150A      4.209159   151A      4.210669
     152A      4.215318   153A      4.322941   154A      4.323849
     155A      4.362351   156A      4.432559   157A      4.432782
     158A      4.446300   159A      4.523584   160A      4.525682
     161A      4.588684   162A      4.589075   163A      4.624723
     164A      4.719790   165A      4.781049   166A      4.782033
     167A      4.839824   168A      4.967657   169A      5.006546
     170A      5.007417   171A      5.233764   172A      5.248571
     173A      5.248614   174A      5.361720   175A      5.362251
     176A      5.481670

    Final Occupation by Irrep:
              A
    DOCC [    16 ]
    SOCC [     1 ]

  @DF-UKS Final Energy:  -157.81307213423781

   => Energetics <=

    Nuclear Repulsion Energy =            125.3945832454041067
    One-Electron Energy =                -458.7488396212983162
    Two-Electron Energy =                 195.8483259402979400
    DFT Exchange-Correlation Energy =     -20.3071416986415052
    Empirical Dispersion Energy =           0.0000000000000000
    VV10 Nonlocal Energy =                  0.0000000000000000
    Total Energy =                       -157.8130721342378138

  UHF NO Occupations:
  HONO-2 :   15  A 1.9996009
  HONO-1 :   16  A 1.9989805
  HONO-0 :   17  A 1.0000000
  LUNO+0 :   18  A 0.0010195
  LUNO+1 :   19  A 0.0003991
  LUNO+2 :   20  A 0.0001977
  LUNO+3 :   21  A 0.0001974

Computation Completed

Properties will be evaluated at   0.000000,   0.000000,   0.000000 [a0]

Properties computed using the SCF density matrix

  Nuclear Dipole Moment: [e a0]
     X:     0.8272      Y:    -0.0000      Z:    -0.0012

  Electronic Dipole Moment: [e a0]
     X:    -0.7493      Y:     0.0000      Z:     0.0011

  Dipole Moment: [e a0]
     X:     0.0779      Y:     0.0000      Z:    -0.0001     Total:     0.0779

  Dipole Moment: [D]
     X:     0.1980      Y:     0.0000      Z:    -0.0003     Total:     0.1980

*** tstop() called on n070 at Fri Nov  5 12:13:45 2021
Module time:
	user time   =     608.90 seconds =      10.15 minutes
	system time =      15.27 seconds =       0.25 minutes
	total time  =        158 seconds =       2.63 minutes
Total time:
	user time   =     608.90 seconds =      10.15 minutes
	system time =      15.27 seconds =       0.25 minutes
	total time  =        158 seconds =       2.63 minutes
Grab this energy -157.8130721342378
    Psi4 stopped on: Friday, 05 November 2021 12:13PM
    Psi4 wall time for execution: 0:02:37.84

*** Psi4 exiting successfully. Buy a developer a beer!
