                               Psi4 1.4a2.dev629

  ==> Input File <==

--------------------------------------------------------------------------
import os
memory 14 GB

molecule {
 C   -0.3233181685    0.0024273189    0.0000000000
 C    0.0616305483   -1.4005814525   -2.4280354369
 C    0.0603186298    2.8011658167    0.0000000000
 C    0.0616305483   -1.4005814525    2.4280354369
 H    2.0850643825   -1.6465816044   -2.8459485787
 H   -0.7594031497   -0.3901157625   -4.0287101415
 H   -0.7670998907   -3.2863431369   -2.3507948200
 H    2.0810761807    3.2892767754   -0.0000000000
 H   -0.7655341497    3.6771748439    1.6739518091
 H   -0.7655341497    3.6771748439   -1.6739518091
 H    2.0850643825   -1.6465816044    2.8459485787
 H   -0.7670998907   -3.2863431369    2.3507948200
 H   -0.7594031497   -0.3901157625    4.0287101415
units bohr
0 2
}

basis {

assign 6-31g_2dfp_

[ 6-31g_2dfp_ ]

spherical

!----------------------------------------------------------------------
! Basis Set Exchange
! Version v0.8.13
! https://www.basissetexchange.org
!----------------------------------------------------------------------
!   Basis set: 6-31G(2df,p)
! Description: 6-31G(2df,p)
!        Role: orbital
!     Version: 0  (Data from the original Basis Set Exchange)
!----------------------------------------------------------------------

****
H     0
S    3   1.00
     18.7311370              0.03349460
      2.8253937              0.23472695
      0.6401217              0.81375733
S    1   1.00
      0.1612778              1.00000000
P    1   1.00
      1.5000000              1.0000000
P    1   1.00
      0.3750000              1.0000000
****
B     0
S    6   1.00
   2068.8823000              0.0018663
    310.6495700              0.0142515
     70.6830330              0.0695516
     19.8610800              0.2325729
      6.2993048              0.4670787
      2.1270270              0.3634314
SP   3   1.00
      4.7279710             -0.1303938              0.0745976
      1.1903377             -0.1307889              0.3078467
      0.3594117              1.1309444              0.7434568
SP   1   1.00
      0.1267512              1.0000000              1.0000000
D    1   1.00
      0.8020000              1.0000000
D    1   1.00
      0.2005000              1.0000000
F    1   1.00
      0.5000000              1.0000000
****
C     0
S    6   1.00
   3047.5249000              0.0018347
    457.3695100              0.0140373
    103.9486900              0.0688426
     29.2101550              0.2321844
      9.2866630              0.4679413
      3.1639270              0.3623120
SP   3   1.00
      7.8682724             -0.1193324              0.0689991
      1.8812885             -0.1608542              0.3164240
      0.5442493              1.1434564              0.7443083
SP   1   1.00
      0.1687144              1.0000000              1.0000000
D    1   1.00
      1.2520000              1.0000000
D    1   1.00
      0.3130000              1.0000000
F    1   1.00
      0.8000000              1.0000000
****
N     0
S    6   1.00
   4173.5110000              0.0018348
    627.4579000              0.0139950
    142.9021000              0.0685870
     40.2343300              0.2322410
     12.8202100              0.4690700
      4.3904370              0.3604550
SP   3   1.00
     11.6263580             -0.1149610              0.0675800
      2.7162800             -0.1691180              0.3239070
      0.7722180              1.1458520              0.7408950
SP   1   1.00
      0.2120313              1.0000000              1.0000000
D    1   1.00
      1.8260000              1.0000000
D    1   1.00
      0.4565000              1.0000000
F    1   1.00
      1.0000000              1.0000000
****
O     0
S    6   1.00
   5484.6717000              0.0018311
    825.2349500              0.0139501
    188.0469600              0.0684451
     52.9645000              0.2327143
     16.8975700              0.4701930
      5.7996353              0.3585209
SP   3   1.00
     15.5396160             -0.1107775              0.0708743
      3.5999336             -0.1480263              0.3397528
      1.0137618              1.1307670              0.7271586
SP   1   1.00
      0.2700058              1.0000000              1.0000000
D    1   1.00
      2.5840000              1.0000000
D    1   1.00
      0.6460000              1.0000000
F    1   1.00
      1.4000000              1.0000000
****
F     0
S    6   1.00
   7001.7130900              0.0018196169
   1051.3660900              0.0139160796
    239.2856900              0.0684053245
     67.3974453              0.233185760
     21.5199573              0.471267439
      7.40310130             0.356618546
SP   3   1.00
     20.8479528             -0.108506975            0.0716287243
      4.80830834            -0.146451658            0.3459121030
      1.34406986             1.128688580            0.7224699570
SP   1   1.00
      0.358151393            1.0000000              1.0000000
D    1   1.00
      3.5000000              1.0000000
D    1   1.00
      0.8750000              1.0000000
F    1   1.00
      1.8500000              1.0000000
****
Al     0
S    6   1.00
  13983.1000000              0.00194267
   2098.7500000              0.0148599
    477.7050000              0.0728494
    134.3600000              0.2468300
     42.8709000              0.4872580
     14.5189000              0.3234960
SP   6   1.00
    239.6680000             -0.00292619             0.00460285
     57.4419000             -0.0374080              0.0331990
     18.2859000             -0.1144870              0.1362820
      6.5991400              0.1156350              0.3304760
      2.4904900              0.6125950              0.4491460
      0.9445400              0.3937990              0.2657040
SP   3   1.00
      1.2779000             -0.2276060             -0.0175130
      0.3975900              0.00144583             0.2445330
      0.1600950              1.0927900              0.8049340
SP   1   1.00
      0.0556577              1.0000000              1.0000000
D    1   1.00
      0.6500000              1.0000000
D    1   1.00
      0.1625000              1.0000000
F    1   1.00
      0.2500000              1.0000000
****
Si     0
S    6   1.00
  16115.9000000              0.00195948
   2425.5800000              0.01492880
    553.8670000              0.07284780
    156.3400000              0.24613000
     50.0683000              0.48591400
     17.0178000              0.32500200
SP   6   1.00
    292.7180000             -0.00278094             0.00443826
     69.8731000             -0.03571460             0.03266790
     22.3363000             -0.11498500             0.13472100
      8.1503900              0.09356340             0.32867800
      3.1345800              0.60301700             0.44964000
      1.2254300              0.41895900             0.26137200
SP   3   1.00
      1.7273800             -0.24463000            -0.01779510
      0.5729220              0.00431572             0.25353900
      0.2221920              1.09818000             0.80066900
SP   1   1.00
      0.0778369              1.00000000             1.00000000
D    1   1.00
      0.9000000              1.0000000
D    1   1.00
      0.2250000              1.0000000
F    1   1.00
      0.3200000              1.0000000
****
P     0
S    6   1.00
  19413.3000000              0.0018516
   2909.4200000              0.0142062
    661.3640000              0.0699995
    185.7590000              0.2400790
     59.1943000              0.4847620
     20.0310000              0.3352000
SP   6   1.00
    339.4780000             -0.00278217             0.00456462
     81.0101000             -0.0360499              0.03369360
     25.8780000             -0.1166310              0.13975500
      9.4522100              0.0968328              0.33936200
      3.6656600              0.6144180              0.45092100
      1.4674600              0.4037980              0.23858600
SP   3   1.00
      2.1562300             -0.2529230             -0.01776530
      0.7489970              0.0328517              0.27405800
      0.2831450              1.0812500              0.78542100
SP   1   1.00
      0.0998317              1.0000000              1.00000000
D    1   1.00
      1.1000000              1.0000000
D    1   1.00
      0.2750000              1.0000000
F    1   1.00
      0.4500000              1.0000000
****
S     0
S    6   1.00
  21917.1000000              0.0018690
   3301.4900000              0.0142300
    754.1460000              0.0696960
    212.7110000              0.2384870
     67.9896000              0.4833070
     23.0515000              0.3380740
SP   6   1.00
    423.7350000             -0.0023767              0.0040610
    100.7100000             -0.0316930              0.0306810
     32.1599000             -0.1133170              0.1304520
     11.8079000              0.0560900              0.3272050
      4.6311000              0.5922550              0.4528510
      1.8702500              0.4550060              0.2560420
SP   3   1.00
      2.6158400             -0.2503740             -0.0145110
      0.9221670              0.0669570              0.3102630
      0.3412870              1.0545100              0.7544830
SP   1   1.00
      0.1171670              1.0000000              1.0000000
D    1   1.00
      1.3000000              1.0000000
D    1   1.00
      0.3250000              1.0000000
F    1   1.00
      0.5500000              1.0000000
****
Cl     0
S    6   1.00
  25180.1000000              0.0018330
   3780.3500000              0.0140340
    860.4740000              0.0690970
    242.1450000              0.2374520
     77.3349000              0.4830340
     26.2470000              0.3398560
SP   6   1.00
    491.7650000             -0.0022974              0.0039894
    116.9840000             -0.0307140              0.0303180
     37.4153000             -0.1125280              0.1298800
     13.7834000              0.0450160              0.3279510
      5.4521500              0.5893530              0.4535270
      2.2258800              0.4652060              0.2521540
SP   3   1.00
      3.1864900             -0.2518300             -0.0142990
      1.1442700              0.0615890              0.3235720
      0.4203770              1.0601800              0.7435070
SP   1   1.00
      0.1426570              1.0000000              1.0000000
D    1   1.00
      1.5000000              1.0000000
D    1   1.00
      0.3750000              1.0000000
F    1   1.00
      0.7000000              1.0000000
****
}

set {
reference uhf
freeze_core true
e_convergence 10
d_convergence 10
dft_spherical_points 1202
dft_radial_points 99
}

e = energy('b3lyp')

print_out('Grab this energy {0}'.format(e))
--------------------------------------------------------------------------

    Molecular point group: cs

    Geometry (in Bohr), charge = 0, multiplicity = 2:

       Center              X                  Y                   Z               Mass
    ------------   -----------------  -----------------  -----------------  -----------------
         C           -0.323376247806     0.001959668348     0.000000000000    12.000000000000
         C            0.061572468994    -1.401049103052    -2.428035436900    12.000000000000
         C            0.060260550494     2.800698166148     0.000000000000    12.000000000000
         C            0.061572468994    -1.401049103052     2.428035436900    12.000000000000
         H            2.085006303194    -1.647049254952    -2.845948578700     1.007825032230
         H           -0.759461229006    -0.390583413052    -4.028710141500     1.007825032230
         H           -0.767157970006    -3.286810787452    -2.350794820000     1.007825032230
         H            2.081018101394     3.288809124848     0.000000000000     1.007825032230
         H           -0.765592229006     3.676707193348     1.673951809100     1.007825032230
         H           -0.765592229006     3.676707193348    -1.673951809100     1.007825032230
         H            2.085006303194    -1.647049254952     2.845948578700     1.007825032230
         H           -0.767157970006    -3.286810787452     2.350794820000     1.007825032230
         H           -0.759461229006    -0.390583413052     4.028710141500     1.007825032230

  Charge       = 0
  Multiplicity = 2
  Basis Set: ANONYMOUS7468C9E4
    Blend: 6-31G_2DFP_
  Basis Set: (ANONYMOUS7468C9E4 AUX)
    Blend: DEF2-UNIVERSAL-JKFIT

    Orbital Energies [Eh]
    ---------------------

    Alpha Occupied:

       1Ap   -10.180274     1App  -10.166602     2Ap   -10.166573
       3Ap   -10.166261     4Ap    -0.797728     5Ap    -0.686689
       2App   -0.686404     6Ap    -0.531087     7Ap    -0.441225
       3App   -0.434883     8Ap    -0.434738     9Ap    -0.382903
       4App   -0.382813     5App   -0.363926    10Ap    -0.338153
       6App   -0.337855    11Ap    -0.168899

    Alpha Virtual:

      12Ap     0.076404     7App    0.134460    13Ap     0.134584
      14Ap     0.143025     8App    0.143050    15Ap     0.155177
      16Ap     0.179280     9App    0.179288    17Ap     0.203437
      10App    0.215257    11App    0.275672    18Ap     0.276345
      19Ap     0.399167    12App    0.399169    20Ap     0.403562
      13App    0.424336    21Ap     0.424407    22Ap     0.456726
      23Ap     0.495563    14App    0.495665    15App    0.512432
      24Ap     0.514111    16App    0.578964    25Ap     0.579337
      17App    0.592009    26Ap     0.592464    27Ap     0.603227
      28Ap     0.625742    18App    0.632473    19App    0.636728
      29Ap     0.636901    20App    0.663544    30Ap     0.663955
      31Ap     0.684384    21App    0.684428    32Ap     0.735304
      22App    0.826192    33Ap     0.826258    23App    0.854431
      24App    0.915607    34Ap     0.915873    25App    0.944750
      35Ap     0.945405    26App    0.961902    36Ap     0.961996
      37Ap     1.003554    38Ap     1.128459    27App    1.128579
      39Ap     1.143080    40Ap     1.163422    28App    1.163656
      41Ap     1.223769    29App    1.274841    42Ap     1.275207
      43Ap     1.278906    30App    1.324942    44Ap     1.325187
      45Ap     1.356855    31App    1.366243    46Ap     1.366854
      32App    1.393025    33App    1.404757    47Ap     1.405400
      34App    1.417776    48Ap     1.418303    35App    1.428669
      36App    1.492389    49Ap     1.500434    37App    1.543189
      50Ap     1.543446    51Ap     1.574426    38App    1.574857
      52Ap     1.671989    39App    1.740588    53Ap     1.741114
      54Ap     1.769846    40App    1.833473    55Ap     1.834305
      41App    1.973356    56Ap     2.019288    42App    2.020211
      57Ap     2.020362    43App    2.052761    58Ap     2.054698
      44App    2.739410    59Ap     2.739514    60Ap     2.791142
      45App    2.811935    46App    2.890101    61Ap     2.890853
      62Ap     2.895089    63Ap     2.929714    47App    2.930063
      48App    2.959621    64Ap     2.964773    49App    2.965307
      65Ap     3.034922    50App    3.071938    66Ap     3.072542
      51App    3.085278    52App    3.168082    67Ap     3.168149
      68Ap     3.180911    53App    3.285235    69Ap     3.285324
      54App    3.326219    70Ap     3.327095    71Ap     3.374916
      55App    3.488929    72Ap     3.489400    56App    3.513715
      73Ap     3.524704    57App    3.567727    74Ap     3.569435
      58App    3.573481    75Ap     3.666823    59App    3.667309
      76Ap     3.681481    60App    3.694610    77Ap     3.695350
      78Ap     3.775951    61App    3.778704    79Ap     3.789724
      62App    3.912664    80Ap     3.913671    81Ap     4.036784
      63App    4.112811    82Ap     4.114864    64App    4.150875
      83Ap     4.152012    84Ap     4.176233    85Ap     4.203952
      65App    4.204046    86Ap     4.205114    66App    4.214575
      67App    4.317712    87Ap     4.318722    68App    4.361397
      88Ap     4.426530    69App    4.427527    70App    4.445452
      71App    4.518503    89Ap     4.520021    72App    4.579086
      90Ap     4.580390    91Ap     4.618203    92Ap     4.711486
      93Ap     4.775791    73App    4.776985    74App    4.839233
      94Ap     4.963663    75App    5.003429    95Ap     5.004706
      96Ap     5.233319    97Ap     5.251997    76App    5.252222
      77App    5.359158    98Ap     5.361058    78App    5.482595

    Beta Occupied:

       1App  -10.167351     1Ap   -10.167339     2Ap   -10.167028
       3Ap   -10.166429     4Ap    -0.781081     5Ap    -0.684479
       2App   -0.684217     6Ap    -0.512000     3App   -0.431269
       7Ap    -0.431111     8Ap    -0.421958     9Ap    -0.376985
       4App   -0.376919     5App   -0.362913    10Ap    -0.333267
       6App   -0.332968

    Beta Virtual:

      11Ap    -0.025509    12Ap     0.077409     7App    0.135353
      13Ap     0.135486    14Ap     0.144858     8App    0.144904
      15Ap     0.163573     9App    0.182942    16Ap     0.182950
      10App    0.215484    17Ap     0.218838    11App    0.282040
      18Ap     0.282692    19Ap     0.400335    12App    0.400338
      20Ap     0.420015    13App    0.427136    21Ap     0.427234
      22Ap     0.468616    23Ap     0.497829    14App    0.497917
      15App    0.514161    24Ap     0.556514    16App    0.584519
      25Ap     0.584917    17App    0.598229    26Ap     0.598644
      27Ap     0.610637    28Ap     0.629107    18App    0.632626
      19App    0.639969    29Ap     0.640187    20App    0.667123
      30Ap     0.667513    31Ap     0.686996    21App    0.687017
      32Ap     0.757852    22App    0.831386    33Ap     0.831396
      23App    0.855760    24App    0.923559    34Ap     0.923834
      25App    0.946586    35Ap     0.954356    26App    0.967170
      36Ap     0.967324    37Ap     1.008805    38Ap     1.132423
      27App    1.132646    39Ap     1.156444    40Ap     1.168591
      28App    1.168694    41Ap     1.232725    29App    1.280421
      42Ap     1.280793    43Ap     1.284652    30App    1.329971
      44Ap     1.330190    45Ap     1.366295    31App    1.371523
      46Ap     1.372057    32App    1.394077    33App    1.408191
      47Ap     1.408888    34App    1.422832    48Ap     1.423346
      35App    1.428929    36App    1.493443    49Ap     1.510879
      37App    1.547498    50Ap     1.547692    51Ap     1.582450
      38App    1.582791    52Ap     1.676912    39App    1.746341
      53Ap     1.746895    54Ap     1.780568    40App    1.837291
      55Ap     1.838137    41App    1.974212    42App    2.026551
      56Ap     2.026692    57Ap     2.040738    43App    2.059508
      58Ap     2.061381    44App    2.747730    59Ap     2.747890
      45App    2.812351    60Ap     2.816302    46App    2.902890
      61Ap     2.903591    62Ap     2.924754    63Ap     2.932165
      47App    2.932491    48App    2.960688    64Ap     2.969376
      49App    2.969876    65Ap     3.042777    50App    3.081950
      66Ap     3.082469    51App    3.087100    52App    3.183715
      67Ap     3.183883    68Ap     3.188687    53App    3.289977
      69Ap     3.290072    54App    3.330037    70Ap     3.330900
      71Ap     3.382759    55App    3.491684    72Ap     3.492197
      56App    3.512089    73Ap     3.527766    57App    3.573322
      58App    3.581128    74Ap     3.582756    75Ap     3.672018
      59App    3.672205    76Ap     3.694820    60App    3.726242
      77Ap     3.726642    78Ap     3.780527    61App    3.783168
      79Ap     3.818276    62App    3.922511    80Ap     3.923432
      81Ap     4.047796    63App    4.119703    82Ap     4.121754
      64App    4.158121    83Ap     4.159119    84Ap     4.190147
      65App    4.209966    85Ap     4.210812    86Ap     4.212095
      66App    4.219022    67App    4.325038    87Ap     4.326113
      68App    4.364750    88Ap     4.434740    69App    4.435686
      70App    4.448322    71App    4.526293    89Ap     4.527789
      72App    4.589652    90Ap     4.590957    91Ap     4.625392
      92Ap     4.721826    93Ap     4.782783    73App    4.783894
      74App    4.842155    94Ap     4.968431    75App    5.007430
      95Ap     5.008745    96Ap     5.239010    97Ap     5.253764
      76App    5.254012    77App    5.365590    98Ap     5.367533
      78App    5.484905

    Final Occupation by Irrep:
             Ap   App
    DOCC [    10,    6 ]
    SOCC [     1,    0 ]

  @DF-UKS Final Energy:  -157.81301823737022

   => Energetics <=

    Nuclear Repulsion Energy =            125.4320638376585322
    One-Electron Energy =                -458.8198508450574309
    Two-Electron Energy =                 195.8859429078710832
    DFT Exchange-Correlation Energy =     -20.3111741378423893
    Empirical Dispersion Energy =           0.0000000000000000
    VV10 Nonlocal Energy =                  0.0000000000000000
    Total Energy =                       -157.8130182373702155

  UHF NO Occupations:
  HONO-2 :    9 Ap 1.9996034
  HONO-1 :   10 Ap 1.9989797
  HONO-0 :   11 Ap 1.0000000
  LUNO+0 :   12 Ap 0.0010203
  LUNO+1 :   13 Ap 0.0003966
  LUNO+2 :    7App 0.0001985
  LUNO+3 :   14 Ap 0.0001973

Computation Completed

Properties will be evaluated at   0.000000,   0.000000,   0.000000 [a0]

Properties computed using the SCF density matrix

  Nuclear Dipole Moment: [e a0]
     X:     0.8268      Y:    -0.0033      Z:     0.0000

  Electronic Dipole Moment: [e a0]
     X:    -0.7482      Y:     0.0033      Z:     0.0000

  Dipole Moment: [e a0]
     X:     0.0785      Y:    -0.0000      Z:     0.0000     Total:     0.0785

  Dipole Moment: [D]
     X:     0.1996      Y:    -0.0001      Z:     0.0000     Total:     0.1996

*** tstop() called on n082 at Fri Nov  5 14:59:08 2021
Module time:
	user time   =     494.17 seconds =       8.24 minutes
	system time =       4.59 seconds =       0.08 minutes
	total time  =        126 seconds =       2.10 minutes
Total time:
	user time   =     494.17 seconds =       8.24 minutes
	system time =       4.59 seconds =       0.08 minutes
	total time  =        126 seconds =       2.10 minutes
Grab this energy -157.81301823737022
    Psi4 stopped on: Friday, 05 November 2021 02:59PM
    Psi4 wall time for execution: 0:02:05.53

*** Psi4 exiting successfully. Buy a developer a beer!
