                               Psi4 1.4a2.dev629

  ==> Input File <==

--------------------------------------------------------------------------
import os
memory 14 GB

molecule {
 C   -0.3247908516   -0.0010240176   -0.0000000000
 C    0.0623695235   -1.3993807771   -2.4269057047
 C    0.0611298028    2.8020573805    0.0000000000
 C    0.0623695235   -1.3993807771    2.4269057047
 H    2.0868456940   -1.6446620641   -2.8472163661
 H   -0.7658030432   -0.3885796652   -4.0254025329
 H   -0.7657083448   -3.2921029536   -2.3488788119
 H    2.0868325982    3.2880482499   -0.0000000000
 H   -0.7655935426    3.6801724968    1.6765387071
 H   -0.7655935426    3.6801724968   -1.6765387071
 H    2.0868456940   -1.6446620641    2.8472163661
 H   -0.7657083448   -3.2921029536    2.3488788119
 H   -0.7658030432   -0.3885796652    4.0254025329
units bohr
0 2
}

basis {

assign 6-31g_2dfp_

[ 6-31g_2dfp_ ]

spherical

!----------------------------------------------------------------------
! Basis Set Exchange
! Version v0.8.13
! https://www.basissetexchange.org
!----------------------------------------------------------------------
!   Basis set: 6-31G(2df,p)
! Description: 6-31G(2df,p)
!        Role: orbital
!     Version: 0  (Data from the original Basis Set Exchange)
!----------------------------------------------------------------------

****
H     0
S    3   1.00
     18.7311370              0.03349460
      2.8253937              0.23472695
      0.6401217              0.81375733
S    1   1.00
      0.1612778              1.00000000
P    1   1.00
      1.5000000              1.0000000
P    1   1.00
      0.3750000              1.0000000
****
B     0
S    6   1.00
   2068.8823000              0.0018663
    310.6495700              0.0142515
     70.6830330              0.0695516
     19.8610800              0.2325729
      6.2993048              0.4670787
      2.1270270              0.3634314
SP   3   1.00
      4.7279710             -0.1303938              0.0745976
      1.1903377             -0.1307889              0.3078467
      0.3594117              1.1309444              0.7434568
SP   1   1.00
      0.1267512              1.0000000              1.0000000
D    1   1.00
      0.8020000              1.0000000
D    1   1.00
      0.2005000              1.0000000
F    1   1.00
      0.5000000              1.0000000
****
C     0
S    6   1.00
   3047.5249000              0.0018347
    457.3695100              0.0140373
    103.9486900              0.0688426
     29.2101550              0.2321844
      9.2866630              0.4679413
      3.1639270              0.3623120
SP   3   1.00
      7.8682724             -0.1193324              0.0689991
      1.8812885             -0.1608542              0.3164240
      0.5442493              1.1434564              0.7443083
SP   1   1.00
      0.1687144              1.0000000              1.0000000
D    1   1.00
      1.2520000              1.0000000
D    1   1.00
      0.3130000              1.0000000
F    1   1.00
      0.8000000              1.0000000
****
N     0
S    6   1.00
   4173.5110000              0.0018348
    627.4579000              0.0139950
    142.9021000              0.0685870
     40.2343300              0.2322410
     12.8202100              0.4690700
      4.3904370              0.3604550
SP   3   1.00
     11.6263580             -0.1149610              0.0675800
      2.7162800             -0.1691180              0.3239070
      0.7722180              1.1458520              0.7408950
SP   1   1.00
      0.2120313              1.0000000              1.0000000
D    1   1.00
      1.8260000              1.0000000
D    1   1.00
      0.4565000              1.0000000
F    1   1.00
      1.0000000              1.0000000
****
O     0
S    6   1.00
   5484.6717000              0.0018311
    825.2349500              0.0139501
    188.0469600              0.0684451
     52.9645000              0.2327143
     16.8975700              0.4701930
      5.7996353              0.3585209
SP   3   1.00
     15.5396160             -0.1107775              0.0708743
      3.5999336             -0.1480263              0.3397528
      1.0137618              1.1307670              0.7271586
SP   1   1.00
      0.2700058              1.0000000              1.0000000
D    1   1.00
      2.5840000              1.0000000
D    1   1.00
      0.6460000              1.0000000
F    1   1.00
      1.4000000              1.0000000
****
F     0
S    6   1.00
   7001.7130900              0.0018196169
   1051.3660900              0.0139160796
    239.2856900              0.0684053245
     67.3974453              0.233185760
     21.5199573              0.471267439
      7.40310130             0.356618546
SP   3   1.00
     20.8479528             -0.108506975            0.0716287243
      4.80830834            -0.146451658            0.3459121030
      1.34406986             1.128688580            0.7224699570
SP   1   1.00
      0.358151393            1.0000000              1.0000000
D    1   1.00
      3.5000000              1.0000000
D    1   1.00
      0.8750000              1.0000000
F    1   1.00
      1.8500000              1.0000000
****
Al     0
S    6   1.00
  13983.1000000              0.00194267
   2098.7500000              0.0148599
    477.7050000              0.0728494
    134.3600000              0.2468300
     42.8709000              0.4872580
     14.5189000              0.3234960
SP   6   1.00
    239.6680000             -0.00292619             0.00460285
     57.4419000             -0.0374080              0.0331990
     18.2859000             -0.1144870              0.1362820
      6.5991400              0.1156350              0.3304760
      2.4904900              0.6125950              0.4491460
      0.9445400              0.3937990              0.2657040
SP   3   1.00
      1.2779000             -0.2276060             -0.0175130
      0.3975900              0.00144583             0.2445330
      0.1600950              1.0927900              0.8049340
SP   1   1.00
      0.0556577              1.0000000              1.0000000
D    1   1.00
      0.6500000              1.0000000
D    1   1.00
      0.1625000              1.0000000
F    1   1.00
      0.2500000              1.0000000
****
Si     0
S    6   1.00
  16115.9000000              0.00195948
   2425.5800000              0.01492880
    553.8670000              0.07284780
    156.3400000              0.24613000
     50.0683000              0.48591400
     17.0178000              0.32500200
SP   6   1.00
    292.7180000             -0.00278094             0.00443826
     69.8731000             -0.03571460             0.03266790
     22.3363000             -0.11498500             0.13472100
      8.1503900              0.09356340             0.32867800
      3.1345800              0.60301700             0.44964000
      1.2254300              0.41895900             0.26137200
SP   3   1.00
      1.7273800             -0.24463000            -0.01779510
      0.5729220              0.00431572             0.25353900
      0.2221920              1.09818000             0.80066900
SP   1   1.00
      0.0778369              1.00000000             1.00000000
D    1   1.00
      0.9000000              1.0000000
D    1   1.00
      0.2250000              1.0000000
F    1   1.00
      0.3200000              1.0000000
****
P     0
S    6   1.00
  19413.3000000              0.0018516
   2909.4200000              0.0142062
    661.3640000              0.0699995
    185.7590000              0.2400790
     59.1943000              0.4847620
     20.0310000              0.3352000
SP   6   1.00
    339.4780000             -0.00278217             0.00456462
     81.0101000             -0.0360499              0.03369360
     25.8780000             -0.1166310              0.13975500
      9.4522100              0.0968328              0.33936200
      3.6656600              0.6144180              0.45092100
      1.4674600              0.4037980              0.23858600
SP   3   1.00
      2.1562300             -0.2529230             -0.01776530
      0.7489970              0.0328517              0.27405800
      0.2831450              1.0812500              0.78542100
SP   1   1.00
      0.0998317              1.0000000              1.00000000
D    1   1.00
      1.1000000              1.0000000
D    1   1.00
      0.2750000              1.0000000
F    1   1.00
      0.4500000              1.0000000
****
S     0
S    6   1.00
  21917.1000000              0.0018690
   3301.4900000              0.0142300
    754.1460000              0.0696960
    212.7110000              0.2384870
     67.9896000              0.4833070
     23.0515000              0.3380740
SP   6   1.00
    423.7350000             -0.0023767              0.0040610
    100.7100000             -0.0316930              0.0306810
     32.1599000             -0.1133170              0.1304520
     11.8079000              0.0560900              0.3272050
      4.6311000              0.5922550              0.4528510
      1.8702500              0.4550060              0.2560420
SP   3   1.00
      2.6158400             -0.2503740             -0.0145110
      0.9221670              0.0669570              0.3102630
      0.3412870              1.0545100              0.7544830
SP   1   1.00
      0.1171670              1.0000000              1.0000000
D    1   1.00
      1.3000000              1.0000000
D    1   1.00
      0.3250000              1.0000000
F    1   1.00
      0.5500000              1.0000000
****
Cl     0
S    6   1.00
  25180.1000000              0.0018330
   3780.3500000              0.0140340
    860.4740000              0.0690970
    242.1450000              0.2374520
     77.3349000              0.4830340
     26.2470000              0.3398560
SP   6   1.00
    491.7650000             -0.0022974              0.0039894
    116.9840000             -0.0307140              0.0303180
     37.4153000             -0.1125280              0.1298800
     13.7834000              0.0450160              0.3279510
      5.4521500              0.5893530              0.4535270
      2.2258800              0.4652060              0.2521540
SP   3   1.00
      3.1864900             -0.2518300             -0.0142990
      1.1442700              0.0615890              0.3235720
      0.4203770              1.0601800              0.7435070
SP   1   1.00
      0.1426570              1.0000000              1.0000000
D    1   1.00
      1.5000000              1.0000000
D    1   1.00
      0.3750000              1.0000000
F    1   1.00
      0.7000000              1.0000000
****
}

set {
reference uhf
freeze_core true
e_convergence 10
d_convergence 10
dft_spherical_points 1202
dft_radial_points 99
}

e = energy('b3lyp')

print_out('Grab this energy {0}'.format(e))
--------------------------------------------------------------------------

    Molecular point group: cs

    Geometry (in Bohr), charge = 0, multiplicity = 2:

       Center              X                  Y                   Z               Mass
    ------------   -----------------  -----------------  -----------------  -----------------
         C           -0.325006183185    -0.001461154957     0.000000000000    12.000000000000
         C            0.062154191915    -1.399817914457    -2.426905704700    12.000000000000
         C            0.060914471215     2.801620243143     0.000000000000    12.000000000000
         C            0.062154191915    -1.399817914457     2.426905704700    12.000000000000
         H            2.086630362415    -1.645099201457    -2.847216366100     1.007825032230
         H           -0.766018374785    -0.389016802557    -4.025402532900     1.007825032230
         H           -0.765923676385    -3.292540090957    -2.348878811900     1.007825032230
         H            2.086617266615     3.287611112543     0.000000000000     1.007825032230
         H           -0.765808874185     3.679735359443     1.676538707100     1.007825032230
         H           -0.765808874185     3.679735359443    -1.676538707100     1.007825032230
         H            2.086630362415    -1.645099201457     2.847216366100     1.007825032230
         H           -0.765923676385    -3.292540090957     2.348878811900     1.007825032230
         H           -0.766018374785    -0.389016802557     4.025402532900     1.007825032230

  Charge       = 0
  Multiplicity = 2
  Basis Set: ANONYMOUSC0A44E8B
    Blend: 6-31G_2DFP_
  Basis Set: (ANONYMOUSC0A44E8B AUX)
    Blend: DEF2-UNIVERSAL-JKFIT

    Orbital Energies [Eh]
    ---------------------

    Alpha Occupied:

       1Ap   -10.180407     1App  -10.167037     2Ap   -10.167018
       3Ap   -10.166965     4Ap    -0.797750     2App   -0.686248
       5Ap    -0.686090     6Ap    -0.530782     7Ap    -0.441182
       8Ap    -0.434614     3App   -0.434600     4App   -0.382744
       9Ap    -0.382668     5App   -0.363483     6App   -0.338201
      10Ap    -0.337614    11Ap    -0.169144

    Alpha Virtual:

      12Ap     0.076076    13Ap     0.134113     7App    0.134191
      14Ap     0.142542     8App    0.142669    15Ap     0.154959
       9App    0.178796    16Ap     0.178897    17Ap     0.203573
      10App    0.214755    18Ap     0.275687    11App    0.275939
      19Ap     0.399098    12App    0.399320    20Ap     0.403263
      13App    0.424064    21Ap     0.424075    22Ap     0.456686
      14App    0.495330    23Ap     0.495399    15App    0.512206
      24Ap     0.513880    25Ap     0.578900    16App    0.578992
      26Ap     0.591642    17App    0.591679    27Ap     0.602789
      28Ap     0.624679    18App    0.631710    29Ap     0.636090
      19App    0.636095    30Ap     0.663481    20App    0.663659
      21App    0.683733    31Ap     0.683754    32Ap     0.734797
      22App    0.825347    33Ap     0.825357    23App    0.853918
      24App    0.914854    34Ap     0.915070    25App    0.944175
      35Ap     0.944661    36Ap     0.961253    26App    0.961364
      37Ap     1.003454    27App    1.128198    38Ap     1.128219
      39Ap     1.142228    28App    1.163684    40Ap     1.163721
      41Ap     1.223162    42Ap     1.274245    29App    1.274605
      43Ap     1.279596    44Ap     1.324053    30App    1.324166
      45Ap     1.356230    31App    1.365436    46Ap     1.365922
      32App    1.392445    47Ap     1.403859    33App    1.404345
      48Ap     1.417080    34App    1.417618    35App    1.427967
      36App    1.491311    49Ap     1.499473    50Ap     1.542709
      37App    1.543050    38App    1.573849    51Ap     1.574478
      52Ap     1.669546    53Ap     1.739054    39App    1.739288
      54Ap     1.768388    40App    1.830942    55Ap     1.831082
      41App    1.971460    56Ap     2.017247    42App    2.018933
      57Ap     2.019805    43App    2.052423    58Ap     2.053633
      59Ap     2.738243    44App    2.738336    60Ap     2.791121
      45App    2.811397    61Ap     2.889034    46App    2.890380
      62Ap     2.895256    63Ap     2.929348    47App    2.929684
      48App    2.958925    49App    2.963987    64Ap     2.964550
      65Ap     3.034358    66Ap     3.070317    50App    3.070565
      51App    3.084278    52App    3.168788    67Ap     3.168993
      68Ap     3.180575    69Ap     3.285891    53App    3.286325
      54App    3.327478    70Ap     3.327561    71Ap     3.375787
      72Ap     3.489905    55App    3.489957    56App    3.513837
      73Ap     3.525792    57App    3.567991    74Ap     3.568208
      58App    3.575763    75Ap     3.665563    59App    3.666031
      76Ap     3.679463    77Ap     3.694182    60App    3.694184
      78Ap     3.776523    61App    3.776541    79Ap     3.787849
      80Ap     3.911843    62App    3.912554    81Ap     4.034149
      63App    4.110921    82Ap     4.111361    83Ap     4.147906
      64App    4.148284    84Ap     4.173196    85Ap     4.202270
      86Ap     4.203348    65App    4.203364    66App    4.210900
      87Ap     4.315358    67App    4.316955    68App    4.359451
      69App    4.423710    88Ap     4.424847    70App    4.443199
      89Ap     4.516957    71App    4.517319    90Ap     4.578112
      72App    4.578682    91Ap     4.617029    92Ap     4.709782
      73App    4.774289    93Ap     4.774586    74App    4.835712
      94Ap     4.962960    75App    5.002801    95Ap     5.003382
      96Ap     5.227927    97Ap     5.246478    76App    5.246939
      98Ap     5.355194    77App    5.355261    78App    5.478985

    Beta Occupied:

       1App  -10.167788     1Ap   -10.167775     2Ap   -10.167730
       3Ap   -10.166580     4Ap    -0.781080     2App   -0.684046
       5Ap    -0.683893     6Ap    -0.511744     7Ap    -0.430984
       3App   -0.430954     8Ap    -0.421909     4App   -0.376848
       9Ap    -0.376757     5App   -0.362466     6App   -0.333327
      10Ap    -0.332741

    Beta Virtual:

      11Ap    -0.025843    12Ap     0.077080    13Ap     0.134981
       7App    0.135083    14Ap     0.144433     8App    0.144523
      15Ap     0.163407     9App    0.182480    16Ap     0.182557
      10App    0.214984    17Ap     0.218933    18Ap     0.282062
      11App    0.282285    19Ap     0.400267    12App    0.400489
      20Ap     0.419683    13App    0.426877    21Ap     0.426891
      22Ap     0.468608    14App    0.497597    23Ap     0.497661
      15App    0.513936    24Ap     0.556226    25Ap     0.584436
      16App    0.584528    26Ap     0.597818    17App    0.597875
      27Ap     0.610186    28Ap     0.628078    18App    0.631869
      19App    0.639379    29Ap     0.639385    30Ap     0.667044
      20App    0.667230    21App    0.686360    31Ap     0.686385
      32Ap     0.757341    22App    0.830523    33Ap     0.830526
      23App    0.855267    24App    0.922835    34Ap     0.923052
      25App    0.946007    35Ap     0.953584    36Ap     0.966536
      26App    0.966627    37Ap     1.008713    27App    1.132244
      38Ap     1.132244    39Ap     1.155569    28App    1.168743
      40Ap     1.168809    41Ap     1.232131    42Ap     1.279830
      29App    1.280245    43Ap     1.285360    44Ap     1.329040
      30App    1.329174    45Ap     1.365622    31App    1.370648
      46Ap     1.371185    32App    1.393497    47Ap     1.407314
      33App    1.407820    48Ap     1.422130    34App    1.422621
      35App    1.428244    36App    1.492357    49Ap     1.509924
      50Ap     1.547101    37App    1.547470    38App    1.581728
      51Ap     1.582344    52Ap     1.674409    53Ap     1.744817
      39App    1.745045    54Ap     1.779145    40App    1.834791
      55Ap     1.834927    41App    1.972318    42App    2.025345
      56Ap     2.026137    57Ap     2.038679    43App    2.059135
      58Ap     2.060390    59Ap     2.746585    44App    2.746665
      45App    2.811817    60Ap     2.816238    61Ap     2.901779
      46App    2.903099    62Ap     2.924946    63Ap     2.931787
      47App    2.932185    48App    2.959988    49App    2.968552
      64Ap     2.969093    65Ap     3.042251    66Ap     3.080257
      50App    3.080523    51App    3.086089    52App    3.184421
      67Ap     3.184636    68Ap     3.188334    69Ap     3.290681
      53App    3.291054    54App    3.331277    70Ap     3.331387
      71Ap     3.383615    72Ap     3.492638    55App    3.492720
      56App    3.512206    73Ap     3.528846    57App    3.575612
      58App    3.581434    74Ap     3.581546    75Ap     3.670207
      59App    3.670854    76Ap     3.692745    60App    3.725628
      77Ap     3.726006    78Ap     3.781030    61App    3.781173
      79Ap     3.816385    80Ap     3.921601    62App    3.922355
      81Ap     4.045064    63App    4.117720    82Ap     4.118163
      83Ap     4.155163    64App    4.155469    84Ap     4.187216
      85Ap     4.209220    65App    4.209315    86Ap     4.210306
      66App    4.215349    87Ap     4.322786    67App    4.324450
      68App    4.362813    69App    4.431873    88Ap     4.433020
      70App    4.446094    89Ap     4.524745    71App    4.525078
      90Ap     4.588769    72App    4.589296    91Ap     4.624213
      92Ap     4.720153    73App    4.781276    93Ap     4.781535
      74App    4.838640    94Ap     4.967751    75App    5.006826
      95Ap     5.007409    96Ap     5.233644    97Ap     5.248271
      76App    5.248715    98Ap     5.361663    77App    5.361769
      78App    5.481312

    Final Occupation by Irrep:
             Ap   App
    DOCC [    10,    6 ]
    SOCC [     1,    0 ]

  @DF-UKS Final Energy:  -157.81306249455474

   => Energetics <=

    Nuclear Repulsion Energy =            125.3921948737719418
    One-Electron Energy =                -458.7442260239952816
    Two-Electron Energy =                 195.8460420316121713
    DFT Exchange-Correlation Energy =     -20.3070733759435598
    Empirical Dispersion Energy =           0.0000000000000000
    VV10 Nonlocal Energy =                  0.0000000000000000
    Total Energy =                       -157.8130624945547424

  UHF NO Occupations:
  HONO-2 :    9 Ap 1.9996024
  HONO-1 :   10 Ap 1.9989820
  HONO-0 :   11 Ap 1.0000000
  LUNO+0 :   12 Ap 0.0010180
  LUNO+1 :   13 Ap 0.0003976
  LUNO+2 :   14 Ap 0.0001981
  LUNO+3 :    7App 0.0001972

Computation Completed

Properties will be evaluated at   0.000000,   0.000000,   0.000000 [a0]

Properties computed using the SCF density matrix

  Nuclear Dipole Moment: [e a0]
     X:     0.8257      Y:    -0.0031      Z:    -0.0000

  Electronic Dipole Moment: [e a0]
     X:    -0.7470      Y:     0.0030      Z:     0.0000

  Dipole Moment: [e a0]
     X:     0.0787      Y:    -0.0000      Z:    -0.0000     Total:     0.0787

  Dipole Moment: [D]
     X:     0.2000      Y:    -0.0001      Z:    -0.0000     Total:     0.2000

*** tstop() called on n058 at Fri Nov  5 11:29:09 2021
Module time:
	user time   =     549.51 seconds =       9.16 minutes
	system time =      12.21 seconds =       0.20 minutes
	total time  =        142 seconds =       2.37 minutes
Total time:
	user time   =     549.51 seconds =       9.16 minutes
	system time =      12.21 seconds =       0.20 minutes
	total time  =        142 seconds =       2.37 minutes
Grab this energy -157.81306249455474
    Psi4 stopped on: Friday, 05 November 2021 11:29AM
    Psi4 wall time for execution: 0:02:21.38

*** Psi4 exiting successfully. Buy a developer a beer!
