                               Psi4 1.4a2.dev629

  ==> Input File <==

--------------------------------------------------------------------------
import os
memory 14 GB

molecule {
 C   -0.3233392275    0.0004305994   -0.0002460667
 C    0.0600243375   -1.3999811634   -2.4270832245
 C    0.0613298438    2.8016530656    0.0001475662
 C    0.0619499118   -1.3997440059    2.4269730387
 H    2.0845790969   -1.6396402350   -2.8439171037
 H   -0.7637434038   -0.3908106680   -4.0256735248
 H   -0.7704202233   -3.2954564157   -2.3521389041
 H    2.0858866930    3.2881135348    0.0018519249
 H   -0.7662610899    3.6815254692    1.6768418633
 H   -0.7643335858    3.6786864189   -1.6779906507
 H    2.0901975435   -1.6433091055    2.8539930315
 H   -0.7666136430   -3.2921864121    2.3457122001
 H   -0.7618641298   -0.3893053959    4.0215298497
units bohr
0 2
}

basis {

assign 6-31g_2dfp_

[ 6-31g_2dfp_ ]

spherical

!----------------------------------------------------------------------
! Basis Set Exchange
! Version v0.8.13
! https://www.basissetexchange.org
!----------------------------------------------------------------------
!   Basis set: 6-31G(2df,p)
! Description: 6-31G(2df,p)
!        Role: orbital
!     Version: 0  (Data from the original Basis Set Exchange)
!----------------------------------------------------------------------

****
H     0
S    3   1.00
     18.7311370              0.03349460
      2.8253937              0.23472695
      0.6401217              0.81375733
S    1   1.00
      0.1612778              1.00000000
P    1   1.00
      1.5000000              1.0000000
P    1   1.00
      0.3750000              1.0000000
****
B     0
S    6   1.00
   2068.8823000              0.0018663
    310.6495700              0.0142515
     70.6830330              0.0695516
     19.8610800              0.2325729
      6.2993048              0.4670787
      2.1270270              0.3634314
SP   3   1.00
      4.7279710             -0.1303938              0.0745976
      1.1903377             -0.1307889              0.3078467
      0.3594117              1.1309444              0.7434568
SP   1   1.00
      0.1267512              1.0000000              1.0000000
D    1   1.00
      0.8020000              1.0000000
D    1   1.00
      0.2005000              1.0000000
F    1   1.00
      0.5000000              1.0000000
****
C     0
S    6   1.00
   3047.5249000              0.0018347
    457.3695100              0.0140373
    103.9486900              0.0688426
     29.2101550              0.2321844
      9.2866630              0.4679413
      3.1639270              0.3623120
SP   3   1.00
      7.8682724             -0.1193324              0.0689991
      1.8812885             -0.1608542              0.3164240
      0.5442493              1.1434564              0.7443083
SP   1   1.00
      0.1687144              1.0000000              1.0000000
D    1   1.00
      1.2520000              1.0000000
D    1   1.00
      0.3130000              1.0000000
F    1   1.00
      0.8000000              1.0000000
****
N     0
S    6   1.00
   4173.5110000              0.0018348
    627.4579000              0.0139950
    142.9021000              0.0685870
     40.2343300              0.2322410
     12.8202100              0.4690700
      4.3904370              0.3604550
SP   3   1.00
     11.6263580             -0.1149610              0.0675800
      2.7162800             -0.1691180              0.3239070
      0.7722180              1.1458520              0.7408950
SP   1   1.00
      0.2120313              1.0000000              1.0000000
D    1   1.00
      1.8260000              1.0000000
D    1   1.00
      0.4565000              1.0000000
F    1   1.00
      1.0000000              1.0000000
****
O     0
S    6   1.00
   5484.6717000              0.0018311
    825.2349500              0.0139501
    188.0469600              0.0684451
     52.9645000              0.2327143
     16.8975700              0.4701930
      5.7996353              0.3585209
SP   3   1.00
     15.5396160             -0.1107775              0.0708743
      3.5999336             -0.1480263              0.3397528
      1.0137618              1.1307670              0.7271586
SP   1   1.00
      0.2700058              1.0000000              1.0000000
D    1   1.00
      2.5840000              1.0000000
D    1   1.00
      0.6460000              1.0000000
F    1   1.00
      1.4000000              1.0000000
****
F     0
S    6   1.00
   7001.7130900              0.0018196169
   1051.3660900              0.0139160796
    239.2856900              0.0684053245
     67.3974453              0.233185760
     21.5199573              0.471267439
      7.40310130             0.356618546
SP   3   1.00
     20.8479528             -0.108506975            0.0716287243
      4.80830834            -0.146451658            0.3459121030
      1.34406986             1.128688580            0.7224699570
SP   1   1.00
      0.358151393            1.0000000              1.0000000
D    1   1.00
      3.5000000              1.0000000
D    1   1.00
      0.8750000              1.0000000
F    1   1.00
      1.8500000              1.0000000
****
Al     0
S    6   1.00
  13983.1000000              0.00194267
   2098.7500000              0.0148599
    477.7050000              0.0728494
    134.3600000              0.2468300
     42.8709000              0.4872580
     14.5189000              0.3234960
SP   6   1.00
    239.6680000             -0.00292619             0.00460285
     57.4419000             -0.0374080              0.0331990
     18.2859000             -0.1144870              0.1362820
      6.5991400              0.1156350              0.3304760
      2.4904900              0.6125950              0.4491460
      0.9445400              0.3937990              0.2657040
SP   3   1.00
      1.2779000             -0.2276060             -0.0175130
      0.3975900              0.00144583             0.2445330
      0.1600950              1.0927900              0.8049340
SP   1   1.00
      0.0556577              1.0000000              1.0000000
D    1   1.00
      0.6500000              1.0000000
D    1   1.00
      0.1625000              1.0000000
F    1   1.00
      0.2500000              1.0000000
****
Si     0
S    6   1.00
  16115.9000000              0.00195948
   2425.5800000              0.01492880
    553.8670000              0.07284780
    156.3400000              0.24613000
     50.0683000              0.48591400
     17.0178000              0.32500200
SP   6   1.00
    292.7180000             -0.00278094             0.00443826
     69.8731000             -0.03571460             0.03266790
     22.3363000             -0.11498500             0.13472100
      8.1503900              0.09356340             0.32867800
      3.1345800              0.60301700             0.44964000
      1.2254300              0.41895900             0.26137200
SP   3   1.00
      1.7273800             -0.24463000            -0.01779510
      0.5729220              0.00431572             0.25353900
      0.2221920              1.09818000             0.80066900
SP   1   1.00
      0.0778369              1.00000000             1.00000000
D    1   1.00
      0.9000000              1.0000000
D    1   1.00
      0.2250000              1.0000000
F    1   1.00
      0.3200000              1.0000000
****
P     0
S    6   1.00
  19413.3000000              0.0018516
   2909.4200000              0.0142062
    661.3640000              0.0699995
    185.7590000              0.2400790
     59.1943000              0.4847620
     20.0310000              0.3352000
SP   6   1.00
    339.4780000             -0.00278217             0.00456462
     81.0101000             -0.0360499              0.03369360
     25.8780000             -0.1166310              0.13975500
      9.4522100              0.0968328              0.33936200
      3.6656600              0.6144180              0.45092100
      1.4674600              0.4037980              0.23858600
SP   3   1.00
      2.1562300             -0.2529230             -0.01776530
      0.7489970              0.0328517              0.27405800
      0.2831450              1.0812500              0.78542100
SP   1   1.00
      0.0998317              1.0000000              1.00000000
D    1   1.00
      1.1000000              1.0000000
D    1   1.00
      0.2750000              1.0000000
F    1   1.00
      0.4500000              1.0000000
****
S     0
S    6   1.00
  21917.1000000              0.0018690
   3301.4900000              0.0142300
    754.1460000              0.0696960
    212.7110000              0.2384870
     67.9896000              0.4833070
     23.0515000              0.3380740
SP   6   1.00
    423.7350000             -0.0023767              0.0040610
    100.7100000             -0.0316930              0.0306810
     32.1599000             -0.1133170              0.1304520
     11.8079000              0.0560900              0.3272050
      4.6311000              0.5922550              0.4528510
      1.8702500              0.4550060              0.2560420
SP   3   1.00
      2.6158400             -0.2503740             -0.0145110
      0.9221670              0.0669570              0.3102630
      0.3412870              1.0545100              0.7544830
SP   1   1.00
      0.1171670              1.0000000              1.0000000
D    1   1.00
      1.3000000              1.0000000
D    1   1.00
      0.3250000              1.0000000
F    1   1.00
      0.5500000              1.0000000
****
Cl     0
S    6   1.00
  25180.1000000              0.0018330
   3780.3500000              0.0140340
    860.4740000              0.0690970
    242.1450000              0.2374520
     77.3349000              0.4830340
     26.2470000              0.3398560
SP   6   1.00
    491.7650000             -0.0022974              0.0039894
    116.9840000             -0.0307140              0.0303180
     37.4153000             -0.1125280              0.1298800
     13.7834000              0.0450160              0.3279510
      5.4521500              0.5893530              0.4535270
      2.2258800              0.4652060              0.2521540
SP   3   1.00
      3.1864900             -0.2518300             -0.0142990
      1.1442700              0.0615890              0.3235720
      0.4203770              1.0601800              0.7435070
SP   1   1.00
      0.1426570              1.0000000              1.0000000
D    1   1.00
      1.5000000              1.0000000
D    1   1.00
      0.3750000              1.0000000
F    1   1.00
      0.7000000              1.0000000
****
}

set {
reference uhf
freeze_core true
e_convergence 10
d_convergence 10
dft_spherical_points 1202
dft_radial_points 99
}

e = energy('b3lyp')

print_out('Grab this energy {0}'.format(e))
--------------------------------------------------------------------------

    Molecular point group: c1

    Geometry (in Bohr), charge = 0, multiplicity = 2:

       Center              X                  Y                   Z               Mass
    ------------   -----------------  -----------------  -----------------  -----------------
         C           -0.323340161732    -0.000023234497    -0.000205872214    12.000000000000
         C            0.060023403268    -1.400434997297    -2.427043030014    12.000000000000
         C            0.061328909568     2.801199231703     0.000187760686    12.000000000000
         C            0.061948977568    -1.400197839797     2.427013233186    12.000000000000
         H            2.084578162668    -1.640094068897    -2.843876909214     1.007825032230
         H           -0.763744338032    -0.391264501897    -4.025633330314     1.007825032230
         H           -0.770421157532    -3.295910249597    -2.352098709614     1.007825032230
         H            2.085885758768     3.287659700903     0.001892119386     1.007825032230
         H           -0.766262024132     3.681071635303     1.676882057786     1.007825032230
         H           -0.764334520032     3.678232585003    -1.677950456214     1.007825032230
         H            2.090196609268    -1.643762939397     2.854033225986     1.007825032230
         H           -0.766614577232    -3.292640245997     2.345752394586     1.007825032230
         H           -0.761865064032    -0.389759229797     4.021570044186     1.007825032230

  Charge       = 0
  Multiplicity = 2
  Basis Set: ANONYMOUSCE81D829
    Blend: 6-31G_2DFP_
  Basis Set: (ANONYMOUSCE81D829 AUX)
    Blend: DEF2-UNIVERSAL-JKFIT

    Orbital Energies [Eh]
    ---------------------

    Alpha Occupied:

       1A    -10.180342     2A    -10.167050     3A    -10.167024
       4A    -10.166971     5A     -0.797767     6A     -0.686256
       7A     -0.686121     8A     -0.530778     9A     -0.441127
      10A     -0.434875    11A     -0.434466    12A     -0.382825
      13A     -0.382372    14A     -0.363611    15A     -0.338221
      16A     -0.337776    17A     -0.168961

    Alpha Virtual:

      18A      0.076070    19A      0.134030    20A      0.134276
      21A      0.142337    22A      0.142917    23A      0.154883
      24A      0.178610    25A      0.178942    26A      0.203551
      27A      0.214803    28A      0.275874    29A      0.276098
      30A      0.398948    31A      0.399505    32A      0.403345
      33A      0.423906    34A      0.424289    35A      0.456595
      36A      0.495337    37A      0.495441    38A      0.512162
      39A      0.513981    40A      0.578671    41A      0.578951
      42A      0.591321    43A      0.591925    44A      0.602601
      45A      0.624718    46A      0.631743    47A      0.635907
      48A      0.636665    49A      0.663200    50A      0.663626
      51A      0.683627    52A      0.684094    53A      0.734993
      54A      0.825146    55A      0.825667    56A      0.853915
      57A      0.914640    58A      0.915407    59A      0.944108
      60A      0.944607    61A      0.961195    62A      0.961416
      63A      1.003454    64A      1.127616    65A      1.128608
      66A      1.142205    67A      1.163097    68A      1.163454
      69A      1.223323    70A      1.274209    71A      1.274755
      72A      1.279370    73A      1.324131    74A      1.324567
      75A      1.355972    76A      1.365760    77A      1.366361
      78A      1.392443    79A      1.403551    80A      1.404535
      81A      1.416330    82A      1.417878    83A      1.427916
      84A      1.491505    85A      1.499054    86A      1.542807
      87A      1.542880    88A      1.573929    89A      1.574984
      90A      1.669836    91A      1.738696    92A      1.740118
      93A      1.768335    94A      1.830513    95A      1.832271
      96A      1.971749    97A      2.017862    98A      2.018464
      99A      2.020065   100A      2.051948   101A      2.053352
     102A      2.738306   103A      2.738666   104A      2.790927
     105A      2.811429   106A      2.889707   107A      2.890169
     108A      2.894974   109A      2.929189   110A      2.929804
     111A      2.958957   112A      2.964192   113A      2.964608
     114A      3.034004   115A      3.070433   116A      3.072074
     117A      3.084439   118A      3.168311   119A      3.169256
     120A      3.180583   121A      3.285114   122A      3.285508
     123A      3.326213   124A      3.328120   125A      3.375627
     126A      3.489065   127A      3.491259   128A      3.514010
     129A      3.525334   130A      3.567818   131A      3.568822
     132A      3.575265   133A      3.665733   134A      3.667044
     135A      3.679651   136A      3.693445   137A      3.694810
     138A      3.776679   139A      3.776895   140A      3.789180
     141A      3.911630   142A      3.912827   143A      4.034437
     144A      4.110784   145A      4.111879   146A      4.147726
     147A      4.148423   148A      4.173344   149A      4.202224
     150A      4.202432   151A      4.204065   152A      4.210983
     153A      4.315273   154A      4.316659   155A      4.358977
     156A      4.423905   157A      4.425034   158A      4.443430
     159A      4.515580   160A      4.518069   161A      4.578266
     162A      4.578285   163A      4.617596   164A      4.709378
     165A      4.773490   166A      4.775745   167A      4.836919
     168A      4.962866   169A      5.002297   170A      5.003627
     171A      5.227607   172A      5.246471   173A      5.247563
     174A      5.354247   175A      5.356801   176A      5.479410

    Beta Occupied:

       1A    -10.167801     2A    -10.167782     3A    -10.167741
       4A    -10.166520     5A     -0.781092     6A     -0.684058
       7A     -0.683924     8A     -0.511749     9A     -0.431253
      10A     -0.430832    11A     -0.421822    12A     -0.376916
      13A     -0.376451    14A     -0.362595    15A     -0.333333
      16A     -0.332910

    Beta Virtual:

      17A     -0.025743    18A      0.077079    19A      0.134899
      20A      0.135188    21A      0.144202    22A      0.144794
      23A      0.163341    24A      0.182279    25A      0.182617
      26A      0.215033    27A      0.218932    28A      0.282221
      29A      0.282446    30A      0.400116    31A      0.400677
      32A      0.419791    33A      0.426716    34A      0.427101
      35A      0.468502    36A      0.497593    37A      0.497709
      38A      0.513897    39A      0.556325    40A      0.584218
      41A      0.584506    42A      0.597485    43A      0.598121
      44A      0.610019    45A      0.628098    46A      0.631911
      47A      0.639206    48A      0.639925    49A      0.666777
      50A      0.667177    51A      0.686290    52A      0.686700
      53A      0.757516    54A      0.830326    55A      0.830823
      56A      0.855268    57A      0.922645    58A      0.923346
      59A      0.945946    60A      0.953531    61A      0.966498
      62A      0.966727    63A      1.008694    64A      1.131683
      65A      1.132597    66A      1.155577    67A      1.168141
      68A      1.168563    69A      1.232295    70A      1.279797
      71A      1.280362    72A      1.285124    73A      1.329119
      74A      1.329556    75A      1.365373    76A      1.371080
      77A      1.371542    78A      1.393504    79A      1.407008
      80A      1.408007    81A      1.421417    82A      1.422879
      83A      1.428197    84A      1.492555    85A      1.509494
      86A      1.547127    87A      1.547386    88A      1.581711
      89A      1.582937    90A      1.674683    91A      1.744445
      92A      1.745897    93A      1.779111    94A      1.834367
      95A      1.836127    96A      1.972610    97A      2.024893
      98A      2.025972    99A      2.039688   100A      2.058654
     101A      2.060091   102A      2.746629   103A      2.747015
     104A      2.811841   105A      2.816062   106A      2.902367
     107A      2.902909   108A      2.924653   109A      2.931683
     110A      2.932274   111A      2.960037   112A      2.968733
     113A      2.969139   114A      3.041938   115A      3.080280
     116A      3.081902   117A      3.086403   118A      3.184090
     119A      3.184970   120A      3.188271   121A      3.289881
     122A      3.290340   123A      3.330013   124A      3.331928
     125A      3.383445   126A      3.491820   127A      3.493965
     128A      3.512375   129A      3.528379   130A      3.574854
     131A      3.581340   132A      3.582248   133A      3.670588
     134A      3.671686   135A      3.692950   136A      3.725350
     137A      3.726172   138A      3.781193   139A      3.781449
     140A      3.817704   141A      3.921379   142A      3.922709
     143A      4.045326   144A      4.117401   145A      4.118901
     146A      4.154710   147A      4.155869   148A      4.187377
     149A      4.208199   150A      4.209431   151A      4.210917
     152A      4.215478   153A      4.322763   154A      4.324055
     155A      4.362338   156A      4.432132   157A      4.433233
     158A      4.446315   159A      4.523368   160A      4.525861
     161A      4.588833   162A      4.588920   163A      4.624788
     164A      4.719720   165A      4.780453   166A      4.782691
     167A      4.839837   168A      4.967661   169A      5.006351
     170A      5.007652   171A      5.233215   172A      5.248296
     173A      5.249417   174A      5.360735   175A      5.363268
     176A      5.481733

    Final Occupation by Irrep:
              A
    DOCC [    16 ]
    SOCC [     1 ]

  @DF-UKS Final Energy:  -157.81305479767309

   => Energetics <=

    Nuclear Repulsion Energy =            125.3946500972449627
    One-Electron Energy =                -458.7489188849545485
    Two-Electron Energy =                 195.8483609355330657
    DFT Exchange-Correlation Energy =     -20.3071469454965587
    Empirical Dispersion Energy =           0.0000000000000000
    VV10 Nonlocal Energy =                  0.0000000000000000
    Total Energy =                       -157.8130547976730895

  UHF NO Occupations:
  HONO-2 :   15  A 1.9996009
  HONO-1 :   16  A 1.9989805
  HONO-0 :   17  A 1.0000000
  LUNO+0 :   18  A 0.0010195
  LUNO+1 :   19  A 0.0003991
  LUNO+2 :   20  A 0.0001977
  LUNO+3 :   21  A 0.0001974

Computation Completed

Properties will be evaluated at   0.000000,   0.000000,   0.000000 [a0]

Properties computed using the SCF density matrix

  Nuclear Dipole Moment: [e a0]
     X:     0.8272      Y:    -0.0032      Z:     0.0003

  Electronic Dipole Moment: [e a0]
     X:    -0.7493      Y:     0.0050      Z:    -0.0011

  Dipole Moment: [e a0]
     X:     0.0779      Y:     0.0017      Z:    -0.0008     Total:     0.0779

  Dipole Moment: [D]
     X:     0.1980      Y:     0.0044      Z:    -0.0020     Total:     0.1981

*** tstop() called on n079 at Fri Nov  5 14:25:01 2021
Module time:
	user time   =     466.91 seconds =       7.78 minutes
	system time =       4.49 seconds =       0.07 minutes
	total time  =        119 seconds =       1.98 minutes
Total time:
	user time   =     466.91 seconds =       7.78 minutes
	system time =       4.49 seconds =       0.07 minutes
	total time  =        119 seconds =       1.98 minutes
Grab this energy -157.8130547976731
    Psi4 stopped on: Friday, 05 November 2021 02:25PM
    Psi4 wall time for execution: 0:01:58.58

*** Psi4 exiting successfully. Buy a developer a beer!
