                               Psi4 1.4a2.dev629

  ==> Input File <==

--------------------------------------------------------------------------
import os
memory 14 GB

molecule {
 C   -0.3265085984   -0.0000023708    0.0004940182
 C    0.0597292746   -1.4006138966   -2.4258830883
 C    0.0596948864    2.8019386024    0.0000404127
 C    0.0599004404   -1.4013212868    2.4271891374
 H    2.0908906929   -1.6440005381   -2.8473017913
 H   -0.7662174624   -0.3849242985   -4.0279067053
 H   -0.7664715558   -3.2952175333   -2.3470796900
 H    2.0871315443    3.2883653511   -0.0000296610
 H   -0.7647123273    3.6795135949    1.6765743846
 H   -0.7645322994    3.6805029977   -1.6772289878
 H    2.0836508928   -1.6444567230    2.8480333852
 H   -0.7626183654   -3.2892315675    2.3500666954
 H   -0.7625449993   -0.3905766453    4.0230318902
units bohr
0 2
}

basis {

assign 6-31g_2dfp_

[ 6-31g_2dfp_ ]

spherical

!----------------------------------------------------------------------
! Basis Set Exchange
! Version v0.8.13
! https://www.basissetexchange.org
!----------------------------------------------------------------------
!   Basis set: 6-31G(2df,p)
! Description: 6-31G(2df,p)
!        Role: orbital
!     Version: 0  (Data from the original Basis Set Exchange)
!----------------------------------------------------------------------

****
H     0
S    3   1.00
     18.7311370              0.03349460
      2.8253937              0.23472695
      0.6401217              0.81375733
S    1   1.00
      0.1612778              1.00000000
P    1   1.00
      1.5000000              1.0000000
P    1   1.00
      0.3750000              1.0000000
****
B     0
S    6   1.00
   2068.8823000              0.0018663
    310.6495700              0.0142515
     70.6830330              0.0695516
     19.8610800              0.2325729
      6.2993048              0.4670787
      2.1270270              0.3634314
SP   3   1.00
      4.7279710             -0.1303938              0.0745976
      1.1903377             -0.1307889              0.3078467
      0.3594117              1.1309444              0.7434568
SP   1   1.00
      0.1267512              1.0000000              1.0000000
D    1   1.00
      0.8020000              1.0000000
D    1   1.00
      0.2005000              1.0000000
F    1   1.00
      0.5000000              1.0000000
****
C     0
S    6   1.00
   3047.5249000              0.0018347
    457.3695100              0.0140373
    103.9486900              0.0688426
     29.2101550              0.2321844
      9.2866630              0.4679413
      3.1639270              0.3623120
SP   3   1.00
      7.8682724             -0.1193324              0.0689991
      1.8812885             -0.1608542              0.3164240
      0.5442493              1.1434564              0.7443083
SP   1   1.00
      0.1687144              1.0000000              1.0000000
D    1   1.00
      1.2520000              1.0000000
D    1   1.00
      0.3130000              1.0000000
F    1   1.00
      0.8000000              1.0000000
****
N     0
S    6   1.00
   4173.5110000              0.0018348
    627.4579000              0.0139950
    142.9021000              0.0685870
     40.2343300              0.2322410
     12.8202100              0.4690700
      4.3904370              0.3604550
SP   3   1.00
     11.6263580             -0.1149610              0.0675800
      2.7162800             -0.1691180              0.3239070
      0.7722180              1.1458520              0.7408950
SP   1   1.00
      0.2120313              1.0000000              1.0000000
D    1   1.00
      1.8260000              1.0000000
D    1   1.00
      0.4565000              1.0000000
F    1   1.00
      1.0000000              1.0000000
****
O     0
S    6   1.00
   5484.6717000              0.0018311
    825.2349500              0.0139501
    188.0469600              0.0684451
     52.9645000              0.2327143
     16.8975700              0.4701930
      5.7996353              0.3585209
SP   3   1.00
     15.5396160             -0.1107775              0.0708743
      3.5999336             -0.1480263              0.3397528
      1.0137618              1.1307670              0.7271586
SP   1   1.00
      0.2700058              1.0000000              1.0000000
D    1   1.00
      2.5840000              1.0000000
D    1   1.00
      0.6460000              1.0000000
F    1   1.00
      1.4000000              1.0000000
****
F     0
S    6   1.00
   7001.7130900              0.0018196169
   1051.3660900              0.0139160796
    239.2856900              0.0684053245
     67.3974453              0.233185760
     21.5199573              0.471267439
      7.40310130             0.356618546
SP   3   1.00
     20.8479528             -0.108506975            0.0716287243
      4.80830834            -0.146451658            0.3459121030
      1.34406986             1.128688580            0.7224699570
SP   1   1.00
      0.358151393            1.0000000              1.0000000
D    1   1.00
      3.5000000              1.0000000
D    1   1.00
      0.8750000              1.0000000
F    1   1.00
      1.8500000              1.0000000
****
Al     0
S    6   1.00
  13983.1000000              0.00194267
   2098.7500000              0.0148599
    477.7050000              0.0728494
    134.3600000              0.2468300
     42.8709000              0.4872580
     14.5189000              0.3234960
SP   6   1.00
    239.6680000             -0.00292619             0.00460285
     57.4419000             -0.0374080              0.0331990
     18.2859000             -0.1144870              0.1362820
      6.5991400              0.1156350              0.3304760
      2.4904900              0.6125950              0.4491460
      0.9445400              0.3937990              0.2657040
SP   3   1.00
      1.2779000             -0.2276060             -0.0175130
      0.3975900              0.00144583             0.2445330
      0.1600950              1.0927900              0.8049340
SP   1   1.00
      0.0556577              1.0000000              1.0000000
D    1   1.00
      0.6500000              1.0000000
D    1   1.00
      0.1625000              1.0000000
F    1   1.00
      0.2500000              1.0000000
****
Si     0
S    6   1.00
  16115.9000000              0.00195948
   2425.5800000              0.01492880
    553.8670000              0.07284780
    156.3400000              0.24613000
     50.0683000              0.48591400
     17.0178000              0.32500200
SP   6   1.00
    292.7180000             -0.00278094             0.00443826
     69.8731000             -0.03571460             0.03266790
     22.3363000             -0.11498500             0.13472100
      8.1503900              0.09356340             0.32867800
      3.1345800              0.60301700             0.44964000
      1.2254300              0.41895900             0.26137200
SP   3   1.00
      1.7273800             -0.24463000            -0.01779510
      0.5729220              0.00431572             0.25353900
      0.2221920              1.09818000             0.80066900
SP   1   1.00
      0.0778369              1.00000000             1.00000000
D    1   1.00
      0.9000000              1.0000000
D    1   1.00
      0.2250000              1.0000000
F    1   1.00
      0.3200000              1.0000000
****
P     0
S    6   1.00
  19413.3000000              0.0018516
   2909.4200000              0.0142062
    661.3640000              0.0699995
    185.7590000              0.2400790
     59.1943000              0.4847620
     20.0310000              0.3352000
SP   6   1.00
    339.4780000             -0.00278217             0.00456462
     81.0101000             -0.0360499              0.03369360
     25.8780000             -0.1166310              0.13975500
      9.4522100              0.0968328              0.33936200
      3.6656600              0.6144180              0.45092100
      1.4674600              0.4037980              0.23858600
SP   3   1.00
      2.1562300             -0.2529230             -0.01776530
      0.7489970              0.0328517              0.27405800
      0.2831450              1.0812500              0.78542100
SP   1   1.00
      0.0998317              1.0000000              1.00000000
D    1   1.00
      1.1000000              1.0000000
D    1   1.00
      0.2750000              1.0000000
F    1   1.00
      0.4500000              1.0000000
****
S     0
S    6   1.00
  21917.1000000              0.0018690
   3301.4900000              0.0142300
    754.1460000              0.0696960
    212.7110000              0.2384870
     67.9896000              0.4833070
     23.0515000              0.3380740
SP   6   1.00
    423.7350000             -0.0023767              0.0040610
    100.7100000             -0.0316930              0.0306810
     32.1599000             -0.1133170              0.1304520
     11.8079000              0.0560900              0.3272050
      4.6311000              0.5922550              0.4528510
      1.8702500              0.4550060              0.2560420
SP   3   1.00
      2.6158400             -0.2503740             -0.0145110
      0.9221670              0.0669570              0.3102630
      0.3412870              1.0545100              0.7544830
SP   1   1.00
      0.1171670              1.0000000              1.0000000
D    1   1.00
      1.3000000              1.0000000
D    1   1.00
      0.3250000              1.0000000
F    1   1.00
      0.5500000              1.0000000
****
Cl     0
S    6   1.00
  25180.1000000              0.0018330
   3780.3500000              0.0140340
    860.4740000              0.0690970
    242.1450000              0.2374520
     77.3349000              0.4830340
     26.2470000              0.3398560
SP   6   1.00
    491.7650000             -0.0022974              0.0039894
    116.9840000             -0.0307140              0.0303180
     37.4153000             -0.1125280              0.1298800
     13.7834000              0.0450160              0.3279510
      5.4521500              0.5893530              0.4535270
      2.2258800              0.4652060              0.2521540
SP   3   1.00
      3.1864900             -0.2518300             -0.0142990
      1.1442700              0.0615890              0.3235720
      0.4203770              1.0601800              0.7435070
SP   1   1.00
      0.1426570              1.0000000              1.0000000
D    1   1.00
      1.5000000              1.0000000
D    1   1.00
      0.3750000              1.0000000
F    1   1.00
      0.7000000              1.0000000
****
}

set {
reference uhf
freeze_core true
e_convergence 10
d_convergence 10
dft_spherical_points 1202
dft_radial_points 99
}

e = energy('b3lyp')

print_out('Grab this energy {0}'.format(e))
--------------------------------------------------------------------------

    Molecular point group: c1

    Geometry (in Bohr), charge = 0, multiplicity = 2:

       Center              X                  Y                   Z               Mass
    ------------   -----------------  -----------------  -----------------  -----------------
         C           -0.325132610205    -0.000002143326     0.000139528496    12.000000000000
         C            0.061105262795    -1.400613669126    -2.426237578004    12.000000000000
         C            0.061070874595     2.801938829874    -0.000314077004    12.000000000000
         C            0.061276428595    -1.401321059326     2.426834647696    12.000000000000
         H            2.092266681095    -1.644000310626    -2.847656281004     1.007825032230
         H           -0.764841474205    -0.384924071026    -4.028261195004     1.007825032230
         H           -0.765095567605    -3.295217305826    -2.347434179704     1.007825032230
         H            2.088507532495     3.288365578574    -0.000384150704     1.007825032230
         H           -0.763336339105     3.679513822374     1.676219894896     1.007825032230
         H           -0.763156311205     3.680503225174    -1.677583477504     1.007825032230
         H            2.085026880995    -1.644456495526     2.847678895496     1.007825032230
         H           -0.761242377205    -3.289231340026     2.349712205696     1.007825032230
         H           -0.761169011105    -0.390576417826     4.022677400496     1.007825032230

  Charge       = 0
  Multiplicity = 2
  Basis Set: ANONYMOUS99A98F4A
    Blend: 6-31G_2DFP_
  Basis Set: (ANONYMOUS99A98F4A AUX)
    Blend: DEF2-UNIVERSAL-JKFIT

    Orbital Energies [Eh]
    ---------------------

    Alpha Occupied:

       1A    -10.180455     2A    -10.167619     3A    -10.167039
       4A    -10.166457     5A     -0.797713     6A     -0.686497
       7A     -0.685853     8A     -0.530797     9A     -0.440890
      10A     -0.434905    11A     -0.434730    12A     -0.382574
      13A     -0.382129    14A     -0.363894    15A     -0.338078
      16A     -0.338016    17A     -0.169077

    Alpha Virtual:

      18A      0.076088    19A      0.134148    20A      0.134158
      21A      0.142608    22A      0.142826    23A      0.154809
      24A      0.178353    25A      0.179000    26A      0.203501
      27A      0.214937    28A      0.275802    29A      0.275892
      30A      0.399131    31A      0.399290    32A      0.403303
      33A      0.423995    34A      0.424185    35A      0.456588
      36A      0.495371    37A      0.495511    38A      0.512058
      39A      0.513982    40A      0.578781    41A      0.579028
      42A      0.591020    43A      0.591619    44A      0.602281
      45A      0.624908    46A      0.631835    47A      0.636036
      48A      0.636804    49A      0.663062    50A      0.663422
      51A      0.683567    52A      0.684200    53A      0.734865
      54A      0.824831    55A      0.825625    56A      0.853964
      57A      0.914849    58A      0.914874    59A      0.944027
      60A      0.944592    61A      0.961138    62A      0.961637
      63A      1.004335    64A      1.127999    65A      1.128663
      66A      1.141849    67A      1.163040    68A      1.163221
      69A      1.222903    70A      1.274022    71A      1.274384
      72A      1.279200    73A      1.324112    74A      1.324817
      75A      1.354953    76A      1.366137    77A      1.366664
      78A      1.392531    79A      1.403035    80A      1.403805
      81A      1.416193    82A      1.416813    83A      1.427734
      84A      1.491958    85A      1.498582    86A      1.543166
      87A      1.543261    88A      1.574260    89A      1.574836
      90A      1.670332    91A      1.739111    92A      1.739274
      93A      1.768116    94A      1.830155    95A      1.833359
      96A      1.972258    97A      2.017788    98A      2.018718
      99A      2.018986   100A      2.052214   101A      2.052374
     102A      2.737709   103A      2.738601   104A      2.790706
     105A      2.811703   106A      2.889480   107A      2.890028
     108A      2.895015   109A      2.929538   110A      2.929755
     111A      2.959172   112A      2.963824   113A      2.964877
     114A      3.033981   115A      3.070440   116A      3.070885
     117A      3.084443   118A      3.168637   119A      3.168893
     120A      3.180785   121A      3.285594   122A      3.285742
     123A      3.328049   124A      3.328143   125A      3.375311
     126A      3.489151   127A      3.490809   128A      3.513558
     129A      3.525503   130A      3.567903   131A      3.567983
     132A      3.574744   133A      3.665607   134A      3.667076
     135A      3.680668   136A      3.693394   137A      3.694325
     138A      3.775353   139A      3.776524   140A      3.787801
     141A      3.911876   142A      3.912762   143A      4.033268
     144A      4.110960   145A      4.112415   146A      4.146303
     147A      4.150301   148A      4.173176   149A      4.200408
     150A      4.202603   151A      4.204691   152A      4.211057
     153A      4.315066   154A      4.316434   155A      4.359040
     156A      4.423577   157A      4.423985   158A      4.444426
     159A      4.516733   160A      4.517196   161A      4.577928
     162A      4.578854   163A      4.616659   164A      4.709071
     165A      4.774254   166A      4.774445   167A      4.836640
     168A      4.962927   169A      5.001687   170A      5.002841
     171A      5.227772   172A      5.243121   173A      5.250498
     174A      5.353032   175A      5.359070   176A      5.478918

    Beta Occupied:

       1A    -10.168380     2A    -10.167798     3A    -10.167219
       4A    -10.166630     5A     -0.781054     6A     -0.684303
       7A     -0.683660     8A     -0.511773     9A     -0.431298
      10A     -0.431101    11A     -0.421581    12A     -0.376655
      13A     -0.376193    14A     -0.362879    15A     -0.333192
      16A     -0.333143

    Beta Virtual:

      17A     -0.025892    18A      0.077098    19A      0.135024
      20A      0.135129    21A      0.144517    22A      0.144638
      23A      0.163300    24A      0.182023    25A      0.182651
      26A      0.215163    27A      0.218861    28A      0.282159
      29A      0.282254    30A      0.400301    31A      0.400467
      32A      0.419809    33A      0.426800    34A      0.426996
      35A      0.468432    36A      0.497632    37A      0.497772
      38A      0.513798    39A      0.556280    40A      0.584315
      41A      0.584576    42A      0.597240    43A      0.597795
      44A      0.609725    45A      0.628252    46A      0.632029
      47A      0.639308    48A      0.640034    49A      0.666639
      50A      0.667027    51A      0.686235    52A      0.686798
      53A      0.757395    54A      0.829994    55A      0.830840
      56A      0.855321    57A      0.922827    58A      0.922847
      59A      0.945864    60A      0.953486    61A      0.966455
      62A      0.966897    63A      1.009623    64A      1.131908
      65A      1.132601    66A      1.155237    67A      1.168162
      68A      1.168368    69A      1.231869    70A      1.279635
      71A      1.280001    72A      1.284946    73A      1.329112
      74A      1.329913    75A      1.364346    76A      1.371400
      77A      1.371900    78A      1.393600    79A      1.406463
      80A      1.407271    81A      1.421182    82A      1.421894
      83A      1.427985    84A      1.493010    85A      1.509004
      86A      1.547637    87A      1.547823    88A      1.582037
      89A      1.582595    90A      1.675163    91A      1.744900
      92A      1.745030    93A      1.778900    94A      1.834033
      95A      1.837180    96A      1.973119    97A      2.025066
      98A      2.025123    99A      2.039423   100A      2.058894
     101A      2.059173   102A      2.746033   103A      2.746953
     104A      2.812114   105A      2.815790   106A      2.902275
     107A      2.902662   108A      2.924609   109A      2.932044
     110A      2.932161   111A      2.960236   112A      2.968344
     113A      2.969476   114A      3.041954   115A      3.080303
     116A      3.080860   117A      3.086296   118A      3.184266
     119A      3.184597   120A      3.188543   121A      3.290323
     122A      3.290525   123A      3.331888   124A      3.331943
     125A      3.383091   126A      3.491922   127A      3.493516
     128A      3.511924   129A      3.528511   130A      3.574497
     131A      3.581363   132A      3.581438   133A      3.670238
     134A      3.671812   135A      3.693976   136A      3.725028
     137A      3.725964   138A      3.779952   139A      3.781057
     140A      3.816374   141A      3.921709   142A      3.922568
     143A      4.044162   144A      4.117960   145A      4.118977
     146A      4.153754   147A      4.157334   148A      4.187258
     149A      4.207105   150A      4.208736   151A      4.211683
     152A      4.215573   153A      4.322616   154A      4.323735
     155A      4.362418   156A      4.431876   157A      4.432194
     158A      4.447319   159A      4.524589   160A      4.524929
     161A      4.588552   162A      4.589383   163A      4.623777
     164A      4.719504   165A      4.781151   166A      4.781406
     167A      4.839554   168A      4.967739   169A      5.005756
     170A      5.006876   171A      5.233450   172A      5.244904
     173A      5.252275   174A      5.359508   175A      5.365516
     176A      5.481238

    Final Occupation by Irrep:
              A
    DOCC [    16 ]
    SOCC [     1 ]

  @DF-UKS Final Energy:  -157.81305102019775

   => Energetics <=

    Nuclear Repulsion Energy =            125.3859208036048329
    One-Electron Energy =                -458.7313673704029497
    Two-Electron Energy =                 195.8392877597413815
    DFT Exchange-Correlation Energy =     -20.3068922131410332
    Empirical Dispersion Energy =           0.0000000000000000
    VV10 Nonlocal Energy =                  0.0000000000000000
    Total Energy =                       -157.8130510201977472

  UHF NO Occupations:
  HONO-2 :   15  A 1.9995999
  HONO-1 :   16  A 1.9989813
  HONO-0 :   17  A 1.0000000
  LUNO+0 :   18  A 0.0010187
  LUNO+1 :   19  A 0.0004001
  LUNO+2 :   20  A 0.0001977
  LUNO+3 :   21  A 0.0001976

Computation Completed

Properties will be evaluated at   0.000000,   0.000000,   0.000000 [a0]

Properties computed using the SCF density matrix

  Nuclear Dipole Moment: [e a0]
     X:     0.8369      Y:    -0.0000      Z:    -0.0025

  Electronic Dipole Moment: [e a0]
     X:    -0.7591      Y:     0.0000      Z:     0.0049

  Dipole Moment: [e a0]
     X:     0.0778      Y:     0.0000      Z:     0.0024     Total:     0.0778

  Dipole Moment: [D]
     X:     0.1977      Y:     0.0000      Z:     0.0062     Total:     0.1978

*** tstop() called on n079 at Fri Nov  5 13:35:08 2021
Module time:
	user time   =     494.83 seconds =       8.25 minutes
	system time =       4.62 seconds =       0.08 minutes
	total time  =        126 seconds =       2.10 minutes
Total time:
	user time   =     494.83 seconds =       8.25 minutes
	system time =       4.62 seconds =       0.08 minutes
	total time  =        126 seconds =       2.10 minutes
Grab this energy -157.81305102019775
    Psi4 stopped on: Friday, 05 November 2021 01:35PM
    Psi4 wall time for execution: 0:02:05.60

*** Psi4 exiting successfully. Buy a developer a beer!
