                               Psi4 1.4a2.dev629

  ==> Input File <==

--------------------------------------------------------------------------
import os
memory 14 GB

molecule {
 C   -0.3233396811    0.0004297228    0.0019990626
 C    0.0611197741   -1.4007283131   -2.4273737789
 C    0.0613291981    2.8016521165    0.0011570223
 C    0.0608528508   -1.3989980295    2.4266832218
 H    2.0871975380   -1.6452305132   -2.8513682476
 H   -0.7625567310   -0.3876431141   -4.0215334091
 H   -0.7696485617   -3.2953598727   -2.3510608957
 H    2.0858839210    3.2881155512    0.0040945613
 H   -0.7666686355    3.6857305495    1.6766155208
 H   -0.7639213189    3.6744793012   -1.6782008402
 H    2.0875850951   -1.6377132238    2.8465366225
 H   -0.7673917420   -3.2922852306    2.3467880321
 H   -0.7630495835   -0.3924732579    4.0256631283
units bohr
0 2
}

basis {

assign 6-31g_2dfp_

[ 6-31g_2dfp_ ]

spherical

!----------------------------------------------------------------------
! Basis Set Exchange
! Version v0.8.13
! https://www.basissetexchange.org
!----------------------------------------------------------------------
!   Basis set: 6-31G(2df,p)
! Description: 6-31G(2df,p)
!        Role: orbital
!     Version: 0  (Data from the original Basis Set Exchange)
!----------------------------------------------------------------------

****
H     0
S    3   1.00
     18.7311370              0.03349460
      2.8253937              0.23472695
      0.6401217              0.81375733
S    1   1.00
      0.1612778              1.00000000
P    1   1.00
      1.5000000              1.0000000
P    1   1.00
      0.3750000              1.0000000
****
B     0
S    6   1.00
   2068.8823000              0.0018663
    310.6495700              0.0142515
     70.6830330              0.0695516
     19.8610800              0.2325729
      6.2993048              0.4670787
      2.1270270              0.3634314
SP   3   1.00
      4.7279710             -0.1303938              0.0745976
      1.1903377             -0.1307889              0.3078467
      0.3594117              1.1309444              0.7434568
SP   1   1.00
      0.1267512              1.0000000              1.0000000
D    1   1.00
      0.8020000              1.0000000
D    1   1.00
      0.2005000              1.0000000
F    1   1.00
      0.5000000              1.0000000
****
C     0
S    6   1.00
   3047.5249000              0.0018347
    457.3695100              0.0140373
    103.9486900              0.0688426
     29.2101550              0.2321844
      9.2866630              0.4679413
      3.1639270              0.3623120
SP   3   1.00
      7.8682724             -0.1193324              0.0689991
      1.8812885             -0.1608542              0.3164240
      0.5442493              1.1434564              0.7443083
SP   1   1.00
      0.1687144              1.0000000              1.0000000
D    1   1.00
      1.2520000              1.0000000
D    1   1.00
      0.3130000              1.0000000
F    1   1.00
      0.8000000              1.0000000
****
N     0
S    6   1.00
   4173.5110000              0.0018348
    627.4579000              0.0139950
    142.9021000              0.0685870
     40.2343300              0.2322410
     12.8202100              0.4690700
      4.3904370              0.3604550
SP   3   1.00
     11.6263580             -0.1149610              0.0675800
      2.7162800             -0.1691180              0.3239070
      0.7722180              1.1458520              0.7408950
SP   1   1.00
      0.2120313              1.0000000              1.0000000
D    1   1.00
      1.8260000              1.0000000
D    1   1.00
      0.4565000              1.0000000
F    1   1.00
      1.0000000              1.0000000
****
O     0
S    6   1.00
   5484.6717000              0.0018311
    825.2349500              0.0139501
    188.0469600              0.0684451
     52.9645000              0.2327143
     16.8975700              0.4701930
      5.7996353              0.3585209
SP   3   1.00
     15.5396160             -0.1107775              0.0708743
      3.5999336             -0.1480263              0.3397528
      1.0137618              1.1307670              0.7271586
SP   1   1.00
      0.2700058              1.0000000              1.0000000
D    1   1.00
      2.5840000              1.0000000
D    1   1.00
      0.6460000              1.0000000
F    1   1.00
      1.4000000              1.0000000
****
F     0
S    6   1.00
   7001.7130900              0.0018196169
   1051.3660900              0.0139160796
    239.2856900              0.0684053245
     67.3974453              0.233185760
     21.5199573              0.471267439
      7.40310130             0.356618546
SP   3   1.00
     20.8479528             -0.108506975            0.0716287243
      4.80830834            -0.146451658            0.3459121030
      1.34406986             1.128688580            0.7224699570
SP   1   1.00
      0.358151393            1.0000000              1.0000000
D    1   1.00
      3.5000000              1.0000000
D    1   1.00
      0.8750000              1.0000000
F    1   1.00
      1.8500000              1.0000000
****
Al     0
S    6   1.00
  13983.1000000              0.00194267
   2098.7500000              0.0148599
    477.7050000              0.0728494
    134.3600000              0.2468300
     42.8709000              0.4872580
     14.5189000              0.3234960
SP   6   1.00
    239.6680000             -0.00292619             0.00460285
     57.4419000             -0.0374080              0.0331990
     18.2859000             -0.1144870              0.1362820
      6.5991400              0.1156350              0.3304760
      2.4904900              0.6125950              0.4491460
      0.9445400              0.3937990              0.2657040
SP   3   1.00
      1.2779000             -0.2276060             -0.0175130
      0.3975900              0.00144583             0.2445330
      0.1600950              1.0927900              0.8049340
SP   1   1.00
      0.0556577              1.0000000              1.0000000
D    1   1.00
      0.6500000              1.0000000
D    1   1.00
      0.1625000              1.0000000
F    1   1.00
      0.2500000              1.0000000
****
Si     0
S    6   1.00
  16115.9000000              0.00195948
   2425.5800000              0.01492880
    553.8670000              0.07284780
    156.3400000              0.24613000
     50.0683000              0.48591400
     17.0178000              0.32500200
SP   6   1.00
    292.7180000             -0.00278094             0.00443826
     69.8731000             -0.03571460             0.03266790
     22.3363000             -0.11498500             0.13472100
      8.1503900              0.09356340             0.32867800
      3.1345800              0.60301700             0.44964000
      1.2254300              0.41895900             0.26137200
SP   3   1.00
      1.7273800             -0.24463000            -0.01779510
      0.5729220              0.00431572             0.25353900
      0.2221920              1.09818000             0.80066900
SP   1   1.00
      0.0778369              1.00000000             1.00000000
D    1   1.00
      0.9000000              1.0000000
D    1   1.00
      0.2250000              1.0000000
F    1   1.00
      0.3200000              1.0000000
****
P     0
S    6   1.00
  19413.3000000              0.0018516
   2909.4200000              0.0142062
    661.3640000              0.0699995
    185.7590000              0.2400790
     59.1943000              0.4847620
     20.0310000              0.3352000
SP   6   1.00
    339.4780000             -0.00278217             0.00456462
     81.0101000             -0.0360499              0.03369360
     25.8780000             -0.1166310              0.13975500
      9.4522100              0.0968328              0.33936200
      3.6656600              0.6144180              0.45092100
      1.4674600              0.4037980              0.23858600
SP   3   1.00
      2.1562300             -0.2529230             -0.01776530
      0.7489970              0.0328517              0.27405800
      0.2831450              1.0812500              0.78542100
SP   1   1.00
      0.0998317              1.0000000              1.00000000
D    1   1.00
      1.1000000              1.0000000
D    1   1.00
      0.2750000              1.0000000
F    1   1.00
      0.4500000              1.0000000
****
S     0
S    6   1.00
  21917.1000000              0.0018690
   3301.4900000              0.0142300
    754.1460000              0.0696960
    212.7110000              0.2384870
     67.9896000              0.4833070
     23.0515000              0.3380740
SP   6   1.00
    423.7350000             -0.0023767              0.0040610
    100.7100000             -0.0316930              0.0306810
     32.1599000             -0.1133170              0.1304520
     11.8079000              0.0560900              0.3272050
      4.6311000              0.5922550              0.4528510
      1.8702500              0.4550060              0.2560420
SP   3   1.00
      2.6158400             -0.2503740             -0.0145110
      0.9221670              0.0669570              0.3102630
      0.3412870              1.0545100              0.7544830
SP   1   1.00
      0.1171670              1.0000000              1.0000000
D    1   1.00
      1.3000000              1.0000000
D    1   1.00
      0.3250000              1.0000000
F    1   1.00
      0.5500000              1.0000000
****
Cl     0
S    6   1.00
  25180.1000000              0.0018330
   3780.3500000              0.0140340
    860.4740000              0.0690970
    242.1450000              0.2374520
     77.3349000              0.4830340
     26.2470000              0.3398560
SP   6   1.00
    491.7650000             -0.0022974              0.0039894
    116.9840000             -0.0307140              0.0303180
     37.4153000             -0.1125280              0.1298800
     13.7834000              0.0450160              0.3279510
      5.4521500              0.5893530              0.4535270
      2.2258800              0.4652060              0.2521540
SP   3   1.00
      3.1864900             -0.2518300             -0.0142990
      1.1442700              0.0615890              0.3235720
      0.4203770              1.0601800              0.7435070
SP   1   1.00
      0.1426570              1.0000000              1.0000000
D    1   1.00
      1.5000000              1.0000000
D    1   1.00
      0.3750000              1.0000000
F    1   1.00
      0.7000000              1.0000000
****
}

set {
reference uhf
freeze_core true
e_convergence 10
d_convergence 10
dft_spherical_points 1202
dft_radial_points 99
}

e = energy('b3lyp')

print_out('Grab this energy {0}'.format(e))
--------------------------------------------------------------------------

    Molecular point group: c1

    Geometry (in Bohr), charge = 0, multiplicity = 2:

       Center              X                  Y                   Z               Mass
    ------------   -----------------  -----------------  -----------------  -----------------
         C           -0.323340090728    -0.000023533467     0.001524184184    12.000000000000
         C            0.061119364472    -1.401181569367    -2.427848657316    12.000000000000
         C            0.061328788472     2.801198860233     0.000682143884    12.000000000000
         C            0.060852441172    -1.399451285767     2.426208343384    12.000000000000
         H            2.087197128372    -1.645683769467    -2.851843126016     1.007825032230
         H           -0.762557140628    -0.388096370367    -4.022008287516     1.007825032230
         H           -0.769648971328    -3.295813128967    -2.351535774116     1.007825032230
         H            2.085883511372     3.287662294933     0.003619682884     1.007825032230
         H           -0.766669045128     3.685277293233     1.676140642384     1.007825032230
         H           -0.763921728528     3.674026044933    -1.678675718616     1.007825032230
         H            2.087584685472    -1.638166480067     2.846061744084     1.007825032230
         H           -0.767392151628    -3.292738486867     2.346313153684     1.007825032230
         H           -0.763049993128    -0.392926514167     4.025188249884     1.007825032230

  Charge       = 0
  Multiplicity = 2
  Basis Set: ANONYMOUS6AF17F68
    Blend: 6-31G_2DFP_
  Basis Set: (ANONYMOUS6AF17F68 AUX)
    Blend: DEF2-UNIVERSAL-JKFIT

    Orbital Energies [Eh]
    ---------------------

    Alpha Occupied:

       1A    -10.180342     2A    -10.167171     3A    -10.167022
       4A    -10.166851     5A     -0.797767     6A     -0.686324
       7A     -0.686052     8A     -0.530778     9A     -0.441131
      10A     -0.434867    11A     -0.434469    12A     -0.382641
      13A     -0.382557    14A     -0.363613    15A     -0.338172
      16A     -0.337823    17A     -0.168961

    Alpha Virtual:

      18A      0.076070    19A      0.134035    20A      0.134271
      21A      0.142412    22A      0.142839    23A      0.154883
      24A      0.178677    25A      0.178879    26A      0.203548
      27A      0.214805    28A      0.275695    29A      0.276277
      30A      0.398975    31A      0.399471    32A      0.403354
      33A      0.423926    34A      0.424270    35A      0.456593
      36A      0.495312    37A      0.495468    38A      0.512160
      39A      0.513979    40A      0.578522    41A      0.579110
      42A      0.591300    43A      0.591960    44A      0.602575
      45A      0.624714    46A      0.631769    47A      0.635967
      48A      0.636588    49A      0.663199    50A      0.663624
      51A      0.683657    52A      0.684066    53A      0.734994
      54A      0.825073    55A      0.825738    56A      0.853915
      57A      0.914769    58A      0.915269    59A      0.944122
      60A      0.944607    61A      0.960599    62A      0.961996
      63A      1.003465    64A      1.127746    65A      1.128464
      66A      1.142221    67A      1.163154    68A      1.163401
      69A      1.223324    70A      1.274202    71A      1.274772
      72A      1.279351    73A      1.324143    74A      1.324561
      75A      1.355992    76A      1.365704    77A      1.366399
      78A      1.392447    79A      1.403736    80A      1.404366
      81A      1.416311    82A      1.417916    83A      1.427902
      84A      1.491498    85A      1.499070    86A      1.542561
      87A      1.543111    88A      1.574253    89A      1.574643
      90A      1.669838    91A      1.738622    92A      1.740210
      93A      1.768318    94A      1.830482    95A      1.832300
      96A      1.971755    97A      2.017592    98A      2.018714
      99A      2.020079   100A      2.051675   101A      2.053625
     102A      2.738150   103A      2.738814   104A      2.790929
     105A      2.811416   106A      2.889626   107A      2.890248
     108A      2.894986   109A      2.929469   110A      2.929530
     111A      2.958961   112A      2.964243   113A      2.964548
     114A      3.034010   115A      3.070730   116A      3.071772
     117A      3.084438   118A      3.168322   119A      3.169246
     120A      3.180587   121A      3.285145   122A      3.285476
     123A      3.326654   124A      3.327665   125A      3.375629
     126A      3.489835   127A      3.490468   128A      3.514026
     129A      3.525307   130A      3.567793   131A      3.568921
     132A      3.575212   133A      3.665876   134A      3.666884
     135A      3.679618   136A      3.693652   137A      3.694665
     138A      3.775556   139A      3.778035   140A      3.789162
     141A      3.911588   142A      3.912874   143A      4.034439
     144A      4.109965   145A      4.112684   146A      4.147059
     147A      4.149079   148A      4.173376   149A      4.202274
     150A      4.202655   151A      4.203772   152A      4.211002
     153A      4.314891   154A      4.316998   155A      4.359028
     156A      4.423857   157A      4.425062   158A      4.443468
     159A      4.515706   160A      4.517954   161A      4.577924
     162A      4.578587   163A      4.617542   164A      4.709433
     165A      4.773181   166A      4.776031   167A      4.836960
     168A      4.962860   169A      5.002457   170A      5.003467
     171A      5.227576   172A      5.246587   173A      5.247451
     174A      5.354049   175A      5.356985   176A      5.479420

    Beta Occupied:

       1A    -10.167929     2A    -10.167782     3A    -10.167613
       4A    -10.166519     5A     -0.781092     6A     -0.684120
       7A     -0.683861     8A     -0.511749     9A     -0.431240
      10A     -0.430849    11A     -0.421817    12A     -0.376720
      13A     -0.376649    14A     -0.362596    15A     -0.333289
      16A     -0.332951

    Beta Virtual:

      17A     -0.025743    18A      0.077079    19A      0.134903
      20A      0.135184    21A      0.144255    22A      0.144738
      23A      0.163341    24A      0.182354    25A      0.182544
      26A      0.215035    27A      0.218930    28A      0.282052
      29A      0.282615    30A      0.400142    31A      0.400652
      32A      0.419789    33A      0.426737    34A      0.427084
      35A      0.468500    36A      0.497571    37A      0.497731
      38A      0.513895    39A      0.556324    40A      0.584071
      41A      0.584661    42A      0.597481    43A      0.598137
      44A      0.609998    45A      0.628094    46A      0.631927
      47A      0.639267    48A      0.639856    49A      0.666778
      50A      0.667173    51A      0.686310    52A      0.686682
      53A      0.757517    54A      0.830236    55A      0.830913
      56A      0.855268    57A      0.922775    58A      0.923204
      59A      0.945959    60A      0.953529    61A      0.965957
      62A      0.967257    63A      1.008706    64A      1.131730
      65A      1.132538    66A      1.155600    67A      1.168285
      68A      1.168414    69A      1.232296    70A      1.279785
      71A      1.280382    72A      1.285106    73A      1.329133
      74A      1.329548    75A      1.365408    76A      1.371015
      77A      1.371573    78A      1.393508    79A      1.407172
      80A      1.407858    81A      1.421408    82A      1.422920
      83A      1.428171    84A      1.492548    85A      1.509514
      86A      1.546966    87A      1.547524    88A      1.582120
      89A      1.582515    90A      1.674685    91A      1.744369
      92A      1.745990    93A      1.779094    94A      1.834336
      95A      1.836158    96A      1.972616    97A      2.024870
      98A      2.025975    99A      2.039707   100A      2.058359
     101A      2.060382   102A      2.746493   103A      2.747145
     104A      2.811829   105A      2.816062   106A      2.902355
     107A      2.902926   108A      2.924662   109A      2.931951
     110A      2.932008   111A      2.960036   112A      2.968791
     113A      2.969075   114A      3.041944   115A      3.080639
     116A      3.081536   117A      3.086402   118A      3.184085
     119A      3.184976   120A      3.188276   121A      3.289925
     122A      3.290295   123A      3.330442   124A      3.331484
     125A      3.383448   126A      3.492582   127A      3.493178
     128A      3.512394   129A      3.528359   130A      3.574886
     131A      3.581209   132A      3.582359   133A      3.670799
     134A      3.671491   135A      3.692923   136A      3.725636
     137A      3.725902   138A      3.780127   139A      3.782521
     140A      3.817702   141A      3.921349   142A      3.922744
     143A      4.045327   144A      4.116785   145A      4.119503
     146A      4.154174   147A      4.156401   148A      4.187405
     149A      4.208248   150A      4.209643   151A      4.210637
     152A      4.215497   153A      4.322336   154A      4.324431
     155A      4.362397   156A      4.432103   157A      4.433239
     158A      4.446357   159A      4.523493   160A      4.525745
     161A      4.588523   162A      4.589188   163A      4.624738
     164A      4.719776   165A      4.780186   166A      4.782934
     167A      4.839880   168A      4.967654   169A      5.006491
     170A      5.007511   171A      5.233184   172A      5.248403
     173A      5.249315   174A      5.360525   175A      5.363464
     176A      5.481743

    Final Occupation by Irrep:
              A
    DOCC [    16 ]
    SOCC [     1 ]

  @DF-UKS Final Energy:  -157.81305641411819

   => Energetics <=

    Nuclear Repulsion Energy =            125.3946641690336605
    One-Electron Energy =                -458.7489536629008740
    Two-Electron Energy =                 195.8483799609242340
    DFT Exchange-Correlation Energy =     -20.3071468811752247
    Empirical Dispersion Energy =           0.0000000000000000
    VV10 Nonlocal Energy =                  0.0000000000000000
    Total Energy =                       -157.8130564141181935

  UHF NO Occupations:
  HONO-2 :   15  A 1.9996009
  HONO-1 :   16  A 1.9989804
  HONO-0 :   17  A 1.0000000
  LUNO+0 :   18  A 0.0010196
  LUNO+1 :   19  A 0.0003991
  LUNO+2 :   20  A 0.0001979
  LUNO+3 :   21  A 0.0001972

Computation Completed

Properties will be evaluated at   0.000000,   0.000000,   0.000000 [a0]

Properties computed using the SCF density matrix

  Nuclear Dipole Moment: [e a0]
     X:     0.8272      Y:    -0.0032      Z:    -0.0033

  Electronic Dipole Moment: [e a0]
     X:    -0.7493      Y:     0.0049      Z:     0.0034

  Dipole Moment: [e a0]
     X:     0.0779      Y:     0.0017      Z:     0.0000     Total:     0.0779

  Dipole Moment: [D]
     X:     0.1980      Y:     0.0044      Z:     0.0001     Total:     0.1981

*** tstop() called on n049 at Fri Nov  5 14:27:37 2021
Module time:
	user time   =     542.25 seconds =       9.04 minutes
	system time =      11.97 seconds =       0.20 minutes
	total time  =        139 seconds =       2.32 minutes
Total time:
	user time   =     542.25 seconds =       9.04 minutes
	system time =      11.97 seconds =       0.20 minutes
	total time  =        139 seconds =       2.32 minutes
Grab this energy -157.8130564141182
    Psi4 stopped on: Friday, 05 November 2021 02:27PM
    Psi4 wall time for execution: 0:02:19.50

*** Psi4 exiting successfully. Buy a developer a beer!
