                               Psi4 1.4a2.dev629

  ==> Input File <==

--------------------------------------------------------------------------
import os
memory 14 GB

molecule {
 C   -0.3233404073   -0.0017519093    0.0000000000
 C    0.0616174562   -1.4016111114   -2.4253964933
 C    0.0600631997    2.8027309242    0.0000000000
 C    0.0616174562   -1.4016111114    2.4253964933
 H    2.0886661976   -1.6489386833   -2.8455211495
 H   -0.7623047488   -0.3837609871   -4.0192211373
 H   -0.7665151203   -3.2928561836   -2.3537383605
 H    2.0833282635    3.2865983979    0.0000000000
 H   -0.7677932511    3.6833661022    1.6773784836
 H   -0.7677932511    3.6833661022   -1.6773784836
 H    2.0886661976   -1.6489386833    2.8455211495
 H   -0.7665151203   -3.2928561836    2.3537383605
 H   -0.7623047488   -0.3837609871    4.0192211373
units bohr
0 2
}

basis {

assign 6-31g_2dfp_

[ 6-31g_2dfp_ ]

spherical

!----------------------------------------------------------------------
! Basis Set Exchange
! Version v0.8.13
! https://www.basissetexchange.org
!----------------------------------------------------------------------
!   Basis set: 6-31G(2df,p)
! Description: 6-31G(2df,p)
!        Role: orbital
!     Version: 0  (Data from the original Basis Set Exchange)
!----------------------------------------------------------------------

****
H     0
S    3   1.00
     18.7311370              0.03349460
      2.8253937              0.23472695
      0.6401217              0.81375733
S    1   1.00
      0.1612778              1.00000000
P    1   1.00
      1.5000000              1.0000000
P    1   1.00
      0.3750000              1.0000000
****
B     0
S    6   1.00
   2068.8823000              0.0018663
    310.6495700              0.0142515
     70.6830330              0.0695516
     19.8610800              0.2325729
      6.2993048              0.4670787
      2.1270270              0.3634314
SP   3   1.00
      4.7279710             -0.1303938              0.0745976
      1.1903377             -0.1307889              0.3078467
      0.3594117              1.1309444              0.7434568
SP   1   1.00
      0.1267512              1.0000000              1.0000000
D    1   1.00
      0.8020000              1.0000000
D    1   1.00
      0.2005000              1.0000000
F    1   1.00
      0.5000000              1.0000000
****
C     0
S    6   1.00
   3047.5249000              0.0018347
    457.3695100              0.0140373
    103.9486900              0.0688426
     29.2101550              0.2321844
      9.2866630              0.4679413
      3.1639270              0.3623120
SP   3   1.00
      7.8682724             -0.1193324              0.0689991
      1.8812885             -0.1608542              0.3164240
      0.5442493              1.1434564              0.7443083
SP   1   1.00
      0.1687144              1.0000000              1.0000000
D    1   1.00
      1.2520000              1.0000000
D    1   1.00
      0.3130000              1.0000000
F    1   1.00
      0.8000000              1.0000000
****
N     0
S    6   1.00
   4173.5110000              0.0018348
    627.4579000              0.0139950
    142.9021000              0.0685870
     40.2343300              0.2322410
     12.8202100              0.4690700
      4.3904370              0.3604550
SP   3   1.00
     11.6263580             -0.1149610              0.0675800
      2.7162800             -0.1691180              0.3239070
      0.7722180              1.1458520              0.7408950
SP   1   1.00
      0.2120313              1.0000000              1.0000000
D    1   1.00
      1.8260000              1.0000000
D    1   1.00
      0.4565000              1.0000000
F    1   1.00
      1.0000000              1.0000000
****
O     0
S    6   1.00
   5484.6717000              0.0018311
    825.2349500              0.0139501
    188.0469600              0.0684451
     52.9645000              0.2327143
     16.8975700              0.4701930
      5.7996353              0.3585209
SP   3   1.00
     15.5396160             -0.1107775              0.0708743
      3.5999336             -0.1480263              0.3397528
      1.0137618              1.1307670              0.7271586
SP   1   1.00
      0.2700058              1.0000000              1.0000000
D    1   1.00
      2.5840000              1.0000000
D    1   1.00
      0.6460000              1.0000000
F    1   1.00
      1.4000000              1.0000000
****
F     0
S    6   1.00
   7001.7130900              0.0018196169
   1051.3660900              0.0139160796
    239.2856900              0.0684053245
     67.3974453              0.233185760
     21.5199573              0.471267439
      7.40310130             0.356618546
SP   3   1.00
     20.8479528             -0.108506975            0.0716287243
      4.80830834            -0.146451658            0.3459121030
      1.34406986             1.128688580            0.7224699570
SP   1   1.00
      0.358151393            1.0000000              1.0000000
D    1   1.00
      3.5000000              1.0000000
D    1   1.00
      0.8750000              1.0000000
F    1   1.00
      1.8500000              1.0000000
****
Al     0
S    6   1.00
  13983.1000000              0.00194267
   2098.7500000              0.0148599
    477.7050000              0.0728494
    134.3600000              0.2468300
     42.8709000              0.4872580
     14.5189000              0.3234960
SP   6   1.00
    239.6680000             -0.00292619             0.00460285
     57.4419000             -0.0374080              0.0331990
     18.2859000             -0.1144870              0.1362820
      6.5991400              0.1156350              0.3304760
      2.4904900              0.6125950              0.4491460
      0.9445400              0.3937990              0.2657040
SP   3   1.00
      1.2779000             -0.2276060             -0.0175130
      0.3975900              0.00144583             0.2445330
      0.1600950              1.0927900              0.8049340
SP   1   1.00
      0.0556577              1.0000000              1.0000000
D    1   1.00
      0.6500000              1.0000000
D    1   1.00
      0.1625000              1.0000000
F    1   1.00
      0.2500000              1.0000000
****
Si     0
S    6   1.00
  16115.9000000              0.00195948
   2425.5800000              0.01492880
    553.8670000              0.07284780
    156.3400000              0.24613000
     50.0683000              0.48591400
     17.0178000              0.32500200
SP   6   1.00
    292.7180000             -0.00278094             0.00443826
     69.8731000             -0.03571460             0.03266790
     22.3363000             -0.11498500             0.13472100
      8.1503900              0.09356340             0.32867800
      3.1345800              0.60301700             0.44964000
      1.2254300              0.41895900             0.26137200
SP   3   1.00
      1.7273800             -0.24463000            -0.01779510
      0.5729220              0.00431572             0.25353900
      0.2221920              1.09818000             0.80066900
SP   1   1.00
      0.0778369              1.00000000             1.00000000
D    1   1.00
      0.9000000              1.0000000
D    1   1.00
      0.2250000              1.0000000
F    1   1.00
      0.3200000              1.0000000
****
P     0
S    6   1.00
  19413.3000000              0.0018516
   2909.4200000              0.0142062
    661.3640000              0.0699995
    185.7590000              0.2400790
     59.1943000              0.4847620
     20.0310000              0.3352000
SP   6   1.00
    339.4780000             -0.00278217             0.00456462
     81.0101000             -0.0360499              0.03369360
     25.8780000             -0.1166310              0.13975500
      9.4522100              0.0968328              0.33936200
      3.6656600              0.6144180              0.45092100
      1.4674600              0.4037980              0.23858600
SP   3   1.00
      2.1562300             -0.2529230             -0.01776530
      0.7489970              0.0328517              0.27405800
      0.2831450              1.0812500              0.78542100
SP   1   1.00
      0.0998317              1.0000000              1.00000000
D    1   1.00
      1.1000000              1.0000000
D    1   1.00
      0.2750000              1.0000000
F    1   1.00
      0.4500000              1.0000000
****
S     0
S    6   1.00
  21917.1000000              0.0018690
   3301.4900000              0.0142300
    754.1460000              0.0696960
    212.7110000              0.2384870
     67.9896000              0.4833070
     23.0515000              0.3380740
SP   6   1.00
    423.7350000             -0.0023767              0.0040610
    100.7100000             -0.0316930              0.0306810
     32.1599000             -0.1133170              0.1304520
     11.8079000              0.0560900              0.3272050
      4.6311000              0.5922550              0.4528510
      1.8702500              0.4550060              0.2560420
SP   3   1.00
      2.6158400             -0.2503740             -0.0145110
      0.9221670              0.0669570              0.3102630
      0.3412870              1.0545100              0.7544830
SP   1   1.00
      0.1171670              1.0000000              1.0000000
D    1   1.00
      1.3000000              1.0000000
D    1   1.00
      0.3250000              1.0000000
F    1   1.00
      0.5500000              1.0000000
****
Cl     0
S    6   1.00
  25180.1000000              0.0018330
   3780.3500000              0.0140340
    860.4740000              0.0690970
    242.1450000              0.2374520
     77.3349000              0.4830340
     26.2470000              0.3398560
SP   6   1.00
    491.7650000             -0.0022974              0.0039894
    116.9840000             -0.0307140              0.0303180
     37.4153000             -0.1125280              0.1298800
     13.7834000              0.0450160              0.3279510
      5.4521500              0.5893530              0.4535270
      2.2258800              0.4652060              0.2521540
SP   3   1.00
      3.1864900             -0.2518300             -0.0142990
      1.1442700              0.0615890              0.3235720
      0.4203770              1.0601800              0.7435070
SP   1   1.00
      0.1426570              1.0000000              1.0000000
D    1   1.00
      1.5000000              1.0000000
D    1   1.00
      0.3750000              1.0000000
F    1   1.00
      0.7000000              1.0000000
****
}

set {
reference uhf
freeze_core true
e_convergence 10
d_convergence 10
dft_spherical_points 1202
dft_radial_points 99
}

e = energy('b3lyp')

print_out('Grab this energy {0}'.format(e))
--------------------------------------------------------------------------

    Molecular point group: cs

    Geometry (in Bohr), charge = 0, multiplicity = 2:

       Center              X                  Y                   Z               Mass
    ------------   -----------------  -----------------  -----------------  -----------------
         C           -0.323339962305    -0.001319421940     0.000000000000    12.000000000000
         C            0.061617901195    -1.401178624040    -2.425396493300    12.000000000000
         C            0.060063644695     2.803163411560     0.000000000000    12.000000000000
         C            0.061617901195    -1.401178624040     2.425396493300    12.000000000000
         H            2.088666642595    -1.648506195940    -2.845521149500     1.007825032230
         H           -0.762304303805    -0.383328499740    -4.019221137300     1.007825032230
         H           -0.766514675305    -3.292423696240    -2.353738360500     1.007825032230
         H            2.083328708495     3.287030885260     0.000000000000     1.007825032230
         H           -0.767792806105     3.683798589560     1.677378483600     1.007825032230
         H           -0.767792806105     3.683798589560    -1.677378483600     1.007825032230
         H            2.088666642595    -1.648506195940     2.845521149500     1.007825032230
         H           -0.766514675305    -3.292423696240     2.353738360500     1.007825032230
         H           -0.762304303805    -0.383328499740     4.019221137300     1.007825032230

  Charge       = 0
  Multiplicity = 2
  Basis Set: ANONYMOUSA2E0D1F9
    Blend: 6-31G_2DFP_
  Basis Set: (ANONYMOUSA2E0D1F9 AUX)
    Blend: DEF2-UNIVERSAL-JKFIT

    Orbital Energies [Eh]
    ---------------------

    Alpha Occupied:

       1Ap   -10.180342     2Ap   -10.167232     1App  -10.166922
       3Ap   -10.166890     4Ap    -0.797767     2App   -0.686279
       5Ap    -0.686095     6Ap    -0.530775     7Ap    -0.441129
       8Ap    -0.434682     3App   -0.434658     9Ap    -0.382789
       4App   -0.382408     5App   -0.363609    10Ap    -0.338087
       6App   -0.337911    11Ap    -0.168961

    Alpha Virtual:

      12Ap     0.076073     7App    0.134138    13Ap     0.134169
       8App    0.142362    14Ap     0.142892    15Ap     0.154882
       9App    0.178603    16Ap     0.178950    17Ap     0.203553
      10App    0.214802    18Ap     0.275738    11App    0.276233
      19Ap     0.399058    12App    0.399393    20Ap     0.403348
      21Ap     0.424053    13App    0.424145    22Ap     0.456595
      14App    0.495340    23Ap     0.495437    15App    0.512161
      24Ap     0.513980    25Ap     0.578386    16App    0.579231
      26Ap     0.591593    17App    0.591674    27Ap     0.602584
      28Ap     0.624755    18App    0.631735    19App    0.636112
      29Ap     0.636439    30Ap     0.663406    20App    0.663419
      31Ap     0.683709    21App    0.683998    32Ap     0.734993
      22App    0.825128    33Ap     0.825681    23App    0.853914
      24App    0.914845    34Ap     0.915206    25App    0.944117
      35Ap     0.944591    26App    0.960531    36Ap     0.962080
      37Ap     1.003467    38Ap     1.127894    27App    1.128294
      39Ap     1.142201    40Ap     1.163239    28App    1.163346
      41Ap     1.223329    42Ap     1.274226    29App    1.274748
      43Ap     1.279363    30App    1.324278    44Ap     1.324428
      45Ap     1.355973    46Ap     1.365905    31App    1.366205
      32App    1.392452    33App    1.403882    47Ap     1.404224
      48Ap     1.417058    34App    1.417136    35App    1.427931
      36App    1.491507    49Ap     1.499059    37App    1.542555
      50Ap     1.543111    38App    1.573958    51Ap     1.574943
      52Ap     1.669836    53Ap     1.739109    39App    1.739707
      54Ap     1.768340    55Ap     1.830480    40App    1.832316
      41App    1.971711    56Ap     2.018054    42App    2.018930
      57Ap     2.019414    58Ap     2.052305    43App    2.052993
      44App    2.738197    59Ap     2.738769    60Ap     2.790931
      45App    2.811419    61Ap     2.889384    46App    2.890399
      62Ap     2.895086    47App    2.929216    63Ap     2.929781
      48App    2.958985    64Ap     2.964335    49App    2.964428
      65Ap     3.034013    50App    3.070493    66Ap     3.072067
      51App    3.084345    67Ap     3.168348    52App    3.169225
      68Ap     3.180577    69Ap     3.285162    53App    3.285478
      70Ap     3.325945    54App    3.328372    71Ap     3.375620
      55App    3.489222    72Ap     3.491066    56App    3.514026
      73Ap     3.525312    74Ap     3.568021    57App    3.568765
      58App    3.575170    59App    3.665778    75Ap     3.666900
      76Ap     3.679638    60App    3.693907    77Ap     3.694419
      61App    3.775645    78Ap     3.777995    79Ap     3.789151
      80Ap     3.911841    62App    3.912622    81Ap     4.034455
      82Ap     4.110237    63App    4.112473    83Ap     4.147249
      64App    4.148968    84Ap     4.173251    85Ap     4.201988
      86Ap     4.203372    65App    4.203470    66App    4.210842
      87Ap     4.315364    67App    4.316467    68App    4.359067
      69App    4.424144    88Ap     4.424797    70App    4.443426
      71App    4.516664    89Ap     4.517011    90Ap     4.577908
      72App    4.578610    91Ap     4.617556    92Ap     4.709393
      73App    4.772927    93Ap     4.776310    74App    4.836928
      94Ap     4.962875    75App    5.002745    95Ap     5.003144
      96Ap     5.228058    76App    5.245787    97Ap     5.247848
      98Ap     5.354735    77App    5.356271    78App    5.479359

    Beta Occupied:

       1Ap   -10.167987     1App  -10.167677     2Ap   -10.167660
       3Ap   -10.166519     4Ap    -0.781092     2App   -0.684079
       5Ap    -0.683900     6Ap    -0.511747     7Ap    -0.431086
       3App   -0.431008     8Ap    -0.421816     9Ap    -0.376884
       4App   -0.376483     5App   -0.362593    10Ap    -0.333202
       6App   -0.333041

    Beta Virtual:

      11Ap    -0.025744    12Ap     0.077082     7App    0.135027
      13Ap     0.135060     8App    0.144254    14Ap     0.144744
      15Ap     0.163341     9App    0.182288    16Ap     0.182608
      10App    0.215031    17Ap     0.218933    18Ap     0.282101
      11App    0.282565    19Ap     0.400237    12App    0.400558
      20Ap     0.419787    21Ap     0.426866    13App    0.426956
      22Ap     0.468503    14App    0.497605    23Ap     0.497694
      15App    0.513896    24Ap     0.556325    25Ap     0.583932
      16App    0.584788    26Ap     0.597791    17App    0.597834
      27Ap     0.610005    28Ap     0.628133    18App    0.631906
      19App    0.639404    29Ap     0.639702    30Ap     0.666963
      20App    0.666990    31Ap     0.686338    21App    0.686638
      32Ap     0.757516    22App    0.830278    33Ap     0.830868
      23App    0.855267    24App    0.922805    34Ap     0.923186
      25App    0.945954    35Ap     0.953509    26App    0.965906
      36Ap     0.967330    37Ap     1.008706    38Ap     1.132042
      27App    1.132203    39Ap     1.155577    40Ap     1.168201
      28App    1.168533    41Ap     1.232301    42Ap     1.279838
      29App    1.280330    43Ap     1.285115    30App    1.329280
      44Ap     1.329405    45Ap     1.365380    46Ap     1.371172
      31App    1.371438    32App    1.393511    33App    1.407361
      47Ap     1.407668    48Ap     1.422113    34App    1.422173
      35App    1.428214    36App    1.492556    49Ap     1.509499
      37App    1.547064    50Ap     1.547424    38App    1.581740
      51Ap     1.582902    52Ap     1.674683    53Ap     1.744864
      39App    1.745479    54Ap     1.779116    55Ap     1.834343
      40App    1.836164    41App    1.972572    42App    2.025340
      56Ap     2.025556    57Ap     2.039673    58Ap     2.059013
      43App    2.059721    44App    2.746537    59Ap     2.747103
      45App    2.811833    60Ap     2.816065    61Ap     2.902215
      46App    2.903049    62Ap     2.924683    47App    2.931694
      63Ap     2.932271    48App    2.960054    64Ap     2.968863
      49App    2.968983    65Ap     3.041948    50App    3.080369
      66Ap     3.082011    51App    3.086162    67Ap     3.184066
      52App    3.185012    68Ap     3.188253    69Ap     3.289898
      53App    3.290338    70Ap     3.329778    54App    3.332147
      71Ap     3.383438    55App    3.491956    72Ap     3.493793
      56App    3.512392    73Ap     3.528364    57App    3.575023
      74Ap     3.581523    58App    3.581935    59App    3.670785
      75Ap     3.671455    76Ap     3.692916    60App    3.725460
      77Ap     3.726086    61App    3.780188    78Ap     3.782517
      79Ap     3.817686    80Ap     3.921668    62App    3.922427
      81Ap     4.045342    82Ap     4.117140    63App    4.119206
      83Ap     4.154516    64App    4.156117    84Ap     4.187305
      85Ap     4.208419    65App    4.209423    86Ap     4.210835
      66App    4.215316    87Ap     4.322753    67App    4.323951
      68App    4.362435    69App    4.432391    88Ap     4.432978
      70App    4.446315    71App    4.524450    89Ap     4.524804
      90Ap     4.588493    72App    4.589223    91Ap     4.624751
      92Ap     4.719735    73App    4.779892    93Ap     4.783255
      74App    4.839845    94Ap     4.967669    75App    5.006808
      95Ap     5.007160    96Ap     5.233773    76App    5.247564
      97Ap     5.249639    98Ap     5.361201    77App    5.362766
      78App    5.481680

    Final Occupation by Irrep:
             Ap   App
    DOCC [    10,    6 ]
    SOCC [     1,    0 ]

  @DF-UKS Final Energy:  -157.81306381432438

   => Energetics <=

    Nuclear Repulsion Energy =            125.3946290939450847
    One-Electron Energy =                -458.7489062545699881
    Two-Electron Energy =                 195.8483573996199709
    DFT Exchange-Correlation Energy =     -20.3071440533194369
    Empirical Dispersion Energy =           0.0000000000000000
    VV10 Nonlocal Energy =                  0.0000000000000000
    Total Energy =                       -157.8130638143243800

  UHF NO Occupations:
  HONO-2 :    9 Ap 1.9996008
  HONO-1 :   10 Ap 1.9989804
  HONO-0 :   11 Ap 1.0000000
  LUNO+0 :   12 Ap 0.0010196
  LUNO+1 :   13 Ap 0.0003992
  LUNO+2 :   14 Ap 0.0001977
  LUNO+3 :    7App 0.0001974

Computation Completed

Properties will be evaluated at   0.000000,   0.000000,   0.000000 [a0]

Properties computed using the SCF density matrix

  Nuclear Dipole Moment: [e a0]
     X:     0.8272      Y:     0.0030      Z:    -0.0000

  Electronic Dipole Moment: [e a0]
     X:    -0.7493      Y:    -0.0023      Z:     0.0000

  Dipole Moment: [e a0]
     X:     0.0779      Y:     0.0007      Z:    -0.0000     Total:     0.0779

  Dipole Moment: [D]
     X:     0.1980      Y:     0.0019      Z:    -0.0000     Total:     0.1980

*** tstop() called on n065 at Fri Nov  5 15:23:10 2021
Module time:
	user time   =     729.47 seconds =      12.16 minutes
	system time =      17.45 seconds =       0.29 minutes
	total time  =        188 seconds =       3.13 minutes
Total time:
	user time   =     729.47 seconds =      12.16 minutes
	system time =      17.45 seconds =       0.29 minutes
	total time  =        188 seconds =       3.13 minutes
Grab this energy -157.81306381432438
    Psi4 stopped on: Friday, 05 November 2021 03:23PM
    Psi4 wall time for execution: 0:03:07.68

*** Psi4 exiting successfully. Buy a developer a beer!
