                               Psi4 1.4a2.dev629

  ==> Input File <==

--------------------------------------------------------------------------
import os
memory 14 GB

molecule {
 C   -0.3233637946   -0.0000024640   -0.0004970460
 C    0.0598539028   -1.4004245672   -2.4259786993
 C    0.0609270123    2.8011004403   -0.0003837685
 C    0.0622379007   -1.4006730735    2.4256415772
 H    2.0936626216   -1.6436247227   -2.8467999519
 H   -0.7679871057   -0.3882881079   -4.0254552742
 H   -0.7693497789   -3.2924367684   -2.3492840110
 H    2.0899523830    3.2877416773   -0.0001818223
 H   -0.7683722508    3.6809171452    1.6795907091
 H   -0.7659732473    3.6799886952   -1.6789873231
 H    2.0865191983   -1.6442088039    2.8474493256
 H   -0.7648397554   -3.2965928804    2.3462455374
 H   -0.7658749627   -0.3835208837    4.0286407469
units bohr
0 2
}

basis {

assign 6-31g_2dfp_

[ 6-31g_2dfp_ ]

spherical

!----------------------------------------------------------------------
! Basis Set Exchange
! Version v0.8.13
! https://www.basissetexchange.org
!----------------------------------------------------------------------
!   Basis set: 6-31G(2df,p)
! Description: 6-31G(2df,p)
!        Role: orbital
!     Version: 0  (Data from the original Basis Set Exchange)
!----------------------------------------------------------------------

****
H     0
S    3   1.00
     18.7311370              0.03349460
      2.8253937              0.23472695
      0.6401217              0.81375733
S    1   1.00
      0.1612778              1.00000000
P    1   1.00
      1.5000000              1.0000000
P    1   1.00
      0.3750000              1.0000000
****
B     0
S    6   1.00
   2068.8823000              0.0018663
    310.6495700              0.0142515
     70.6830330              0.0695516
     19.8610800              0.2325729
      6.2993048              0.4670787
      2.1270270              0.3634314
SP   3   1.00
      4.7279710             -0.1303938              0.0745976
      1.1903377             -0.1307889              0.3078467
      0.3594117              1.1309444              0.7434568
SP   1   1.00
      0.1267512              1.0000000              1.0000000
D    1   1.00
      0.8020000              1.0000000
D    1   1.00
      0.2005000              1.0000000
F    1   1.00
      0.5000000              1.0000000
****
C     0
S    6   1.00
   3047.5249000              0.0018347
    457.3695100              0.0140373
    103.9486900              0.0688426
     29.2101550              0.2321844
      9.2866630              0.4679413
      3.1639270              0.3623120
SP   3   1.00
      7.8682724             -0.1193324              0.0689991
      1.8812885             -0.1608542              0.3164240
      0.5442493              1.1434564              0.7443083
SP   1   1.00
      0.1687144              1.0000000              1.0000000
D    1   1.00
      1.2520000              1.0000000
D    1   1.00
      0.3130000              1.0000000
F    1   1.00
      0.8000000              1.0000000
****
N     0
S    6   1.00
   4173.5110000              0.0018348
    627.4579000              0.0139950
    142.9021000              0.0685870
     40.2343300              0.2322410
     12.8202100              0.4690700
      4.3904370              0.3604550
SP   3   1.00
     11.6263580             -0.1149610              0.0675800
      2.7162800             -0.1691180              0.3239070
      0.7722180              1.1458520              0.7408950
SP   1   1.00
      0.2120313              1.0000000              1.0000000
D    1   1.00
      1.8260000              1.0000000
D    1   1.00
      0.4565000              1.0000000
F    1   1.00
      1.0000000              1.0000000
****
O     0
S    6   1.00
   5484.6717000              0.0018311
    825.2349500              0.0139501
    188.0469600              0.0684451
     52.9645000              0.2327143
     16.8975700              0.4701930
      5.7996353              0.3585209
SP   3   1.00
     15.5396160             -0.1107775              0.0708743
      3.5999336             -0.1480263              0.3397528
      1.0137618              1.1307670              0.7271586
SP   1   1.00
      0.2700058              1.0000000              1.0000000
D    1   1.00
      2.5840000              1.0000000
D    1   1.00
      0.6460000              1.0000000
F    1   1.00
      1.4000000              1.0000000
****
F     0
S    6   1.00
   7001.7130900              0.0018196169
   1051.3660900              0.0139160796
    239.2856900              0.0684053245
     67.3974453              0.233185760
     21.5199573              0.471267439
      7.40310130             0.356618546
SP   3   1.00
     20.8479528             -0.108506975            0.0716287243
      4.80830834            -0.146451658            0.3459121030
      1.34406986             1.128688580            0.7224699570
SP   1   1.00
      0.358151393            1.0000000              1.0000000
D    1   1.00
      3.5000000              1.0000000
D    1   1.00
      0.8750000              1.0000000
F    1   1.00
      1.8500000              1.0000000
****
Al     0
S    6   1.00
  13983.1000000              0.00194267
   2098.7500000              0.0148599
    477.7050000              0.0728494
    134.3600000              0.2468300
     42.8709000              0.4872580
     14.5189000              0.3234960
SP   6   1.00
    239.6680000             -0.00292619             0.00460285
     57.4419000             -0.0374080              0.0331990
     18.2859000             -0.1144870              0.1362820
      6.5991400              0.1156350              0.3304760
      2.4904900              0.6125950              0.4491460
      0.9445400              0.3937990              0.2657040
SP   3   1.00
      1.2779000             -0.2276060             -0.0175130
      0.3975900              0.00144583             0.2445330
      0.1600950              1.0927900              0.8049340
SP   1   1.00
      0.0556577              1.0000000              1.0000000
D    1   1.00
      0.6500000              1.0000000
D    1   1.00
      0.1625000              1.0000000
F    1   1.00
      0.2500000              1.0000000
****
Si     0
S    6   1.00
  16115.9000000              0.00195948
   2425.5800000              0.01492880
    553.8670000              0.07284780
    156.3400000              0.24613000
     50.0683000              0.48591400
     17.0178000              0.32500200
SP   6   1.00
    292.7180000             -0.00278094             0.00443826
     69.8731000             -0.03571460             0.03266790
     22.3363000             -0.11498500             0.13472100
      8.1503900              0.09356340             0.32867800
      3.1345800              0.60301700             0.44964000
      1.2254300              0.41895900             0.26137200
SP   3   1.00
      1.7273800             -0.24463000            -0.01779510
      0.5729220              0.00431572             0.25353900
      0.2221920              1.09818000             0.80066900
SP   1   1.00
      0.0778369              1.00000000             1.00000000
D    1   1.00
      0.9000000              1.0000000
D    1   1.00
      0.2250000              1.0000000
F    1   1.00
      0.3200000              1.0000000
****
P     0
S    6   1.00
  19413.3000000              0.0018516
   2909.4200000              0.0142062
    661.3640000              0.0699995
    185.7590000              0.2400790
     59.1943000              0.4847620
     20.0310000              0.3352000
SP   6   1.00
    339.4780000             -0.00278217             0.00456462
     81.0101000             -0.0360499              0.03369360
     25.8780000             -0.1166310              0.13975500
      9.4522100              0.0968328              0.33936200
      3.6656600              0.6144180              0.45092100
      1.4674600              0.4037980              0.23858600
SP   3   1.00
      2.1562300             -0.2529230             -0.01776530
      0.7489970              0.0328517              0.27405800
      0.2831450              1.0812500              0.78542100
SP   1   1.00
      0.0998317              1.0000000              1.00000000
D    1   1.00
      1.1000000              1.0000000
D    1   1.00
      0.2750000              1.0000000
F    1   1.00
      0.4500000              1.0000000
****
S     0
S    6   1.00
  21917.1000000              0.0018690
   3301.4900000              0.0142300
    754.1460000              0.0696960
    212.7110000              0.2384870
     67.9896000              0.4833070
     23.0515000              0.3380740
SP   6   1.00
    423.7350000             -0.0023767              0.0040610
    100.7100000             -0.0316930              0.0306810
     32.1599000             -0.1133170              0.1304520
     11.8079000              0.0560900              0.3272050
      4.6311000              0.5922550              0.4528510
      1.8702500              0.4550060              0.2560420
SP   3   1.00
      2.6158400             -0.2503740             -0.0145110
      0.9221670              0.0669570              0.3102630
      0.3412870              1.0545100              0.7544830
SP   1   1.00
      0.1171670              1.0000000              1.0000000
D    1   1.00
      1.3000000              1.0000000
D    1   1.00
      0.3250000              1.0000000
F    1   1.00
      0.5500000              1.0000000
****
Cl     0
S    6   1.00
  25180.1000000              0.0018330
   3780.3500000              0.0140340
    860.4740000              0.0690970
    242.1450000              0.2374520
     77.3349000              0.4830340
     26.2470000              0.3398560
SP   6   1.00
    491.7650000             -0.0022974              0.0039894
    116.9840000             -0.0307140              0.0303180
     37.4153000             -0.1125280              0.1298800
     13.7834000              0.0450160              0.3279510
      5.4521500              0.5893530              0.4535270
      2.2258800              0.4652060              0.2521540
SP   3   1.00
      3.1864900             -0.2518300             -0.0142990
      1.1442700              0.0615890              0.3235720
      0.4203770              1.0601800              0.7435070
SP   1   1.00
      0.1426570              1.0000000              1.0000000
D    1   1.00
      1.5000000              1.0000000
D    1   1.00
      0.3750000              1.0000000
F    1   1.00
      0.7000000              1.0000000
****
}

set {
reference uhf
freeze_core true
e_convergence 10
d_convergence 10
dft_spherical_points 1202
dft_radial_points 99
}

e = energy('b3lyp')

print_out('Grab this energy {0}'.format(e))
--------------------------------------------------------------------------

    Molecular point group: c1

    Geometry (in Bohr), charge = 0, multiplicity = 2:

       Center              X                  Y                   Z               Mass
    ------------   -----------------  -----------------  -----------------  -----------------
         C           -0.323305050567    -0.000002099276    -0.000262462637    12.000000000000
         C            0.059912646833    -1.400424202476    -2.425744115937    12.000000000000
         C            0.060985756333     2.801100805024    -0.000149185137    12.000000000000
         C            0.062296644733    -1.400672708776     2.425876160563    12.000000000000
         H            2.093721365633    -1.643624357976    -2.846565368537     1.007825032230
         H           -0.767928361667    -0.388287743176    -4.025220690837     1.007825032230
         H           -0.769291034867    -3.292436403676    -2.349049427637     1.007825032230
         H            2.090011127033     3.287742042024     0.000052761063     1.007825032230
         H           -0.768313506767     3.680917509924     1.679825292463     1.007825032230
         H           -0.765914503267     3.679989059924    -1.678752739737     1.007825032230
         H            2.086577942333    -1.644208439176     2.847683908963     1.007825032230
         H           -0.764781011367    -3.296592515676     2.346480120763     1.007825032230
         H           -0.765816218667    -0.383520518976     4.028875330263     1.007825032230

  Charge       = 0
  Multiplicity = 2
  Basis Set: ANONYMOUSDD683CEA
    Blend: 6-31G_2DFP_
  Basis Set: (ANONYMOUSDD683CEA AUX)
    Blend: DEF2-UNIVERSAL-JKFIT

    Orbital Energies [Eh]
    ---------------------

    Alpha Occupied:

       1A    -10.180410     2A    -10.167581     3A    -10.167557
       4A    -10.167513     5A     -0.797806     6A     -0.685830
       7A     -0.685828     8A     -0.530467     9A     -0.441026
      10A     -0.434553    11A     -0.434510    12A     -0.382363
      13A     -0.382316    14A     -0.363296    15A     -0.338026
      16A     -0.337962    17A     -0.169023

    Alpha Virtual:

      18A      0.075738    19A      0.133618    20A      0.133954
      21A      0.142155    22A      0.142278    23A      0.154582
      24A      0.178188    25A      0.178356    26A      0.203658
      27A      0.214348    28A      0.275887    29A      0.276038
      30A      0.399250    31A      0.399317    32A      0.403135
      33A      0.423739    34A      0.423908    35A      0.456458
      36A      0.495021    37A      0.495309    38A      0.511892
      39A      0.513848    40A      0.578305    41A      0.578654
      42A      0.590879    43A      0.591176    44A      0.601932
      45A      0.623790    46A      0.631057    47A      0.635590
      48A      0.635801    49A      0.662718    50A      0.663451
      51A      0.683135    52A      0.683481    53A      0.734685
      54A      0.824567    55A      0.824605    56A      0.853404
      57A      0.914101    58A      0.914526    59A      0.943502
      60A      0.943821    61A      0.960512    62A      0.960773
      63A      1.003353    64A      1.127638    65A      1.127740
      66A      1.141341    67A      1.162895    68A      1.163138
      69A      1.222882    70A      1.273801    71A      1.274095
      72A      1.279817    73A      1.323600    74A      1.323689
      75A      1.355107    76A      1.365520    77A      1.365576
      78A      1.391871    79A      1.402568    80A      1.403495
      81A      1.415650    82A      1.416705    83A      1.427156
      84A      1.490601    85A      1.497720    86A      1.541863
      87A      1.542782    88A      1.574121    89A      1.574437
      90A      1.667656    91A      1.737809    92A      1.738123
      93A      1.766840    94A      1.828122    95A      1.829725
      96A      1.970085    97A      2.016972    98A      2.017576
      99A      2.018367   100A      2.050632   101A      2.052516
     102A      2.737103   103A      2.737917   104A      2.790713
     105A      2.810914   106A      2.889360   107A      2.889393
     108A      2.894890   109A      2.929100   110A      2.929132
     111A      2.958380   112A      2.963410   113A      2.964051
     114A      3.033116   115A      3.070313   116A      3.070356
     117A      3.083445   118A      3.169218   119A      3.169677
     120A      3.180305   121A      3.285028   122A      3.285680
     123A      3.327462   124A      3.327881   125A      3.376321
     126A      3.490996   127A      3.491304   128A      3.514309
     129A      3.525953   130A      3.568083   131A      3.568326
     132A      3.576826   133A      3.664916   134A      3.666371
     135A      3.677818   136A      3.693146   137A      3.693480
     138A      3.776247   139A      3.776270   140A      3.788565
     141A      3.911184   142A      3.911387   143A      4.032086
     144A      4.108443   145A      4.109332   146A      4.144220
     147A      4.145347   148A      4.170280   149A      4.200471
     150A      4.201418   151A      4.202651   152A      4.207258
     153A      4.312902   154A      4.314611   155A      4.356570
     156A      4.421573   157A      4.422208   158A      4.441399
     159A      4.513724   160A      4.515118   161A      4.576669
     162A      4.576901   163A      4.616871   164A      4.707433
     165A      4.772378   166A      4.773270   167A      4.834545
     168A      4.962094   169A      5.001107   170A      5.002611
     171A      5.222718   172A      5.239441   173A      5.243578
     174A      5.349739   175A      5.352163   176A      5.476159

    Beta Occupied:

       1A    -10.168340     2A    -10.168314     3A    -10.168281
       4A    -10.166602     5A     -0.781104     6A     -0.683638
       7A     -0.683629     8A     -0.511496     9A     -0.430911
      10A     -0.430880    11A     -0.421684    12A     -0.376461
      13A     -0.376370    14A     -0.362277    15A     -0.333151
      16A     -0.333101

    Beta Virtual:

      17A     -0.025977    18A      0.076751    19A      0.134512
      20A      0.134826    21A      0.144080    22A      0.144150
      23A      0.163102    24A      0.181850    25A      0.182056
      26A      0.214579    27A      0.219021    28A      0.282223
      29A      0.282380    30A      0.400425    31A      0.400489
      32A      0.419567    33A      0.426549    34A      0.426717
      35A      0.468384    36A      0.497276    37A      0.497578
      38A      0.513633    39A      0.556134    40A      0.583854
      41A      0.584172    42A      0.597016    43A      0.597360
      44A      0.609366    45A      0.627177    46A      0.631227
      47A      0.638892    48A      0.639105    49A      0.666310
      50A      0.666978    51A      0.685825    52A      0.686133
      53A      0.757183    54A      0.829735    55A      0.829778
      56A      0.854782    57A      0.922101    58A      0.922498
      59A      0.945340    60A      0.952728    61A      0.965797
      62A      0.966115    63A      1.008581    64A      1.131720
      65A      1.131741    66A      1.154727    67A      1.167905
      68A      1.168220    69A      1.231872    70A      1.279398
      71A      1.279715    72A      1.285585    73A      1.328565
      74A      1.328650    75A      1.364494    76A      1.370773
      77A      1.370815    78A      1.392934    79A      1.405993
      80A      1.407008    81A      1.420683    82A      1.421773
      83A      1.427435    84A      1.491644    85A      1.508162
      86A      1.546413    87A      1.547308    88A      1.581897
      89A      1.582190    90A      1.672430    91A      1.743569
      92A      1.743881    93A      1.777669    94A      1.832001
      95A      1.833618    96A      1.970950    97A      2.023790
      98A      2.024739    99A      2.038612   100A      2.057394
     101A      2.059192   102A      2.745435   103A      2.746232
     104A      2.811322   105A      2.815823   106A      2.901966
     107A      2.902092   108A      2.924538   109A      2.931601
     110A      2.931694   111A      2.959436   112A      2.967903
     113A      2.968571   114A      3.041130   115A      3.080064
     116A      3.080290   117A      3.085277   118A      3.184899
     119A      3.185566   120A      3.187952   121A      3.289870
     122A      3.290544   123A      3.331236   124A      3.331701
     125A      3.384115   126A      3.493719   127A      3.493952
     128A      3.512668   129A      3.528983   130A      3.576669
     131A      3.581367   132A      3.581695   133A      3.669371
     134A      3.670900   135A      3.691053   136A      3.724917
     137A      3.725251   138A      3.780744   139A      3.780861
     140A      3.817078   141A      3.920992   142A      3.921240
     143A      4.042850   144A      4.115204   145A      4.116044
     146A      4.151529   147A      4.152542   148A      4.184475
     149A      4.206659   150A      4.208157   151A      4.209642
     152A      4.211769   153A      4.320422   154A      4.322130
     155A      4.359942   156A      4.429817   157A      4.430453
     158A      4.444297   159A      4.521523   160A      4.522922
     161A      4.587290   162A      4.587546   163A      4.624073
     164A      4.717782   165A      4.779335   166A      4.780227
     167A      4.837456   168A      4.966916   169A      5.005186
     170A      5.006652   171A      5.228457   172A      5.241243
     173A      5.245358   174A      5.356237   175A      5.358680
     176A      5.478492

    Final Occupation by Irrep:
              A
    DOCC [    16 ]
    SOCC [     1 ]

  @DF-UKS Final Energy:  -157.81308275626043

   => Energetics <=

    Nuclear Repulsion Energy =            125.3573072543715625
    One-Electron Energy =                -458.6781176616191260
    Two-Electron Energy =                 195.8108533621911249
    DFT Exchange-Correlation Energy =     -20.3031257112039789
    Empirical Dispersion Energy =           0.0000000000000000
    VV10 Nonlocal Energy =                  0.0000000000000000
    Total Energy =                       -157.8130827562604281

  UHF NO Occupations:
  HONO-2 :   15  A 1.9995983
  HONO-1 :   16  A 1.9989811
  HONO-0 :   17  A 1.0000000
  LUNO+0 :   18  A 0.0010189
  LUNO+1 :   19  A 0.0004017
  LUNO+2 :   20  A 0.0001972
  LUNO+3 :   21  A 0.0001972

Computation Completed

Properties will be evaluated at   0.000000,   0.000000,   0.000000 [a0]

Properties computed using the SCF density matrix

  Nuclear Dipole Moment: [e a0]
     X:     0.8276      Y:    -0.0000      Z:     0.0017

  Electronic Dipole Moment: [e a0]
     X:    -0.7503      Y:     0.0000      Z:    -0.0023

  Dipole Moment: [e a0]
     X:     0.0773      Y:     0.0000      Z:    -0.0006     Total:     0.0773

  Dipole Moment: [D]
     X:     0.1964      Y:     0.0000      Z:    -0.0016     Total:     0.1964

*** tstop() called on n023 at Fri Nov  5 14:06:05 2021
Module time:
	user time   =     593.78 seconds =       9.90 minutes
	system time =      11.35 seconds =       0.19 minutes
	total time  =        152 seconds =       2.53 minutes
Total time:
	user time   =     593.78 seconds =       9.90 minutes
	system time =      11.35 seconds =       0.19 minutes
	total time  =        152 seconds =       2.53 minutes
Grab this energy -157.81308275626043
    Psi4 stopped on: Friday, 05 November 2021 02:06PM
    Psi4 wall time for execution: 0:02:32.19

*** Psi4 exiting successfully. Buy a developer a beer!
