                               Psi4 1.4a2.dev629

  ==> Input File <==

--------------------------------------------------------------------------
import os
memory 14 GB

molecule {
 C   -0.3233402103   -0.0004981169   -0.0004332250
 C    0.0607200785   -1.4005425310   -2.4265235359
 C    0.0623972582    2.8016633239   -0.0013909334
 C    0.0601839198   -1.4018346785    2.4259896116
 H    2.0882103084   -1.6426020739   -2.8480310447
 H   -0.7654926351   -0.3896203952   -4.0244972059
 H   -0.7667862318   -3.2921153460   -2.3488580349
 H    2.0826752184    3.2885876925   -0.0034926898
 H   -0.7669417153    3.6811009225    1.6820193363
 H   -0.7605338470    3.6793002556   -1.6772356558
 H    2.0897893468   -1.6456186167    2.8462658949
 H   -0.7641855392   -3.2883423022    2.3502846250
 H   -0.7693038282   -0.3895024475    4.0259028576
units bohr
0 2
}

basis {

assign 6-31g_2dfp_

[ 6-31g_2dfp_ ]

spherical

!----------------------------------------------------------------------
! Basis Set Exchange
! Version v0.8.13
! https://www.basissetexchange.org
!----------------------------------------------------------------------
!   Basis set: 6-31G(2df,p)
! Description: 6-31G(2df,p)
!        Role: orbital
!     Version: 0  (Data from the original Basis Set Exchange)
!----------------------------------------------------------------------

****
H     0
S    3   1.00
     18.7311370              0.03349460
      2.8253937              0.23472695
      0.6401217              0.81375733
S    1   1.00
      0.1612778              1.00000000
P    1   1.00
      1.5000000              1.0000000
P    1   1.00
      0.3750000              1.0000000
****
B     0
S    6   1.00
   2068.8823000              0.0018663
    310.6495700              0.0142515
     70.6830330              0.0695516
     19.8610800              0.2325729
      6.2993048              0.4670787
      2.1270270              0.3634314
SP   3   1.00
      4.7279710             -0.1303938              0.0745976
      1.1903377             -0.1307889              0.3078467
      0.3594117              1.1309444              0.7434568
SP   1   1.00
      0.1267512              1.0000000              1.0000000
D    1   1.00
      0.8020000              1.0000000
D    1   1.00
      0.2005000              1.0000000
F    1   1.00
      0.5000000              1.0000000
****
C     0
S    6   1.00
   3047.5249000              0.0018347
    457.3695100              0.0140373
    103.9486900              0.0688426
     29.2101550              0.2321844
      9.2866630              0.4679413
      3.1639270              0.3623120
SP   3   1.00
      7.8682724             -0.1193324              0.0689991
      1.8812885             -0.1608542              0.3164240
      0.5442493              1.1434564              0.7443083
SP   1   1.00
      0.1687144              1.0000000              1.0000000
D    1   1.00
      1.2520000              1.0000000
D    1   1.00
      0.3130000              1.0000000
F    1   1.00
      0.8000000              1.0000000
****
N     0
S    6   1.00
   4173.5110000              0.0018348
    627.4579000              0.0139950
    142.9021000              0.0685870
     40.2343300              0.2322410
     12.8202100              0.4690700
      4.3904370              0.3604550
SP   3   1.00
     11.6263580             -0.1149610              0.0675800
      2.7162800             -0.1691180              0.3239070
      0.7722180              1.1458520              0.7408950
SP   1   1.00
      0.2120313              1.0000000              1.0000000
D    1   1.00
      1.8260000              1.0000000
D    1   1.00
      0.4565000              1.0000000
F    1   1.00
      1.0000000              1.0000000
****
O     0
S    6   1.00
   5484.6717000              0.0018311
    825.2349500              0.0139501
    188.0469600              0.0684451
     52.9645000              0.2327143
     16.8975700              0.4701930
      5.7996353              0.3585209
SP   3   1.00
     15.5396160             -0.1107775              0.0708743
      3.5999336             -0.1480263              0.3397528
      1.0137618              1.1307670              0.7271586
SP   1   1.00
      0.2700058              1.0000000              1.0000000
D    1   1.00
      2.5840000              1.0000000
D    1   1.00
      0.6460000              1.0000000
F    1   1.00
      1.4000000              1.0000000
****
F     0
S    6   1.00
   7001.7130900              0.0018196169
   1051.3660900              0.0139160796
    239.2856900              0.0684053245
     67.3974453              0.233185760
     21.5199573              0.471267439
      7.40310130             0.356618546
SP   3   1.00
     20.8479528             -0.108506975            0.0716287243
      4.80830834            -0.146451658            0.3459121030
      1.34406986             1.128688580            0.7224699570
SP   1   1.00
      0.358151393            1.0000000              1.0000000
D    1   1.00
      3.5000000              1.0000000
D    1   1.00
      0.8750000              1.0000000
F    1   1.00
      1.8500000              1.0000000
****
Al     0
S    6   1.00
  13983.1000000              0.00194267
   2098.7500000              0.0148599
    477.7050000              0.0728494
    134.3600000              0.2468300
     42.8709000              0.4872580
     14.5189000              0.3234960
SP   6   1.00
    239.6680000             -0.00292619             0.00460285
     57.4419000             -0.0374080              0.0331990
     18.2859000             -0.1144870              0.1362820
      6.5991400              0.1156350              0.3304760
      2.4904900              0.6125950              0.4491460
      0.9445400              0.3937990              0.2657040
SP   3   1.00
      1.2779000             -0.2276060             -0.0175130
      0.3975900              0.00144583             0.2445330
      0.1600950              1.0927900              0.8049340
SP   1   1.00
      0.0556577              1.0000000              1.0000000
D    1   1.00
      0.6500000              1.0000000
D    1   1.00
      0.1625000              1.0000000
F    1   1.00
      0.2500000              1.0000000
****
Si     0
S    6   1.00
  16115.9000000              0.00195948
   2425.5800000              0.01492880
    553.8670000              0.07284780
    156.3400000              0.24613000
     50.0683000              0.48591400
     17.0178000              0.32500200
SP   6   1.00
    292.7180000             -0.00278094             0.00443826
     69.8731000             -0.03571460             0.03266790
     22.3363000             -0.11498500             0.13472100
      8.1503900              0.09356340             0.32867800
      3.1345800              0.60301700             0.44964000
      1.2254300              0.41895900             0.26137200
SP   3   1.00
      1.7273800             -0.24463000            -0.01779510
      0.5729220              0.00431572             0.25353900
      0.2221920              1.09818000             0.80066900
SP   1   1.00
      0.0778369              1.00000000             1.00000000
D    1   1.00
      0.9000000              1.0000000
D    1   1.00
      0.2250000              1.0000000
F    1   1.00
      0.3200000              1.0000000
****
P     0
S    6   1.00
  19413.3000000              0.0018516
   2909.4200000              0.0142062
    661.3640000              0.0699995
    185.7590000              0.2400790
     59.1943000              0.4847620
     20.0310000              0.3352000
SP   6   1.00
    339.4780000             -0.00278217             0.00456462
     81.0101000             -0.0360499              0.03369360
     25.8780000             -0.1166310              0.13975500
      9.4522100              0.0968328              0.33936200
      3.6656600              0.6144180              0.45092100
      1.4674600              0.4037980              0.23858600
SP   3   1.00
      2.1562300             -0.2529230             -0.01776530
      0.7489970              0.0328517              0.27405800
      0.2831450              1.0812500              0.78542100
SP   1   1.00
      0.0998317              1.0000000              1.00000000
D    1   1.00
      1.1000000              1.0000000
D    1   1.00
      0.2750000              1.0000000
F    1   1.00
      0.4500000              1.0000000
****
S     0
S    6   1.00
  21917.1000000              0.0018690
   3301.4900000              0.0142300
    754.1460000              0.0696960
    212.7110000              0.2384870
     67.9896000              0.4833070
     23.0515000              0.3380740
SP   6   1.00
    423.7350000             -0.0023767              0.0040610
    100.7100000             -0.0316930              0.0306810
     32.1599000             -0.1133170              0.1304520
     11.8079000              0.0560900              0.3272050
      4.6311000              0.5922550              0.4528510
      1.8702500              0.4550060              0.2560420
SP   3   1.00
      2.6158400             -0.2503740             -0.0145110
      0.9221670              0.0669570              0.3102630
      0.3412870              1.0545100              0.7544830
SP   1   1.00
      0.1171670              1.0000000              1.0000000
D    1   1.00
      1.3000000              1.0000000
D    1   1.00
      0.3250000              1.0000000
F    1   1.00
      0.5500000              1.0000000
****
Cl     0
S    6   1.00
  25180.1000000              0.0018330
   3780.3500000              0.0140340
    860.4740000              0.0690970
    242.1450000              0.2374520
     77.3349000              0.4830340
     26.2470000              0.3398560
SP   6   1.00
    491.7650000             -0.0022974              0.0039894
    116.9840000             -0.0307140              0.0303180
     37.4153000             -0.1125280              0.1298800
     13.7834000              0.0450160              0.3279510
      5.4521500              0.5893530              0.4535270
      2.2258800              0.4652060              0.2521540
SP   3   1.00
      3.1864900             -0.2518300             -0.0142990
      1.1442700              0.0615890              0.3235720
      0.4203770              1.0601800              0.7435070
SP   1   1.00
      0.1426570              1.0000000              1.0000000
D    1   1.00
      1.5000000              1.0000000
D    1   1.00
      0.3750000              1.0000000
F    1   1.00
      0.7000000              1.0000000
****
}

set {
reference uhf
freeze_core true
e_convergence 10
d_convergence 10
dft_spherical_points 1202
dft_radial_points 99
}

e = energy('b3lyp')

print_out('Grab this energy {0}'.format(e))
--------------------------------------------------------------------------

    Molecular point group: c1

    Geometry (in Bohr), charge = 0, multiplicity = 2:

       Center              X                  Y                   Z               Mass
    ------------   -----------------  -----------------  -----------------  -----------------
         C           -0.323340408885    -0.000264247131     0.000020958712    12.000000000000
         C            0.060719879915    -1.400308661231    -2.426069352188    12.000000000000
         C            0.062397059615     2.801897193669    -0.000936749688    12.000000000000
         C            0.060183721215    -1.401600808731     2.426443795312    12.000000000000
         H            2.088210109815    -1.642368204131    -2.847576860988     1.007825032230
         H           -0.765492833685    -0.389386525431    -4.024043022188     1.007825032230
         H           -0.766786430385    -3.291881476231    -2.348403851188     1.007825032230
         H            2.082675019815     3.288821562269    -0.003038506088     1.007825032230
         H           -0.766941913885     3.681334792269     1.682473520012     1.007825032230
         H           -0.760534045585     3.679534125369    -1.676781472088     1.007825032230
         H            2.089789148215    -1.645384746931     2.846720078612     1.007825032230
         H           -0.764185737785    -3.288108432431     2.350738808712     1.007825032230
         H           -0.769304026785    -0.389268577731     4.026357041312     1.007825032230

  Charge       = 0
  Multiplicity = 2
  Basis Set: ANONYMOUS92191C1E
    Blend: 6-31G_2DFP_
  Basis Set: (ANONYMOUS92191C1E AUX)
    Blend: DEF2-UNIVERSAL-JKFIT

    Orbital Energies [Eh]
    ---------------------

    Alpha Occupied:

       1A    -10.180342     2A    -10.167045     3A    -10.167024
       4A    -10.166976     5A     -0.797767     6A     -0.686249
       7A     -0.686128     8A     -0.530780     9A     -0.441128
      10A     -0.434859    11A     -0.434479    12A     -0.382632
      13A     -0.382565    14A     -0.363612    15A     -0.338164
      16A     -0.337833    17A     -0.168961

    Alpha Virtual:

      18A      0.076069    19A      0.133951    20A      0.134352
      21A      0.142409    22A      0.142842    23A      0.154883
      24A      0.178653    25A      0.178905    26A      0.203548
      27A      0.214804    28A      0.275854    29A      0.276118
      30A      0.398979    31A      0.399475    32A      0.403345
      33A      0.423914    34A      0.424280    35A      0.456592
      36A      0.495233    37A      0.495544    38A      0.512161
      39A      0.513981    40A      0.578636    41A      0.578995
      42A      0.591423    43A      0.591832    44A      0.602581
      45A      0.624716    46A      0.631748    47A      0.635996
      48A      0.636571    49A      0.662989    50A      0.663848
      51A      0.683601    52A      0.684125    53A      0.734995
      54A      0.825153    55A      0.825653    56A      0.853921
      57A      0.914720    58A      0.915330    59A      0.944125
      60A      0.944604    61A      0.961142    62A      0.961454
      63A      1.003454    64A      1.127825    65A      1.128399
      66A      1.142213    67A      1.163139    68A      1.163406
      69A      1.223324    70A      1.274193    71A      1.274767
      72A      1.279372    73A      1.324135    74A      1.324567
      75A      1.355957    76A      1.365746    77A      1.366354
      78A      1.392446    79A      1.403588    80A      1.404524
      81A      1.416247    82A      1.417987    83A      1.427903
      84A      1.491494    85A      1.499069    86A      1.542374
      87A      1.543318    88A      1.574197    89A      1.574699
      90A      1.669826    91A      1.738697    92A      1.740090
      93A      1.768360    94A      1.830269    95A      1.832509
      96A      1.971741    97A      2.017576    98A      2.018708
      99A      2.020104   100A      2.051590   101A      2.053738
     102A      2.738036   103A      2.738933   104A      2.790925
     105A      2.811425   106A      2.889785   107A      2.890094
     108A      2.894966   109A      2.929474   110A      2.929523
     111A      2.958966   112A      2.964055   113A      2.964735
     114A      3.034018   115A      3.070676   116A      3.071823
     117A      3.084448   118A      3.168300   119A      3.169259
     120A      3.180603   121A      3.284950   122A      3.285672
     123A      3.326716   124A      3.327605   125A      3.375635
     126A      3.489843   127A      3.490478   128A      3.514017
     129A      3.525325   130A      3.567945   131A      3.568836
     132A      3.575134   133A      3.665531   134A      3.667274
     135A      3.679636   136A      3.693880   137A      3.694404
     138A      3.776671   139A      3.776915   140A      3.789135
     141A      3.911635   142A      3.912818   143A      4.034427
     144A      4.110643   145A      4.112004   146A      4.147438
     147A      4.148669   148A      4.173328   149A      4.201523
     150A      4.203005   151A      4.204140   152A      4.211064
     153A      4.314926   154A      4.317066   155A      4.358980
     156A      4.423834   157A      4.425102   158A      4.443446
     159A      4.515584   160A      4.518110   161A      4.578139
     162A      4.578384   163A      4.617573   164A      4.709431
     165A      4.773545   166A      4.775676   167A      4.836905
     168A      4.962869   169A      5.002113   170A      5.003797
     171A      5.227513   172A      5.245203   173A      5.248849
     174A      5.353792   175A      5.357315   176A      5.479440

    Beta Occupied:

       1A    -10.167800     2A    -10.167781     3A    -10.167743
       4A    -10.166520     5A     -0.781092     6A     -0.684054
       7A     -0.683929     8A     -0.511751     9A     -0.431230
      10A     -0.430858    11A     -0.421818    12A     -0.376733
      13A     -0.376634    14A     -0.362596    15A     -0.333282
      16A     -0.332961

    Beta Virtual:

      17A     -0.025743    18A      0.077078    19A      0.134835
      20A      0.135252    21A      0.144260    22A      0.144733
      23A      0.163339    24A      0.182311    25A      0.182589
      26A      0.215034    27A      0.218930    28A      0.282201
      29A      0.282467    30A      0.400144    31A      0.400650
      32A      0.419790    33A      0.426725    34A      0.427092
      35A      0.468500    36A      0.497486    37A      0.497813
      38A      0.513896    39A      0.556325    40A      0.584201
      41A      0.584530    42A      0.597569    43A      0.598047
      44A      0.610002    45A      0.628095    46A      0.631915
      47A      0.639290    48A      0.639834    49A      0.666588
      50A      0.667379    51A      0.686264    52A      0.686731
      53A      0.757518    54A      0.830332    55A      0.830809
      56A      0.855275    57A      0.922714    58A      0.923277
      59A      0.945962    60A      0.953531    61A      0.966416
      62A      0.966793    63A      1.008695    64A      1.131860
      65A      1.132420    66A      1.155588    67A      1.168181
      68A      1.168515    69A      1.232296    70A      1.279767
      71A      1.280385    72A      1.285128    73A      1.329126
      74A      1.329554    75A      1.365367    76A      1.371050
      77A      1.371538    78A      1.393506    79A      1.407007
      80A      1.408036    81A      1.421325    82A      1.423010
      83A      1.428171    84A      1.492544    85A      1.509512
      86A      1.546794    87A      1.547714    88A      1.582077
      89A      1.582560    90A      1.674673    91A      1.744445
      92A      1.745876    93A      1.779130    94A      1.834116
      95A      1.836373    96A      1.972603    97A      2.024710
      98A      2.026146    99A      2.039686   100A      2.058356
     101A      2.060423   102A      2.746375   103A      2.747265
     104A      2.811837   105A      2.816060   106A      2.902434
     107A      2.902842   108A      2.924649   109A      2.931936
     110A      2.932020   111A      2.960041   112A      2.968587
     113A      2.969286   114A      3.041950   115A      3.080477
     116A      3.081706   117A      3.086404   118A      3.183997
     119A      3.185044   120A      3.188304   121A      3.289735
     122A      3.290486   123A      3.330481   124A      3.331450
     125A      3.383452   126A      3.492602   127A      3.493180
     128A      3.512383   129A      3.528371   130A      3.574972
     131A      3.581203   132A      3.582279   133A      3.670299
     134A      3.672003   135A      3.692943   136A      3.725611
     137A      3.725919   138A      3.781176   139A      3.781473
     140A      3.817670   141A      3.921381   142A      3.922704
     143A      4.045314   144A      4.117299   145A      4.118983
     146A      4.154551   147A      4.155997   148A      4.187354
     149A      4.207703   150A      4.209910   151A      4.210893
     152A      4.215559   153A      4.322392   154A      4.324481
     155A      4.362343   156A      4.432063   157A      4.433299
     158A      4.446331   159A      4.523367   160A      4.525906
     161A      4.588725   162A      4.588999   163A      4.624767
     164A      4.719774   165A      4.780523   166A      4.782605
     167A      4.839822   168A      4.967663   169A      5.006170
     170A      5.007820   171A      5.233096   172A      5.247132
     173A      5.250625   174A      5.360271   175A      5.363790
     176A      5.481763

    Final Occupation by Irrep:
              A
    DOCC [    16 ]
    SOCC [     1 ]

  @DF-UKS Final Energy:  -157.81305034677442

   => Energetics <=

    Nuclear Repulsion Energy =            125.3946713802103403
    One-Electron Energy =                -458.7489485968856116
    Two-Electron Energy =                 195.8483760086967607
    DFT Exchange-Correlation Energy =     -20.3071491387959178
    Empirical Dispersion Energy =           0.0000000000000000
    VV10 Nonlocal Energy =                  0.0000000000000000
    Total Energy =                       -157.8130503467744177

  UHF NO Occupations:
  HONO-2 :   15  A 1.9996009
  HONO-1 :   16  A 1.9989804
  HONO-0 :   17  A 1.0000000
  LUNO+0 :   18  A 0.0010196
  LUNO+1 :   19  A 0.0003991
  LUNO+2 :   20  A 0.0001976
  LUNO+3 :   21  A 0.0001975

Computation Completed

Properties will be evaluated at   0.000000,   0.000000,   0.000000 [a0]

Properties computed using the SCF density matrix

  Nuclear Dipole Moment: [e a0]
     X:     0.8272      Y:     0.0016      Z:     0.0032

  Electronic Dipole Moment: [e a0]
     X:    -0.7493      Y:    -0.0023      Z:    -0.0049

  Dipole Moment: [e a0]
     X:     0.0779      Y:    -0.0006      Z:    -0.0017     Total:     0.0779

  Dipole Moment: [D]
     X:     0.1980      Y:    -0.0017      Z:    -0.0044     Total:     0.1981

*** tstop() called on n089 at Fri Nov  5 14:13:32 2021
Module time:
	user time   =     473.43 seconds =       7.89 minutes
	system time =       4.38 seconds =       0.07 minutes
	total time  =        120 seconds =       2.00 minutes
Total time:
	user time   =     473.43 seconds =       7.89 minutes
	system time =       4.38 seconds =       0.07 minutes
	total time  =        120 seconds =       2.00 minutes
Grab this energy -157.81305034677442
    Psi4 stopped on: Friday, 05 November 2021 02:13PM
    Psi4 wall time for execution: 0:02:00.21

*** Psi4 exiting successfully. Buy a developer a beer!
