                               Psi4 1.4a2.dev629

  ==> Input File <==

--------------------------------------------------------------------------
import os
memory 14 GB

molecule {
 C   -0.3233402852    0.0024278985    0.0004337313
 C    0.0612682432   -1.4008978303   -2.4271974233
 C    0.0602254756    2.8005076036    0.0013895975
 C    0.0618077303   -1.3996047056    2.4277326192
 H    2.0890041767   -1.6479145627   -2.8447483778
 H   -0.7628265237   -0.3877402259   -4.0309891228
 H   -0.7673261557   -3.2869722846   -2.3502866846
 H    2.0842276375    3.2889230436    0.0034937274
 H   -0.7638556694    3.6764701075    1.6743504777
 H   -0.7702709059    3.6782698362   -1.6791294467
 H    2.0874326995   -1.6448964903    2.8465160562
 H   -0.7699370921   -3.2907354013    2.3488585215
 H   -0.7590172073   -0.3878613024    4.0295763246
units bohr
0 2
}

basis {

assign 6-31g_2dfp_

[ 6-31g_2dfp_ ]

spherical

!----------------------------------------------------------------------
! Basis Set Exchange
! Version v0.8.13
! https://www.basissetexchange.org
!----------------------------------------------------------------------
!   Basis set: 6-31G(2df,p)
! Description: 6-31G(2df,p)
!        Role: orbital
!     Version: 0  (Data from the original Basis Set Exchange)
!----------------------------------------------------------------------

****
H     0
S    3   1.00
     18.7311370              0.03349460
      2.8253937              0.23472695
      0.6401217              0.81375733
S    1   1.00
      0.1612778              1.00000000
P    1   1.00
      1.5000000              1.0000000
P    1   1.00
      0.3750000              1.0000000
****
B     0
S    6   1.00
   2068.8823000              0.0018663
    310.6495700              0.0142515
     70.6830330              0.0695516
     19.8610800              0.2325729
      6.2993048              0.4670787
      2.1270270              0.3634314
SP   3   1.00
      4.7279710             -0.1303938              0.0745976
      1.1903377             -0.1307889              0.3078467
      0.3594117              1.1309444              0.7434568
SP   1   1.00
      0.1267512              1.0000000              1.0000000
D    1   1.00
      0.8020000              1.0000000
D    1   1.00
      0.2005000              1.0000000
F    1   1.00
      0.5000000              1.0000000
****
C     0
S    6   1.00
   3047.5249000              0.0018347
    457.3695100              0.0140373
    103.9486900              0.0688426
     29.2101550              0.2321844
      9.2866630              0.4679413
      3.1639270              0.3623120
SP   3   1.00
      7.8682724             -0.1193324              0.0689991
      1.8812885             -0.1608542              0.3164240
      0.5442493              1.1434564              0.7443083
SP   1   1.00
      0.1687144              1.0000000              1.0000000
D    1   1.00
      1.2520000              1.0000000
D    1   1.00
      0.3130000              1.0000000
F    1   1.00
      0.8000000              1.0000000
****
N     0
S    6   1.00
   4173.5110000              0.0018348
    627.4579000              0.0139950
    142.9021000              0.0685870
     40.2343300              0.2322410
     12.8202100              0.4690700
      4.3904370              0.3604550
SP   3   1.00
     11.6263580             -0.1149610              0.0675800
      2.7162800             -0.1691180              0.3239070
      0.7722180              1.1458520              0.7408950
SP   1   1.00
      0.2120313              1.0000000              1.0000000
D    1   1.00
      1.8260000              1.0000000
D    1   1.00
      0.4565000              1.0000000
F    1   1.00
      1.0000000              1.0000000
****
O     0
S    6   1.00
   5484.6717000              0.0018311
    825.2349500              0.0139501
    188.0469600              0.0684451
     52.9645000              0.2327143
     16.8975700              0.4701930
      5.7996353              0.3585209
SP   3   1.00
     15.5396160             -0.1107775              0.0708743
      3.5999336             -0.1480263              0.3397528
      1.0137618              1.1307670              0.7271586
SP   1   1.00
      0.2700058              1.0000000              1.0000000
D    1   1.00
      2.5840000              1.0000000
D    1   1.00
      0.6460000              1.0000000
F    1   1.00
      1.4000000              1.0000000
****
F     0
S    6   1.00
   7001.7130900              0.0018196169
   1051.3660900              0.0139160796
    239.2856900              0.0684053245
     67.3974453              0.233185760
     21.5199573              0.471267439
      7.40310130             0.356618546
SP   3   1.00
     20.8479528             -0.108506975            0.0716287243
      4.80830834            -0.146451658            0.3459121030
      1.34406986             1.128688580            0.7224699570
SP   1   1.00
      0.358151393            1.0000000              1.0000000
D    1   1.00
      3.5000000              1.0000000
D    1   1.00
      0.8750000              1.0000000
F    1   1.00
      1.8500000              1.0000000
****
Al     0
S    6   1.00
  13983.1000000              0.00194267
   2098.7500000              0.0148599
    477.7050000              0.0728494
    134.3600000              0.2468300
     42.8709000              0.4872580
     14.5189000              0.3234960
SP   6   1.00
    239.6680000             -0.00292619             0.00460285
     57.4419000             -0.0374080              0.0331990
     18.2859000             -0.1144870              0.1362820
      6.5991400              0.1156350              0.3304760
      2.4904900              0.6125950              0.4491460
      0.9445400              0.3937990              0.2657040
SP   3   1.00
      1.2779000             -0.2276060             -0.0175130
      0.3975900              0.00144583             0.2445330
      0.1600950              1.0927900              0.8049340
SP   1   1.00
      0.0556577              1.0000000              1.0000000
D    1   1.00
      0.6500000              1.0000000
D    1   1.00
      0.1625000              1.0000000
F    1   1.00
      0.2500000              1.0000000
****
Si     0
S    6   1.00
  16115.9000000              0.00195948
   2425.5800000              0.01492880
    553.8670000              0.07284780
    156.3400000              0.24613000
     50.0683000              0.48591400
     17.0178000              0.32500200
SP   6   1.00
    292.7180000             -0.00278094             0.00443826
     69.8731000             -0.03571460             0.03266790
     22.3363000             -0.11498500             0.13472100
      8.1503900              0.09356340             0.32867800
      3.1345800              0.60301700             0.44964000
      1.2254300              0.41895900             0.26137200
SP   3   1.00
      1.7273800             -0.24463000            -0.01779510
      0.5729220              0.00431572             0.25353900
      0.2221920              1.09818000             0.80066900
SP   1   1.00
      0.0778369              1.00000000             1.00000000
D    1   1.00
      0.9000000              1.0000000
D    1   1.00
      0.2250000              1.0000000
F    1   1.00
      0.3200000              1.0000000
****
P     0
S    6   1.00
  19413.3000000              0.0018516
   2909.4200000              0.0142062
    661.3640000              0.0699995
    185.7590000              0.2400790
     59.1943000              0.4847620
     20.0310000              0.3352000
SP   6   1.00
    339.4780000             -0.00278217             0.00456462
     81.0101000             -0.0360499              0.03369360
     25.8780000             -0.1166310              0.13975500
      9.4522100              0.0968328              0.33936200
      3.6656600              0.6144180              0.45092100
      1.4674600              0.4037980              0.23858600
SP   3   1.00
      2.1562300             -0.2529230             -0.01776530
      0.7489970              0.0328517              0.27405800
      0.2831450              1.0812500              0.78542100
SP   1   1.00
      0.0998317              1.0000000              1.00000000
D    1   1.00
      1.1000000              1.0000000
D    1   1.00
      0.2750000              1.0000000
F    1   1.00
      0.4500000              1.0000000
****
S     0
S    6   1.00
  21917.1000000              0.0018690
   3301.4900000              0.0142300
    754.1460000              0.0696960
    212.7110000              0.2384870
     67.9896000              0.4833070
     23.0515000              0.3380740
SP   6   1.00
    423.7350000             -0.0023767              0.0040610
    100.7100000             -0.0316930              0.0306810
     32.1599000             -0.1133170              0.1304520
     11.8079000              0.0560900              0.3272050
      4.6311000              0.5922550              0.4528510
      1.8702500              0.4550060              0.2560420
SP   3   1.00
      2.6158400             -0.2503740             -0.0145110
      0.9221670              0.0669570              0.3102630
      0.3412870              1.0545100              0.7544830
SP   1   1.00
      0.1171670              1.0000000              1.0000000
D    1   1.00
      1.3000000              1.0000000
D    1   1.00
      0.3250000              1.0000000
F    1   1.00
      0.5500000              1.0000000
****
Cl     0
S    6   1.00
  25180.1000000              0.0018330
   3780.3500000              0.0140340
    860.4740000              0.0690970
    242.1450000              0.2374520
     77.3349000              0.4830340
     26.2470000              0.3398560
SP   6   1.00
    491.7650000             -0.0022974              0.0039894
    116.9840000             -0.0307140              0.0303180
     37.4153000             -0.1125280              0.1298800
     13.7834000              0.0450160              0.3279510
      5.4521500              0.5893530              0.4535270
      2.2258800              0.4652060              0.2521540
SP   3   1.00
      3.1864900             -0.2518300             -0.0142990
      1.1442700              0.0615890              0.3235720
      0.4203770              1.0601800              0.7435070
SP   1   1.00
      0.1426570              1.0000000              1.0000000
D    1   1.00
      1.5000000              1.0000000
D    1   1.00
      0.3750000              1.0000000
F    1   1.00
      0.7000000              1.0000000
****
}

set {
reference uhf
freeze_core true
e_convergence 10
d_convergence 10
dft_spherical_points 1202
dft_radial_points 99
}

e = energy('b3lyp')

print_out('Grab this energy {0}'.format(e))
--------------------------------------------------------------------------

    Molecular point group: c1

    Geometry (in Bohr), charge = 0, multiplicity = 2:

       Center              X                  Y                   Z               Mass
    ------------   -----------------  -----------------  -----------------  -----------------
         C           -0.323340506460     0.001959721050    -0.000020537548    12.000000000000
         C            0.061268021940    -1.401366007750    -2.427651692148    12.000000000000
         C            0.060225254340     2.800039426150     0.000935328652    12.000000000000
         C            0.061807509040    -1.400072883050     2.427278350352    12.000000000000
         H            2.089003955440    -1.648382740150    -2.845202646648     1.007825032230
         H           -0.762826744960    -0.388208403350    -4.031443391648     1.007825032230
         H           -0.767326376960    -3.287440462050    -2.350740953448     1.007825032230
         H            2.084227416240     3.288454866150     0.003039458552     1.007825032230
         H           -0.763855890660     3.676001930050     1.673896208852     1.007825032230
         H           -0.770271127160     3.677801658750    -1.679583715548     1.007825032230
         H            2.087432478240    -1.645364667750     2.846061787352     1.007825032230
         H           -0.769937313360    -3.291203578750     2.348404252652     1.007825032230
         H           -0.759017428560    -0.388329479850     4.029122055752     1.007825032230

  Charge       = 0
  Multiplicity = 2
  Basis Set: ANONYMOUSBD03F1F1
    Blend: 6-31G_2DFP_
  Basis Set: (ANONYMOUSBD03F1F1 AUX)
    Blend: DEF2-UNIVERSAL-JKFIT

    Orbital Energies [Eh]
    ---------------------

    Alpha Occupied:

       1A    -10.180342     2A    -10.167139     3A    -10.167108
       4A    -10.166797     5A     -0.797768     6A     -0.686343
       7A     -0.686032     8A     -0.530778     9A     -0.441127
      10A     -0.434870    11A     -0.434470    12A     -0.382650
      13A     -0.382549    14A     -0.363611    15A     -0.338218
      16A     -0.337777    17A     -0.168961

    Alpha Virtual:

      18A      0.076070    19A      0.134024    20A      0.134283
      21A      0.142421    22A      0.142831    23A      0.154882
      24A      0.178682    25A      0.178872    26A      0.203547
      27A      0.214803    28A      0.275631    29A      0.276341
      30A      0.398981    31A      0.399462    32A      0.403357
      33A      0.423932    34A      0.424264    35A      0.456594
      36A      0.495318    37A      0.495462    38A      0.512161
      39A      0.513979    40A      0.578620    41A      0.579007
      42A      0.591364    43A      0.591904    44A      0.602573
      45A      0.624716    46A      0.631765    47A      0.635976
      48A      0.636577    49A      0.663119    50A      0.663706
      51A      0.683656    52A      0.684065    53A      0.734995
      54A      0.825153    55A      0.825661    56A      0.853916
      57A      0.914773    58A      0.915280    59A      0.944122
      60A      0.944608    61A      0.961198    62A      0.961393
      63A      1.003457    64A      1.127812    65A      1.128391
      66A      1.142210    67A      1.163147    68A      1.163419
      69A      1.223324    70A      1.274182    71A      1.274791
      72A      1.279362    73A      1.324112    74A      1.324590
      75A      1.355993    76A      1.365624    77A      1.366474
      78A      1.392439    79A      1.403729    80A      1.404369
      81A      1.416358    82A      1.417867    83A      1.427909
      84A      1.491497    85A      1.499075    86A      1.542697
      87A      1.542976    88A      1.574153    89A      1.574743
      90A      1.669837    91A      1.738664    92A      1.740165
      93A      1.768320    94A      1.830516    95A      1.832255
      96A      1.971756    97A      2.017717    98A      2.018626
      99A      2.020025   100A      2.051557   101A      2.053761
     102A      2.738288   103A      2.738675   104A      2.790929
     105A      2.811421   106A      2.889517   107A      2.890327
     108A      2.895002   109A      2.929325   110A      2.929674
     111A      2.958958   112A      2.964137   113A      2.964659
     114A      3.034009   115A      3.070650   116A      3.071856
     117A      3.084434   118A      3.168345   119A      3.169193
     120A      3.180617   121A      3.285146   122A      3.285476
     123A      3.326576   124A      3.327746   125A      3.375628
     126A      3.489794   127A      3.490533   128A      3.514005
     129A      3.525314   130A      3.567446   131A      3.569349
     132A      3.575124   133A      3.665844   134A      3.666923
     135A      3.679663   136A      3.693728   137A      3.694544
     138A      3.775416   139A      3.778131   140A      3.789176
     141A      3.911471   142A      3.912985   143A      4.034440
     144A      4.110197   145A      4.112471   146A      4.147410
     147A      4.148755   148A      4.173337   149A      4.202125
     150A      4.202616   151A      4.203953   152A      4.211021
     153A      4.315133   154A      4.316798   155A      4.358979
     156A      4.423726   157A      4.425181   158A      4.443459
     159A      4.515543   160A      4.518129   161A      4.577600
     162A      4.578913   163A      4.617545   164A      4.709429
     165A      4.773455   166A      4.775804   167A      4.836921
     168A      4.962850   169A      5.002225   170A      5.003709
     171A      5.227580   172A      5.246659   173A      5.247367
     174A      5.353953   175A      5.357097   176A      5.479416

    Beta Occupied:

       1A    -10.167892     2A    -10.167871     3A    -10.167561
       4A    -10.166519     5A     -0.781093     6A     -0.684136
       7A     -0.683845     8A     -0.511749     9A     -0.431246
      10A     -0.430838    11A     -0.421821    12A     -0.376722
      13A     -0.376647    14A     -0.362595    15A     -0.333338
      16A     -0.332903

    Beta Virtual:

      17A     -0.025742    18A      0.077079    19A      0.134890
      20A      0.135198    21A      0.144263    22A      0.144731
      23A      0.163339    24A      0.182354    25A      0.182543
      26A      0.215033    27A      0.218929    28A      0.281990
      29A      0.282678    30A      0.400147    31A      0.400645
      32A      0.419793    33A      0.426740    34A      0.427078
      35A      0.468503    36A      0.497579    37A      0.497721
      38A      0.513896    39A      0.556323    40A      0.584159
      41A      0.584570    42A      0.597545    43A      0.598080
      44A      0.609997    45A      0.628095    46A      0.631924
      47A      0.639279    48A      0.639844    49A      0.666701
      50A      0.667252    51A      0.686315    52A      0.686677
      53A      0.757517    54A      0.830335    55A      0.830815
      56A      0.855269    57A      0.922758    58A      0.923237
      59A      0.945958    60A      0.953534    61A      0.966474
      62A      0.966732    63A      1.008697    64A      1.131833
      65A      1.132429    66A      1.155583    67A      1.168280
      68A      1.168434    69A      1.232297    70A      1.279760
      71A      1.280404    72A      1.285120    73A      1.329109
      74A      1.329572    75A      1.365408    76A      1.370939
      77A      1.371645    78A      1.393498    79A      1.407163
      80A      1.407863    81A      1.421459    82A      1.422865
      83A      1.428181    84A      1.492547    85A      1.509518
      86A      1.547127    87A      1.547365    88A      1.582053
      89A      1.582583    90A      1.674684    91A      1.744409
      92A      1.745946    93A      1.779098    94A      1.834364
      95A      1.836117    96A      1.972616    97A      2.024865
      98A      2.025972    99A      2.039689   100A      2.058305
     101A      2.060461   102A      2.746605   103A      2.747030
     104A      2.811834   105A      2.816063   106A      2.902239
     107A      2.903033   108A      2.924635   109A      2.931830
     110A      2.932152   111A      2.960035   112A      2.968682
     113A      2.969190   114A      3.041943   115A      3.080534
     116A      3.081658   117A      3.086386   118A      3.184065
     119A      3.184910   120A      3.188362   121A      3.289934
     122A      3.290286   123A      3.330362   124A      3.331567
     125A      3.383447   126A      3.492519   127A      3.493268
     128A      3.512374   129A      3.528362   130A      3.574968
     131A      3.580782   132A      3.582701   133A      3.670770
     134A      3.671510   135A      3.692952   136A      3.725568
     137A      3.725955   138A      3.780005   139A      3.782623
     140A      3.817692   141A      3.921262   142A      3.922828
     143A      4.045328   144A      4.116906   145A      4.119397
     146A      4.154558   147A      4.156039   148A      4.187372
     149A      4.208118   150A      4.209639   151A      4.210759
     152A      4.215520   153A      4.322586   154A      4.324230
     155A      4.362341   156A      4.431971   157A      4.433355
     158A      4.446352   159A      4.523333   160A      4.525917
     161A      4.588197   162A      4.589515   163A      4.624742
     164A      4.719773   165A      4.780452   166A      4.782715
     167A      4.839838   168A      4.967644   169A      5.006249
     170A      5.007764   171A      5.233193   172A      5.248436
     173A      5.249265   174A      5.360428   175A      5.363579
     176A      5.481738

    Final Occupation by Irrep:
              A
    DOCC [    16 ]
    SOCC [     1 ]

  @DF-UKS Final Energy:  -157.81305626430714

   => Energetics <=

    Nuclear Repulsion Energy =            125.3946699098638646
    One-Electron Energy =                -458.7489663168541938
    Two-Electron Energy =                 195.8483879510015981
    DFT Exchange-Correlation Energy =     -20.3071478083184118
    Empirical Dispersion Energy =           0.0000000000000000
    VV10 Nonlocal Energy =                  0.0000000000000000
    Total Energy =                       -157.8130562643071357

  UHF NO Occupations:
  HONO-2 :   15  A 1.9996009
  HONO-1 :   16  A 1.9989805
  HONO-0 :   17  A 1.0000000
  LUNO+0 :   18  A 0.0010195
  LUNO+1 :   19  A 0.0003991
  LUNO+2 :   20  A 0.0001981
  LUNO+3 :   21  A 0.0001970

Computation Completed

Properties will be evaluated at   0.000000,   0.000000,   0.000000 [a0]

Properties computed using the SCF density matrix

  Nuclear Dipole Moment: [e a0]
     X:     0.8272      Y:    -0.0033      Z:    -0.0032

  Electronic Dipole Moment: [e a0]
     X:    -0.7493      Y:     0.0033      Z:     0.0049

  Dipole Moment: [e a0]
     X:     0.0779      Y:    -0.0000      Z:     0.0017     Total:     0.0779

  Dipole Moment: [D]
     X:     0.1980      Y:    -0.0001      Z:     0.0044     Total:     0.1981

*** tstop() called on n023 at Fri Nov  5 14:37:35 2021
Module time:
	user time   =     637.56 seconds =      10.63 minutes
	system time =      12.19 seconds =       0.20 minutes
	total time  =        163 seconds =       2.72 minutes
Total time:
	user time   =     637.56 seconds =      10.63 minutes
	system time =      12.19 seconds =       0.20 minutes
	total time  =        163 seconds =       2.72 minutes
Grab this energy -157.81305626430714
    Psi4 stopped on: Friday, 05 November 2021 02:37PM
    Psi4 wall time for execution: 0:02:43.36

*** Psi4 exiting successfully. Buy a developer a beer!
