                               Psi4 1.4a2.dev629

  ==> Input File <==

--------------------------------------------------------------------------
import os
memory 14 GB

molecule {
 C   -0.3201728945   -0.0002585411   -0.0000000000
 C    0.0614407775   -1.4002116348   -2.4265604976
 C    0.0643977393    2.8015713585    0.0000000000
 C    0.0614407775   -1.4002116348    2.4265604976
 H    2.0867070912   -1.6441396787   -2.8471053412
 H   -0.7662254815   -0.3887437366   -4.0255104149
 H   -0.7661562800   -3.2919700324   -2.3492494008
 H    2.0862671592    3.2878414641   -0.0000000000
 H   -0.7673160475    3.6804757850    1.6758835659
 H   -0.7673160475    3.6804757850   -1.6758835659
 H    2.0867070912   -1.6441396787    2.8471053412
 H   -0.7661562800   -3.2919700324    2.3492494008
 H   -0.7662254815   -0.3887437366    4.0255104149
units bohr
0 2
}

basis {

assign 6-31g_2dfp_

[ 6-31g_2dfp_ ]

spherical

!----------------------------------------------------------------------
! Basis Set Exchange
! Version v0.8.13
! https://www.basissetexchange.org
!----------------------------------------------------------------------
!   Basis set: 6-31G(2df,p)
! Description: 6-31G(2df,p)
!        Role: orbital
!     Version: 0  (Data from the original Basis Set Exchange)
!----------------------------------------------------------------------

****
H     0
S    3   1.00
     18.7311370              0.03349460
      2.8253937              0.23472695
      0.6401217              0.81375733
S    1   1.00
      0.1612778              1.00000000
P    1   1.00
      1.5000000              1.0000000
P    1   1.00
      0.3750000              1.0000000
****
B     0
S    6   1.00
   2068.8823000              0.0018663
    310.6495700              0.0142515
     70.6830330              0.0695516
     19.8610800              0.2325729
      6.2993048              0.4670787
      2.1270270              0.3634314
SP   3   1.00
      4.7279710             -0.1303938              0.0745976
      1.1903377             -0.1307889              0.3078467
      0.3594117              1.1309444              0.7434568
SP   1   1.00
      0.1267512              1.0000000              1.0000000
D    1   1.00
      0.8020000              1.0000000
D    1   1.00
      0.2005000              1.0000000
F    1   1.00
      0.5000000              1.0000000
****
C     0
S    6   1.00
   3047.5249000              0.0018347
    457.3695100              0.0140373
    103.9486900              0.0688426
     29.2101550              0.2321844
      9.2866630              0.4679413
      3.1639270              0.3623120
SP   3   1.00
      7.8682724             -0.1193324              0.0689991
      1.8812885             -0.1608542              0.3164240
      0.5442493              1.1434564              0.7443083
SP   1   1.00
      0.1687144              1.0000000              1.0000000
D    1   1.00
      1.2520000              1.0000000
D    1   1.00
      0.3130000              1.0000000
F    1   1.00
      0.8000000              1.0000000
****
N     0
S    6   1.00
   4173.5110000              0.0018348
    627.4579000              0.0139950
    142.9021000              0.0685870
     40.2343300              0.2322410
     12.8202100              0.4690700
      4.3904370              0.3604550
SP   3   1.00
     11.6263580             -0.1149610              0.0675800
      2.7162800             -0.1691180              0.3239070
      0.7722180              1.1458520              0.7408950
SP   1   1.00
      0.2120313              1.0000000              1.0000000
D    1   1.00
      1.8260000              1.0000000
D    1   1.00
      0.4565000              1.0000000
F    1   1.00
      1.0000000              1.0000000
****
O     0
S    6   1.00
   5484.6717000              0.0018311
    825.2349500              0.0139501
    188.0469600              0.0684451
     52.9645000              0.2327143
     16.8975700              0.4701930
      5.7996353              0.3585209
SP   3   1.00
     15.5396160             -0.1107775              0.0708743
      3.5999336             -0.1480263              0.3397528
      1.0137618              1.1307670              0.7271586
SP   1   1.00
      0.2700058              1.0000000              1.0000000
D    1   1.00
      2.5840000              1.0000000
D    1   1.00
      0.6460000              1.0000000
F    1   1.00
      1.4000000              1.0000000
****
F     0
S    6   1.00
   7001.7130900              0.0018196169
   1051.3660900              0.0139160796
    239.2856900              0.0684053245
     67.3974453              0.233185760
     21.5199573              0.471267439
      7.40310130             0.356618546
SP   3   1.00
     20.8479528             -0.108506975            0.0716287243
      4.80830834            -0.146451658            0.3459121030
      1.34406986             1.128688580            0.7224699570
SP   1   1.00
      0.358151393            1.0000000              1.0000000
D    1   1.00
      3.5000000              1.0000000
D    1   1.00
      0.8750000              1.0000000
F    1   1.00
      1.8500000              1.0000000
****
Al     0
S    6   1.00
  13983.1000000              0.00194267
   2098.7500000              0.0148599
    477.7050000              0.0728494
    134.3600000              0.2468300
     42.8709000              0.4872580
     14.5189000              0.3234960
SP   6   1.00
    239.6680000             -0.00292619             0.00460285
     57.4419000             -0.0374080              0.0331990
     18.2859000             -0.1144870              0.1362820
      6.5991400              0.1156350              0.3304760
      2.4904900              0.6125950              0.4491460
      0.9445400              0.3937990              0.2657040
SP   3   1.00
      1.2779000             -0.2276060             -0.0175130
      0.3975900              0.00144583             0.2445330
      0.1600950              1.0927900              0.8049340
SP   1   1.00
      0.0556577              1.0000000              1.0000000
D    1   1.00
      0.6500000              1.0000000
D    1   1.00
      0.1625000              1.0000000
F    1   1.00
      0.2500000              1.0000000
****
Si     0
S    6   1.00
  16115.9000000              0.00195948
   2425.5800000              0.01492880
    553.8670000              0.07284780
    156.3400000              0.24613000
     50.0683000              0.48591400
     17.0178000              0.32500200
SP   6   1.00
    292.7180000             -0.00278094             0.00443826
     69.8731000             -0.03571460             0.03266790
     22.3363000             -0.11498500             0.13472100
      8.1503900              0.09356340             0.32867800
      3.1345800              0.60301700             0.44964000
      1.2254300              0.41895900             0.26137200
SP   3   1.00
      1.7273800             -0.24463000            -0.01779510
      0.5729220              0.00431572             0.25353900
      0.2221920              1.09818000             0.80066900
SP   1   1.00
      0.0778369              1.00000000             1.00000000
D    1   1.00
      0.9000000              1.0000000
D    1   1.00
      0.2250000              1.0000000
F    1   1.00
      0.3200000              1.0000000
****
P     0
S    6   1.00
  19413.3000000              0.0018516
   2909.4200000              0.0142062
    661.3640000              0.0699995
    185.7590000              0.2400790
     59.1943000              0.4847620
     20.0310000              0.3352000
SP   6   1.00
    339.4780000             -0.00278217             0.00456462
     81.0101000             -0.0360499              0.03369360
     25.8780000             -0.1166310              0.13975500
      9.4522100              0.0968328              0.33936200
      3.6656600              0.6144180              0.45092100
      1.4674600              0.4037980              0.23858600
SP   3   1.00
      2.1562300             -0.2529230             -0.01776530
      0.7489970              0.0328517              0.27405800
      0.2831450              1.0812500              0.78542100
SP   1   1.00
      0.0998317              1.0000000              1.00000000
D    1   1.00
      1.1000000              1.0000000
D    1   1.00
      0.2750000              1.0000000
F    1   1.00
      0.4500000              1.0000000
****
S     0
S    6   1.00
  21917.1000000              0.0018690
   3301.4900000              0.0142300
    754.1460000              0.0696960
    212.7110000              0.2384870
     67.9896000              0.4833070
     23.0515000              0.3380740
SP   6   1.00
    423.7350000             -0.0023767              0.0040610
    100.7100000             -0.0316930              0.0306810
     32.1599000             -0.1133170              0.1304520
     11.8079000              0.0560900              0.3272050
      4.6311000              0.5922550              0.4528510
      1.8702500              0.4550060              0.2560420
SP   3   1.00
      2.6158400             -0.2503740             -0.0145110
      0.9221670              0.0669570              0.3102630
      0.3412870              1.0545100              0.7544830
SP   1   1.00
      0.1171670              1.0000000              1.0000000
D    1   1.00
      1.3000000              1.0000000
D    1   1.00
      0.3250000              1.0000000
F    1   1.00
      0.5500000              1.0000000
****
Cl     0
S    6   1.00
  25180.1000000              0.0018330
   3780.3500000              0.0140340
    860.4740000              0.0690970
    242.1450000              0.2374520
     77.3349000              0.4830340
     26.2470000              0.3398560
SP   6   1.00
    491.7650000             -0.0022974              0.0039894
    116.9840000             -0.0307140              0.0303180
     37.4153000             -0.1125280              0.1298800
     13.7834000              0.0450160              0.3279510
      5.4521500              0.5893530              0.4535270
      2.2258800              0.4652060              0.2521540
SP   3   1.00
      3.1864900             -0.2518300             -0.0142990
      1.1442700              0.0615890              0.3235720
      0.4203770              1.0601800              0.7435070
SP   1   1.00
      0.1426570              1.0000000              1.0000000
D    1   1.00
      1.5000000              1.0000000
D    1   1.00
      0.3750000              1.0000000
F    1   1.00
      0.7000000              1.0000000
****
}

set {
reference uhf
freeze_core true
e_convergence 10
d_convergence 10
dft_spherical_points 1202
dft_radial_points 99
}

e = energy('b3lyp')

print_out('Grab this energy {0}'.format(e))
--------------------------------------------------------------------------

    Molecular point group: cs

    Geometry (in Bohr), charge = 0, multiplicity = 2:

       Center              X                  Y                   Z               Mass
    ------------   -----------------  -----------------  -----------------  -----------------
         C           -0.321549339657    -0.000429445053     0.000000000000    12.000000000000
         C            0.060064332343    -1.400382538753    -2.426560497600    12.000000000000
         C            0.063021294143     2.801400454547     0.000000000000    12.000000000000
         C            0.060064332343    -1.400382538753     2.426560497600    12.000000000000
         H            2.085330646043    -1.644310582653    -2.847105341200     1.007825032230
         H           -0.767601926657    -0.388914640553    -4.025510414900     1.007825032230
         H           -0.767532725157    -3.292140936353    -2.349249400800     1.007825032230
         H            2.084890714043     3.287670560147     0.000000000000     1.007825032230
         H           -0.768692492657     3.680304881047     1.675883565900     1.007825032230
         H           -0.768692492657     3.680304881047    -1.675883565900     1.007825032230
         H            2.085330646043    -1.644310582653     2.847105341200     1.007825032230
         H           -0.767532725157    -3.292140936353     2.349249400800     1.007825032230
         H           -0.767601926657    -0.388914640553     4.025510414900     1.007825032230

  Charge       = 0
  Multiplicity = 2
  Basis Set: ANONYMOUSC748D39C
    Blend: 6-31G_2DFP_
  Basis Set: (ANONYMOUSC748D39C AUX)
    Blend: DEF2-UNIVERSAL-JKFIT

    Orbital Energies [Eh]
    ---------------------

    Alpha Occupied:

       1Ap   -10.180229     1App  -10.167023     2Ap   -10.167003
       3Ap   -10.166948     4Ap    -0.797820     2App   -0.686232
       5Ap    -0.686167     6Ap    -0.530754     7Ap    -0.441361
       8Ap    -0.434624     3App   -0.434425     9Ap    -0.382998
       4App   -0.382696     5App   -0.363330     6App   -0.338033
      10Ap    -0.337866    11Ap    -0.168846

    Alpha Virtual:

      12Ap     0.076056     7App    0.134115    13Ap     0.134180
       8App    0.142485    14Ap     0.142609    15Ap     0.154944
       9App    0.178769    16Ap     0.178998    17Ap     0.203593
      10App    0.214670    18Ap     0.276070    11App    0.276178
      19Ap     0.399084    12App    0.399406    20Ap     0.403386
      21Ap     0.424054    13App    0.424151    22Ap     0.456597
      23Ap     0.495309    14App    0.495368    15App    0.512265
      24Ap     0.513975    16App    0.578646    25Ap     0.578809
      17App    0.591818    26Ap     0.592058    27Ap     0.602883
      28Ap     0.624619    18App    0.631635    19App    0.636009
      29Ap     0.636225    20App    0.663414    30Ap     0.663756
      31Ap     0.683678    21App    0.683977    32Ap     0.735123
      33Ap     0.825569    22App    0.825593    23App    0.853869
      24App    0.915169    34Ap     0.915216    25App    0.944230
      35Ap     0.944630    26App    0.961115    36Ap     0.961284
      37Ap     1.002572    27App    1.127781    38Ap     1.127961
      39Ap     1.142592    28App    1.163328    40Ap     1.163525
      41Ap     1.223741    29App    1.274639    42Ap     1.274913
      43Ap     1.279506    30App    1.323984    44Ap     1.324498
      45Ap     1.357019    46Ap     1.365404    31App    1.366011
      32App    1.392373    33App    1.404563    47Ap     1.404788
      34App    1.417416    48Ap     1.418026    35App    1.428095
      36App    1.491029    49Ap     1.499584    37App    1.542390
      50Ap     1.542455    51Ap     1.574234    38App    1.574518
      52Ap     1.669293    39App    1.739230    53Ap     1.740025
      54Ap     1.768535    55Ap     1.830877    40App    1.831264
      41App    1.971170    56Ap     2.018535    42App    2.018731
      57Ap     2.019996    43App    2.052636    58Ap     2.053396
      44App    2.738774    59Ap     2.738856    60Ap     2.791146
      45App    2.811150    61Ap     2.889853    46App    2.890408
      62Ap     2.894906    63Ap     2.929309    47App    2.929389
      48App    2.958833    49App    2.964307    64Ap     2.964502
      65Ap     3.034050    66Ap     3.071791    50App    3.072012
      51App    3.084296    52App    3.168683    67Ap     3.168918
      68Ap     3.180388    53App    3.284927    69Ap     3.285000
      54App    3.326086    70Ap     3.326379    71Ap     3.375916
      72Ap     3.490053    55App    3.490652    56App    3.514476
      73Ap     3.525168    57App    3.568689    74Ap     3.568930
      58App    3.575599    59App    3.666102    75Ap     3.666700
      76Ap     3.678620    77Ap     3.694402    60App    3.694420
      61App    3.777650    78Ap     3.777719    79Ap     3.790437
      80Ap     3.912035    62App    3.912203    81Ap     4.035628
      82Ap     4.110911    63App    4.111090    83Ap     4.147842
      64App    4.147955    84Ap     4.173374    85Ap     4.202898
      65App    4.203199    86Ap     4.203712    66App    4.210943
      87Ap     4.315725    67App    4.316599    68App    4.358869
      88Ap     4.424940    69App    4.425186    70App    4.442548
      71App    4.515670    89Ap     4.517767    90Ap     4.577982
      72App    4.578387    91Ap     4.618361    92Ap     4.709892
      73App    4.774330    93Ap     4.775350    74App    4.837142
      94Ap     4.962794    75App    5.003196    95Ap     5.004101
      96Ap     5.228133    76App    5.246769    97Ap     5.246816
      98Ap     5.354801    77App    5.355327    78App    5.479860

    Beta Occupied:

       1App  -10.167777     1Ap   -10.167763     2Ap   -10.167714
       3Ap   -10.166404     4Ap    -0.781129     2App   -0.684030
       5Ap    -0.683965     6Ap    -0.511721     7Ap    -0.430992
       3App   -0.430780     8Ap    -0.422063     9Ap    -0.377103
       4App   -0.376785     5App   -0.362312     6App   -0.333160
      10Ap    -0.332990

    Beta Virtual:

      11Ap    -0.025594    12Ap     0.077063     7App    0.134981
      13Ap     0.135030     8App    0.144369    14Ap     0.144484
      15Ap     0.163371     9App    0.182450    16Ap     0.182681
      10App    0.214903    17Ap     0.218998    18Ap     0.282409
      11App    0.282511    19Ap     0.400250    12App    0.400573
      20Ap     0.419771    21Ap     0.426867    13App    0.426968
      22Ap     0.468569    23Ap     0.497573    14App    0.497624
      15App    0.513995    24Ap     0.556368    16App    0.584210
      25Ap     0.584364    17App    0.597976    26Ap     0.598226
      27Ap     0.610281    28Ap     0.628027    18App    0.631791
      19App    0.639311    29Ap     0.639529    20App    0.666966
      30Ap     0.667276    31Ap     0.686313    21App    0.686617
      32Ap     0.757640    33Ap     0.830719    22App    0.830738
      23App    0.855220    24App    0.923136    34Ap     0.923182
      25App    0.946067    35Ap     0.953594    26App    0.966432
      36Ap     0.966614    37Ap     1.007764    27App    1.131876
      38Ap     1.132132    39Ap     1.155961    28App    1.168387
      40Ap     1.168488    41Ap     1.232721    29App    1.280214
      42Ap     1.280498    43Ap     1.285267    30App    1.328906
      44Ap     1.329440    45Ap     1.366452    46Ap     1.370642
      31App    1.371250    32App    1.393419    33App    1.408034
      47Ap     1.408287    34App    1.422496    48Ap     1.423074
      35App    1.428382    36App    1.492073    49Ap     1.510048
      50Ap     1.546691    37App    1.546764    51Ap     1.582257
      38App    1.582436    52Ap     1.674155    39App    1.744990
      53Ap     1.745772    54Ap     1.779308    55Ap     1.834739
      40App    1.835126    41App    1.972031    42App    2.025150
      56Ap     2.026410    57Ap     2.039933    43App    2.059353
      58Ap     2.060060    44App    2.747112    59Ap     2.747185
      45App    2.811562    60Ap     2.816334    61Ap     2.902538
      46App    2.903073    62Ap     2.924701    63Ap     2.931816
      47App    2.931891    48App    2.959894    49App    2.968841
      64Ap     2.969027    65Ap     3.041946    66Ap     3.081681
      50App    3.081879    51App    3.086120    52App    3.184534
      67Ap     3.184718    68Ap     3.188011    53App    3.289780
      69Ap     3.289833    54App    3.329859    70Ap     3.330181
      71Ap     3.383772    72Ap     3.492776    55App    3.493372
      56App    3.512837    73Ap     3.528250    57App    3.575464
      58App    3.582024    74Ap     3.582137    59App    3.670981
      75Ap     3.671454    76Ap     3.691935    60App    3.725866
      77Ap     3.726168    61App    3.782149    78Ap     3.782196
      79Ap     3.818956    80Ap     3.921833    62App    3.922034
      81Ap     4.046504    82Ap     4.117803    63App    4.117875
      83Ap     4.154988    64App    4.155192    84Ap     4.187407
      65App    4.209141    85Ap     4.209457    86Ap     4.211077
      66App    4.215379    87Ap     4.323153    67App    4.324074
      68App    4.362220    88Ap     4.433109    69App    4.433329
      70App    4.445460    71App    4.523465    89Ap     4.525551
      90Ap     4.588623    72App    4.588997    91Ap     4.625628
      92Ap     4.720146    73App    4.781324    93Ap     4.782309
      74App    4.840062    94Ap     4.967573    75App    5.007241
      95Ap     5.008110    96Ap     5.233880    76App    5.248562
      97Ap     5.248610    98Ap     5.361299    77App    5.361823
      78App    5.482183

    Final Occupation by Irrep:
             Ap   App
    DOCC [    10,    6 ]
    SOCC [     1,    0 ]

  @DF-UKS Final Energy:  -157.81307362386789

   => Energetics <=

    Nuclear Repulsion Energy =            125.4033499908454417
    One-Electron Energy =                -458.7664670263467883
    Two-Electron Energy =                 195.8574411730826625
    DFT Exchange-Correlation Energy =     -20.3073977614492343
    Empirical Dispersion Energy =           0.0000000000000000
    VV10 Nonlocal Energy =                  0.0000000000000000
    Total Energy =                       -157.8130736238678935

  UHF NO Occupations:
  HONO-2 :    9 Ap 1.9996019
  HONO-1 :   10 Ap 1.9989796
  HONO-0 :   11 Ap 1.0000000
  LUNO+0 :   12 Ap 0.0010204
  LUNO+1 :   13 Ap 0.0003981
  LUNO+2 :   14 Ap 0.0001976
  LUNO+3 :    7App 0.0001973

Computation Completed

Properties will be evaluated at   0.000000,   0.000000,   0.000000 [a0]

Properties computed using the SCF density matrix

  Nuclear Dipole Moment: [e a0]
     X:     0.8175      Y:    -0.0012      Z:     0.0000

  Electronic Dipole Moment: [e a0]
     X:    -0.7395      Y:     0.0011      Z:     0.0000

  Dipole Moment: [e a0]
     X:     0.0780      Y:    -0.0001      Z:     0.0000     Total:     0.0780

  Dipole Moment: [D]
     X:     0.1983      Y:    -0.0003      Z:     0.0000     Total:     0.1983

*** tstop() called on n091 at Fri Nov  5 12:28:53 2021
Module time:
	user time   =     495.46 seconds =       8.26 minutes
	system time =       4.68 seconds =       0.08 minutes
	total time  =        126 seconds =       2.10 minutes
Total time:
	user time   =     495.46 seconds =       8.26 minutes
	system time =       4.68 seconds =       0.08 minutes
	total time  =        126 seconds =       2.10 minutes
Grab this energy -157.8130736238679
    Psi4 stopped on: Friday, 05 November 2021 12:28PM
    Psi4 wall time for execution: 0:02:05.79

*** Psi4 exiting successfully. Buy a developer a beer!
