                               Psi4 1.4a2.dev629

  ==> Input File <==

--------------------------------------------------------------------------
import os
memory 14 GB

molecule {
 C   -0.3233202117    0.0000051131   -0.0049993169
 C    0.0608020841   -1.4078160797   -2.4321736464
 C    0.0612024147    2.8033845347    0.0062353058
 C    0.0618476052   -1.3955622733    2.4234202194
 H    2.0863156495   -1.6526331594   -2.8510877195
 H   -0.7650589844   -0.3971510101   -4.0320607935
 H   -0.7679837350   -3.2976003510   -2.3487272114
 H    2.0868452511    3.2875832828    0.0111381392
 H   -0.7685252791    3.6721575231    1.6860236876
 H   -0.7630127022    3.6873410455   -1.6671446196
 H    2.0876615101   -1.6350562630    2.8429201629
 H   -0.7633964665   -3.2860646464    2.3483056277
 H   -0.7659850126   -0.3786120300    4.0181501646
units bohr
0 2
}

basis {

assign 6-31g_2dfp_

[ 6-31g_2dfp_ ]

spherical

!----------------------------------------------------------------------
! Basis Set Exchange
! Version v0.8.13
! https://www.basissetexchange.org
!----------------------------------------------------------------------
!   Basis set: 6-31G(2df,p)
! Description: 6-31G(2df,p)
!        Role: orbital
!     Version: 0  (Data from the original Basis Set Exchange)
!----------------------------------------------------------------------

****
H     0
S    3   1.00
     18.7311370              0.03349460
      2.8253937              0.23472695
      0.6401217              0.81375733
S    1   1.00
      0.1612778              1.00000000
P    1   1.00
      1.5000000              1.0000000
P    1   1.00
      0.3750000              1.0000000
****
B     0
S    6   1.00
   2068.8823000              0.0018663
    310.6495700              0.0142515
     70.6830330              0.0695516
     19.8610800              0.2325729
      6.2993048              0.4670787
      2.1270270              0.3634314
SP   3   1.00
      4.7279710             -0.1303938              0.0745976
      1.1903377             -0.1307889              0.3078467
      0.3594117              1.1309444              0.7434568
SP   1   1.00
      0.1267512              1.0000000              1.0000000
D    1   1.00
      0.8020000              1.0000000
D    1   1.00
      0.2005000              1.0000000
F    1   1.00
      0.5000000              1.0000000
****
C     0
S    6   1.00
   3047.5249000              0.0018347
    457.3695100              0.0140373
    103.9486900              0.0688426
     29.2101550              0.2321844
      9.2866630              0.4679413
      3.1639270              0.3623120
SP   3   1.00
      7.8682724             -0.1193324              0.0689991
      1.8812885             -0.1608542              0.3164240
      0.5442493              1.1434564              0.7443083
SP   1   1.00
      0.1687144              1.0000000              1.0000000
D    1   1.00
      1.2520000              1.0000000
D    1   1.00
      0.3130000              1.0000000
F    1   1.00
      0.8000000              1.0000000
****
N     0
S    6   1.00
   4173.5110000              0.0018348
    627.4579000              0.0139950
    142.9021000              0.0685870
     40.2343300              0.2322410
     12.8202100              0.4690700
      4.3904370              0.3604550
SP   3   1.00
     11.6263580             -0.1149610              0.0675800
      2.7162800             -0.1691180              0.3239070
      0.7722180              1.1458520              0.7408950
SP   1   1.00
      0.2120313              1.0000000              1.0000000
D    1   1.00
      1.8260000              1.0000000
D    1   1.00
      0.4565000              1.0000000
F    1   1.00
      1.0000000              1.0000000
****
O     0
S    6   1.00
   5484.6717000              0.0018311
    825.2349500              0.0139501
    188.0469600              0.0684451
     52.9645000              0.2327143
     16.8975700              0.4701930
      5.7996353              0.3585209
SP   3   1.00
     15.5396160             -0.1107775              0.0708743
      3.5999336             -0.1480263              0.3397528
      1.0137618              1.1307670              0.7271586
SP   1   1.00
      0.2700058              1.0000000              1.0000000
D    1   1.00
      2.5840000              1.0000000
D    1   1.00
      0.6460000              1.0000000
F    1   1.00
      1.4000000              1.0000000
****
F     0
S    6   1.00
   7001.7130900              0.0018196169
   1051.3660900              0.0139160796
    239.2856900              0.0684053245
     67.3974453              0.233185760
     21.5199573              0.471267439
      7.40310130             0.356618546
SP   3   1.00
     20.8479528             -0.108506975            0.0716287243
      4.80830834            -0.146451658            0.3459121030
      1.34406986             1.128688580            0.7224699570
SP   1   1.00
      0.358151393            1.0000000              1.0000000
D    1   1.00
      3.5000000              1.0000000
D    1   1.00
      0.8750000              1.0000000
F    1   1.00
      1.8500000              1.0000000
****
Al     0
S    6   1.00
  13983.1000000              0.00194267
   2098.7500000              0.0148599
    477.7050000              0.0728494
    134.3600000              0.2468300
     42.8709000              0.4872580
     14.5189000              0.3234960
SP   6   1.00
    239.6680000             -0.00292619             0.00460285
     57.4419000             -0.0374080              0.0331990
     18.2859000             -0.1144870              0.1362820
      6.5991400              0.1156350              0.3304760
      2.4904900              0.6125950              0.4491460
      0.9445400              0.3937990              0.2657040
SP   3   1.00
      1.2779000             -0.2276060             -0.0175130
      0.3975900              0.00144583             0.2445330
      0.1600950              1.0927900              0.8049340
SP   1   1.00
      0.0556577              1.0000000              1.0000000
D    1   1.00
      0.6500000              1.0000000
D    1   1.00
      0.1625000              1.0000000
F    1   1.00
      0.2500000              1.0000000
****
Si     0
S    6   1.00
  16115.9000000              0.00195948
   2425.5800000              0.01492880
    553.8670000              0.07284780
    156.3400000              0.24613000
     50.0683000              0.48591400
     17.0178000              0.32500200
SP   6   1.00
    292.7180000             -0.00278094             0.00443826
     69.8731000             -0.03571460             0.03266790
     22.3363000             -0.11498500             0.13472100
      8.1503900              0.09356340             0.32867800
      3.1345800              0.60301700             0.44964000
      1.2254300              0.41895900             0.26137200
SP   3   1.00
      1.7273800             -0.24463000            -0.01779510
      0.5729220              0.00431572             0.25353900
      0.2221920              1.09818000             0.80066900
SP   1   1.00
      0.0778369              1.00000000             1.00000000
D    1   1.00
      0.9000000              1.0000000
D    1   1.00
      0.2250000              1.0000000
F    1   1.00
      0.3200000              1.0000000
****
P     0
S    6   1.00
  19413.3000000              0.0018516
   2909.4200000              0.0142062
    661.3640000              0.0699995
    185.7590000              0.2400790
     59.1943000              0.4847620
     20.0310000              0.3352000
SP   6   1.00
    339.4780000             -0.00278217             0.00456462
     81.0101000             -0.0360499              0.03369360
     25.8780000             -0.1166310              0.13975500
      9.4522100              0.0968328              0.33936200
      3.6656600              0.6144180              0.45092100
      1.4674600              0.4037980              0.23858600
SP   3   1.00
      2.1562300             -0.2529230             -0.01776530
      0.7489970              0.0328517              0.27405800
      0.2831450              1.0812500              0.78542100
SP   1   1.00
      0.0998317              1.0000000              1.00000000
D    1   1.00
      1.1000000              1.0000000
D    1   1.00
      0.2750000              1.0000000
F    1   1.00
      0.4500000              1.0000000
****
S     0
S    6   1.00
  21917.1000000              0.0018690
   3301.4900000              0.0142300
    754.1460000              0.0696960
    212.7110000              0.2384870
     67.9896000              0.4833070
     23.0515000              0.3380740
SP   6   1.00
    423.7350000             -0.0023767              0.0040610
    100.7100000             -0.0316930              0.0306810
     32.1599000             -0.1133170              0.1304520
     11.8079000              0.0560900              0.3272050
      4.6311000              0.5922550              0.4528510
      1.8702500              0.4550060              0.2560420
SP   3   1.00
      2.6158400             -0.2503740             -0.0145110
      0.9221670              0.0669570              0.3102630
      0.3412870              1.0545100              0.7544830
SP   1   1.00
      0.1171670              1.0000000              1.0000000
D    1   1.00
      1.3000000              1.0000000
D    1   1.00
      0.3250000              1.0000000
F    1   1.00
      0.5500000              1.0000000
****
Cl     0
S    6   1.00
  25180.1000000              0.0018330
   3780.3500000              0.0140340
    860.4740000              0.0690970
    242.1450000              0.2374520
     77.3349000              0.4830340
     26.2470000              0.3398560
SP   6   1.00
    491.7650000             -0.0022974              0.0039894
    116.9840000             -0.0307140              0.0303180
     37.4153000             -0.1125280              0.1298800
     13.7834000              0.0450160              0.3279510
      5.4521500              0.5893530              0.4535270
      2.2258800              0.4652060              0.2521540
SP   3   1.00
      3.1864900             -0.2518300             -0.0142990
      1.1442700              0.0615890              0.3235720
      0.4203770              1.0601800              0.7435070
SP   1   1.00
      0.1426570              1.0000000              1.0000000
D    1   1.00
      1.5000000              1.0000000
D    1   1.00
      0.3750000              1.0000000
F    1   1.00
      0.7000000              1.0000000
****
}

set {
reference uhf
freeze_core true
e_convergence 10
d_convergence 10
dft_spherical_points 1202
dft_radial_points 99
}

e = energy('b3lyp')

print_out('Grab this energy {0}'.format(e))
--------------------------------------------------------------------------

    Molecular point group: c1

    Geometry (in Bohr), charge = 0, multiplicity = 2:

       Center              X                  Y                   Z               Mass
    ------------   -----------------  -----------------  -----------------  -----------------
         C           -0.323430359355     0.000003367004    -0.003551404175    12.000000000000
         C            0.060691936445    -1.407817825796    -2.430725733675    12.000000000000
         C            0.061092267045     2.803382788604     0.007683218525    12.000000000000
         C            0.061737457545    -1.395564019396     2.424868132125    12.000000000000
         H            2.086205501845    -1.652634905496    -2.849639806775     1.007825032230
         H           -0.765169132055    -0.397152756196    -4.030612880775     1.007825032230
         H           -0.768093882655    -3.297602097096    -2.347279298675     1.007825032230
         H            2.086735103445     3.287581536704     0.012586051925     1.007825032230
         H           -0.768635426755     3.672155777004     1.687471600325     1.007825032230
         H           -0.763122849855     3.687339299404    -1.665696706875     1.007825032230
         H            2.087551362445    -1.635058009096     2.844368075625     1.007825032230
         H           -0.763506614155    -3.286066392496     2.349753540425     1.007825032230
         H           -0.766095160255    -0.378613776096     4.019598077325     1.007825032230

  Charge       = 0
  Multiplicity = 2
  Basis Set: ANONYMOUS8275C85A
    Blend: 6-31G_2DFP_
  Basis Set: (ANONYMOUS8275C85A AUX)
    Blend: DEF2-UNIVERSAL-JKFIT

    Orbital Energies [Eh]
    ---------------------

    Alpha Occupied:

       1A    -10.180393     2A    -10.167234     3A    -10.166963
       4A    -10.166691     5A     -0.797512     6A     -0.686396
       7A     -0.685956     8A     -0.530610     9A     -0.441116
      10A     -0.434869    11A     -0.434339    12A     -0.382881
      13A     -0.382591    14A     -0.363812    15A     -0.338111
      16A     -0.337564    17A     -0.168941

    Alpha Virtual:

      18A      0.076080    19A      0.133974    20A      0.134454
      21A      0.142623    22A      0.142899    23A      0.154774
      24A      0.178721    25A      0.179168    26A      0.203253
      27A      0.214931    28A      0.275576    29A      0.275912
      30A      0.399061    31A      0.399345    32A      0.403503
      33A      0.424021    34A      0.424291    35A      0.456415
      36A      0.494994    37A      0.495795    38A      0.512227
      39A      0.514044    40A      0.578601    41A      0.579089
      42A      0.591709    43A      0.591768    44A      0.602617
      45A      0.624888    46A      0.631999    47A      0.635977
      48A      0.636412    49A      0.663082    50A      0.663516
      51A      0.683626    52A      0.684111    53A      0.735125
      54A      0.824559    55A      0.826202    56A      0.853778
      57A      0.914826    58A      0.915313    59A      0.944007
      60A      0.944206    61A      0.961200    62A      0.961719
      63A      1.003638    64A      1.126877    65A      1.129212
      66A      1.141797    67A      1.163390    68A      1.164359
      69A      1.222912    70A      1.273847    71A      1.274890
      72A      1.279191    73A      1.324070    74A      1.324238
      75A      1.355656    76A      1.365170    77A      1.366605
      78A      1.392922    79A      1.404001    80A      1.405620
      81A      1.416629    82A      1.417628    83A      1.428185
      84A      1.490913    85A      1.499645    86A      1.542304
      87A      1.543040    88A      1.572538    89A      1.576261
      90A      1.670608    91A      1.737825    92A      1.739956
      93A      1.768372    94A      1.831340    95A      1.832346
      96A      1.971131    97A      2.016839    98A      2.018496
      99A      2.019739   100A      2.049747   101A      2.054787
     102A      2.738049   103A      2.738574   104A      2.790695
     105A      2.811353   106A      2.889741   107A      2.889946
     108A      2.894538   109A      2.929478   110A      2.929817
     111A      2.959038   112A      2.963516   113A      2.965323
     114A      3.033839   115A      3.070328   116A      3.072313
     117A      3.083981   118A      3.167926   119A      3.169474
     120A      3.179964   121A      3.284923   122A      3.286351
     123A      3.325970   124A      3.327871   125A      3.375752
     126A      3.489546   127A      3.490521   128A      3.513882
     129A      3.524951   130A      3.566968   131A      3.569210
     132A      3.575490   133A      3.667051   134A      3.667269
     135A      3.680233   136A      3.693789   137A      3.694669
     138A      3.775886   139A      3.777521   140A      3.789576
     141A      3.909710   142A      3.912545   143A      4.033923
     144A      4.110287   145A      4.113026   146A      4.146462
     147A      4.149767   148A      4.172554   149A      4.200696
     150A      4.201806   151A      4.204045   152A      4.210600
     153A      4.316033   154A      4.316073   155A      4.359633
     156A      4.425451   157A      4.425720   158A      4.445497
     159A      4.515680   160A      4.517369   161A      4.576479
     162A      4.578615   163A      4.617147   164A      4.708159
     165A      4.772480   166A      4.775104   167A      4.835607
     168A      4.964177   169A      5.002860   170A      5.004832
     171A      5.228552   172A      5.246943   173A      5.247263
     174A      5.354643   175A      5.356039   176A      5.478116

    Beta Occupied:

       1A    -10.167989     2A    -10.167721     3A    -10.167454
       4A    -10.166559     5A     -0.780853     6A     -0.684209
       7A     -0.683761     8A     -0.511535     9A     -0.431267
      10A     -0.430721    11A     -0.421855    12A     -0.376992
      13A     -0.376682    14A     -0.362800    15A     -0.333223
      16A     -0.332669

    Beta Virtual:

      17A     -0.025573    18A      0.077085    19A      0.134845
      20A      0.135346    21A      0.144498    22A      0.144762
      23A      0.163192    24A      0.182367    25A      0.182834
      26A      0.215159    27A      0.218684    28A      0.281932
      29A      0.282291    30A      0.400277    31A      0.400510
      32A      0.419882    33A      0.426815    34A      0.427116
      35A      0.468249    36A      0.497245    37A      0.498054
      38A      0.513954    39A      0.556417    40A      0.584182
      41A      0.584614    42A      0.597885    43A      0.597967
      44A      0.610043    45A      0.628232    46A      0.632153
      47A      0.639228    48A      0.639697    49A      0.666616
      50A      0.667103    51A      0.686200    52A      0.686788
      53A      0.757724    54A      0.829702    55A      0.831365
      56A      0.855120    57A      0.922786    58A      0.923299
      59A      0.945859    60A      0.953109    61A      0.966445
      62A      0.967064    63A      1.008885    64A      1.130919
      65A      1.133241    66A      1.155131    67A      1.168444
      68A      1.169477    69A      1.231940    70A      1.279408
      71A      1.280459    72A      1.284967    73A      1.329021
      74A      1.329222    75A      1.365063    76A      1.370369
      77A      1.372006    78A      1.393974    79A      1.407468
      80A      1.409030    81A      1.421675    82A      1.422671
      83A      1.428470    84A      1.491952    85A      1.510067
      86A      1.546585    87A      1.547527    88A      1.580576
      89A      1.584005    90A      1.675461    91A      1.743593
      92A      1.745717    93A      1.779110    94A      1.835153
      95A      1.836194    96A      1.971987    97A      2.023124
      98A      2.026142    99A      2.039851   100A      2.056595
     101A      2.061452   102A      2.746371   103A      2.746986
     104A      2.811766   105A      2.815864   106A      2.902503
     107A      2.902639   108A      2.924206   109A      2.932022
     110A      2.932181   111A      2.960108   112A      2.968058
     113A      2.969802   114A      3.041732   115A      3.080032
     116A      3.082199   117A      3.085942   118A      3.183876
     119A      3.185192   120A      3.187677   121A      3.289741
     122A      3.291037   123A      3.329772   124A      3.331690
     125A      3.383537   126A      3.492272   127A      3.493232
     128A      3.512260   129A      3.528042   130A      3.574892
     131A      3.580602   132A      3.582839   133A      3.671962
     134A      3.672238   135A      3.693532   136A      3.725333
     137A      3.726135   138A      3.780367   139A      3.782041
     140A      3.818101   141A      3.919565   142A      3.922399
     143A      4.044889   144A      4.117012   145A      4.119739
     146A      4.153780   147A      4.156971   148A      4.186562
     149A      4.206617   150A      4.209666   151A      4.210046
     152A      4.215081   153A      4.323549   154A      4.323621
     155A      4.362973   156A      4.433595   157A      4.433838
     158A      4.448422   159A      4.523501   160A      4.524993
     161A      4.586983   162A      4.589278   163A      4.624319
     164A      4.718502   165A      4.779397   166A      4.782095
     167A      4.838528   168A      4.968948   169A      5.006878
     170A      5.008848   171A      5.234249   172A      5.248714
     173A      5.249044   174A      5.361077   175A      5.362510
     176A      5.480430

    Final Occupation by Irrep:
              A
    DOCC [    16 ]
    SOCC [     1 ]

  @DF-UKS Final Energy:  -157.81304032447005

   => Energetics <=

    Nuclear Repulsion Energy =            125.3668974117739623
    One-Electron Energy =                -458.6943441522386138
    Two-Electron Energy =                 195.8216681306360556
    DFT Exchange-Correlation Energy =     -20.3072617146414380
    Empirical Dispersion Energy =           0.0000000000000000
    VV10 Nonlocal Energy =                  0.0000000000000000
    Total Energy =                       -157.8130403244700517

  UHF NO Occupations:
  HONO-2 :   15  A 1.9996025
  HONO-1 :   16  A 1.9989782
  HONO-0 :   17  A 1.0000000
  LUNO+0 :   18  A 0.0010218
  LUNO+1 :   19  A 0.0003975
  LUNO+2 :   20  A 0.0001987
  LUNO+3 :   21  A 0.0001980

Computation Completed

Properties will be evaluated at   0.000000,   0.000000,   0.000000 [a0]

Properties computed using the SCF density matrix

  Nuclear Dipole Moment: [e a0]
     X:     0.8264      Y:    -0.0000      Z:     0.0102

  Electronic Dipole Moment: [e a0]
     X:    -0.7484      Y:     0.0000      Z:    -0.0109

  Dipole Moment: [e a0]
     X:     0.0780      Y:    -0.0000      Z:    -0.0008     Total:     0.0781

  Dipole Moment: [D]
     X:     0.1984      Y:    -0.0000      Z:    -0.0019     Total:     0.1984

*** tstop() called on n091 at Fri Nov  5 13:29:23 2021
Module time:
	user time   =     495.52 seconds =       8.26 minutes
	system time =       4.48 seconds =       0.07 minutes
	total time  =        126 seconds =       2.10 minutes
Total time:
	user time   =     495.52 seconds =       8.26 minutes
	system time =       4.48 seconds =       0.07 minutes
	total time  =        126 seconds =       2.10 minutes
Grab this energy -157.81304032447005
    Psi4 stopped on: Friday, 05 November 2021 01:29PM
    Psi4 wall time for execution: 0:02:05.72

*** Psi4 exiting successfully. Buy a developer a beer!
