                               Psi4 1.4a2.dev629

  ==> Input File <==

--------------------------------------------------------------------------
import os
memory 14 GB

molecule {
 C   -0.3233387728   -0.0000052590   -0.0053443659
 C    0.0610117722   -1.4018056844   -2.4259014037
 C    0.0610194860    2.8017555304   -0.0027075655
 C    0.0612676022   -1.3999426179    2.4268629878
 H    2.0871430977   -1.6437290967   -2.8470508736
 H   -0.7655780408   -0.3873725155   -4.0245692715
 H   -0.7653004637   -3.2922328103   -2.3485944572
 H    2.0867942895    3.2880960855    0.0016208739
 H   -0.7646116279    3.6810378090    1.6775370773
 H   -0.7666779501    3.6794536837   -1.6754671879
 H    2.0867312258   -1.6444594432    2.8478333042
 H   -0.7658381818   -3.2917605194    2.3493853714
 H   -0.7652303131   -0.3890594758    4.0263955106
units bohr
0 2
}

basis {

assign 6-31g_2dfp_

[ 6-31g_2dfp_ ]

spherical

!----------------------------------------------------------------------
! Basis Set Exchange
! Version v0.8.13
! https://www.basissetexchange.org
!----------------------------------------------------------------------
!   Basis set: 6-31G(2df,p)
! Description: 6-31G(2df,p)
!        Role: orbital
!     Version: 0  (Data from the original Basis Set Exchange)
!----------------------------------------------------------------------

****
H     0
S    3   1.00
     18.7311370              0.03349460
      2.8253937              0.23472695
      0.6401217              0.81375733
S    1   1.00
      0.1612778              1.00000000
P    1   1.00
      1.5000000              1.0000000
P    1   1.00
      0.3750000              1.0000000
****
B     0
S    6   1.00
   2068.8823000              0.0018663
    310.6495700              0.0142515
     70.6830330              0.0695516
     19.8610800              0.2325729
      6.2993048              0.4670787
      2.1270270              0.3634314
SP   3   1.00
      4.7279710             -0.1303938              0.0745976
      1.1903377             -0.1307889              0.3078467
      0.3594117              1.1309444              0.7434568
SP   1   1.00
      0.1267512              1.0000000              1.0000000
D    1   1.00
      0.8020000              1.0000000
D    1   1.00
      0.2005000              1.0000000
F    1   1.00
      0.5000000              1.0000000
****
C     0
S    6   1.00
   3047.5249000              0.0018347
    457.3695100              0.0140373
    103.9486900              0.0688426
     29.2101550              0.2321844
      9.2866630              0.4679413
      3.1639270              0.3623120
SP   3   1.00
      7.8682724             -0.1193324              0.0689991
      1.8812885             -0.1608542              0.3164240
      0.5442493              1.1434564              0.7443083
SP   1   1.00
      0.1687144              1.0000000              1.0000000
D    1   1.00
      1.2520000              1.0000000
D    1   1.00
      0.3130000              1.0000000
F    1   1.00
      0.8000000              1.0000000
****
N     0
S    6   1.00
   4173.5110000              0.0018348
    627.4579000              0.0139950
    142.9021000              0.0685870
     40.2343300              0.2322410
     12.8202100              0.4690700
      4.3904370              0.3604550
SP   3   1.00
     11.6263580             -0.1149610              0.0675800
      2.7162800             -0.1691180              0.3239070
      0.7722180              1.1458520              0.7408950
SP   1   1.00
      0.2120313              1.0000000              1.0000000
D    1   1.00
      1.8260000              1.0000000
D    1   1.00
      0.4565000              1.0000000
F    1   1.00
      1.0000000              1.0000000
****
O     0
S    6   1.00
   5484.6717000              0.0018311
    825.2349500              0.0139501
    188.0469600              0.0684451
     52.9645000              0.2327143
     16.8975700              0.4701930
      5.7996353              0.3585209
SP   3   1.00
     15.5396160             -0.1107775              0.0708743
      3.5999336             -0.1480263              0.3397528
      1.0137618              1.1307670              0.7271586
SP   1   1.00
      0.2700058              1.0000000              1.0000000
D    1   1.00
      2.5840000              1.0000000
D    1   1.00
      0.6460000              1.0000000
F    1   1.00
      1.4000000              1.0000000
****
F     0
S    6   1.00
   7001.7130900              0.0018196169
   1051.3660900              0.0139160796
    239.2856900              0.0684053245
     67.3974453              0.233185760
     21.5199573              0.471267439
      7.40310130             0.356618546
SP   3   1.00
     20.8479528             -0.108506975            0.0716287243
      4.80830834            -0.146451658            0.3459121030
      1.34406986             1.128688580            0.7224699570
SP   1   1.00
      0.358151393            1.0000000              1.0000000
D    1   1.00
      3.5000000              1.0000000
D    1   1.00
      0.8750000              1.0000000
F    1   1.00
      1.8500000              1.0000000
****
Al     0
S    6   1.00
  13983.1000000              0.00194267
   2098.7500000              0.0148599
    477.7050000              0.0728494
    134.3600000              0.2468300
     42.8709000              0.4872580
     14.5189000              0.3234960
SP   6   1.00
    239.6680000             -0.00292619             0.00460285
     57.4419000             -0.0374080              0.0331990
     18.2859000             -0.1144870              0.1362820
      6.5991400              0.1156350              0.3304760
      2.4904900              0.6125950              0.4491460
      0.9445400              0.3937990              0.2657040
SP   3   1.00
      1.2779000             -0.2276060             -0.0175130
      0.3975900              0.00144583             0.2445330
      0.1600950              1.0927900              0.8049340
SP   1   1.00
      0.0556577              1.0000000              1.0000000
D    1   1.00
      0.6500000              1.0000000
D    1   1.00
      0.1625000              1.0000000
F    1   1.00
      0.2500000              1.0000000
****
Si     0
S    6   1.00
  16115.9000000              0.00195948
   2425.5800000              0.01492880
    553.8670000              0.07284780
    156.3400000              0.24613000
     50.0683000              0.48591400
     17.0178000              0.32500200
SP   6   1.00
    292.7180000             -0.00278094             0.00443826
     69.8731000             -0.03571460             0.03266790
     22.3363000             -0.11498500             0.13472100
      8.1503900              0.09356340             0.32867800
      3.1345800              0.60301700             0.44964000
      1.2254300              0.41895900             0.26137200
SP   3   1.00
      1.7273800             -0.24463000            -0.01779510
      0.5729220              0.00431572             0.25353900
      0.2221920              1.09818000             0.80066900
SP   1   1.00
      0.0778369              1.00000000             1.00000000
D    1   1.00
      0.9000000              1.0000000
D    1   1.00
      0.2250000              1.0000000
F    1   1.00
      0.3200000              1.0000000
****
P     0
S    6   1.00
  19413.3000000              0.0018516
   2909.4200000              0.0142062
    661.3640000              0.0699995
    185.7590000              0.2400790
     59.1943000              0.4847620
     20.0310000              0.3352000
SP   6   1.00
    339.4780000             -0.00278217             0.00456462
     81.0101000             -0.0360499              0.03369360
     25.8780000             -0.1166310              0.13975500
      9.4522100              0.0968328              0.33936200
      3.6656600              0.6144180              0.45092100
      1.4674600              0.4037980              0.23858600
SP   3   1.00
      2.1562300             -0.2529230             -0.01776530
      0.7489970              0.0328517              0.27405800
      0.2831450              1.0812500              0.78542100
SP   1   1.00
      0.0998317              1.0000000              1.00000000
D    1   1.00
      1.1000000              1.0000000
D    1   1.00
      0.2750000              1.0000000
F    1   1.00
      0.4500000              1.0000000
****
S     0
S    6   1.00
  21917.1000000              0.0018690
   3301.4900000              0.0142300
    754.1460000              0.0696960
    212.7110000              0.2384870
     67.9896000              0.4833070
     23.0515000              0.3380740
SP   6   1.00
    423.7350000             -0.0023767              0.0040610
    100.7100000             -0.0316930              0.0306810
     32.1599000             -0.1133170              0.1304520
     11.8079000              0.0560900              0.3272050
      4.6311000              0.5922550              0.4528510
      1.8702500              0.4550060              0.2560420
SP   3   1.00
      2.6158400             -0.2503740             -0.0145110
      0.9221670              0.0669570              0.3102630
      0.3412870              1.0545100              0.7544830
SP   1   1.00
      0.1171670              1.0000000              1.0000000
D    1   1.00
      1.3000000              1.0000000
D    1   1.00
      0.3250000              1.0000000
F    1   1.00
      0.5500000              1.0000000
****
Cl     0
S    6   1.00
  25180.1000000              0.0018330
   3780.3500000              0.0140340
    860.4740000              0.0690970
    242.1450000              0.2374520
     77.3349000              0.4830340
     26.2470000              0.3398560
SP   6   1.00
    491.7650000             -0.0022974              0.0039894
    116.9840000             -0.0307140              0.0303180
     37.4153000             -0.1125280              0.1298800
     13.7834000              0.0450160              0.3279510
      5.4521500              0.5893530              0.4535270
      2.2258800              0.4652060              0.2521540
SP   3   1.00
      3.1864900             -0.2518300             -0.0142990
      1.1442700              0.0615890              0.3235720
      0.4203770              1.0601800              0.7435070
SP   1   1.00
      0.1426570              1.0000000              1.0000000
D    1   1.00
      1.5000000              1.0000000
D    1   1.00
      0.3750000              1.0000000
F    1   1.00
      0.7000000              1.0000000
****
}

set {
reference uhf
freeze_core true
e_convergence 10
d_convergence 10
dft_spherical_points 1202
dft_radial_points 99
}

e = energy('b3lyp')

print_out('Grab this energy {0}'.format(e))
--------------------------------------------------------------------------

    Molecular point group: c1

    Geometry (in Bohr), charge = 0, multiplicity = 2:

       Center              X                  Y                   Z               Mass
    ------------   -----------------  -----------------  -----------------  -----------------
         C           -0.323338786752    -0.000005208901    -0.003978713939    12.000000000000
         C            0.061011758248    -1.401805634301    -2.424535751739    12.000000000000
         C            0.061019472048     2.801755580499    -0.001341913539    12.000000000000
         C            0.061267588248    -1.399942567801     2.428228639761    12.000000000000
         H            2.087143083748    -1.643729046601    -2.845685221639     1.007825032230
         H           -0.765578054752    -0.387372465401    -4.023203619539     1.007825032230
         H           -0.765300477652    -3.292232760201    -2.347228805239     1.007825032230
         H            2.086794275548     3.288096135599     0.002986525861     1.007825032230
         H           -0.764611641852     3.681037859099     1.678902729261     1.007825032230
         H           -0.766677964052     3.679453733799    -1.674101535939     1.007825032230
         H            2.086731211848    -1.644459393101     2.849198956161     1.007825032230
         H           -0.765838195752    -3.291760469301     2.350751023361     1.007825032230
         H           -0.765230327052    -0.389059425701     4.027761162561     1.007825032230

  Charge       = 0
  Multiplicity = 2
  Basis Set: ANONYMOUS9EFEC1C4
    Blend: 6-31G_2DFP_
  Basis Set: (ANONYMOUS9EFEC1C4 AUX)
    Blend: DEF2-UNIVERSAL-JKFIT

    Orbital Energies [Eh]
    ---------------------

    Alpha Occupied:

       1A    -10.180341     2A    -10.167051     3A    -10.167020
       4A    -10.166973     5A     -0.797769     6A     -0.686375
       7A     -0.685998     8A     -0.530775     9A     -0.441131
      10A     -0.434883    11A     -0.434455    12A     -0.382717
      13A     -0.382484    14A     -0.363608    15A     -0.338517
      16A     -0.337478    17A     -0.168960

    Alpha Virtual:

      18A      0.076072    19A      0.134141    20A      0.134169
      21A      0.142452    22A      0.142802    23A      0.154879
      24A      0.178772    25A      0.178786    26A      0.203542
      27A      0.214804    28A      0.275696    29A      0.276273
      30A      0.399105    31A      0.399353    32A      0.403344
      33A      0.424096    34A      0.424099    35A      0.456592
      36A      0.495341    37A      0.495438    38A      0.512153
      39A      0.513984    40A      0.578620    41A      0.579009
      42A      0.591639    43A      0.591645    44A      0.602574
      45A      0.624740    46A      0.631787    47A      0.636102
      48A      0.636405    49A      0.663345    50A      0.663479
      51A      0.683804    52A      0.683904    53A      0.734994
      54A      0.825299    55A      0.825515    56A      0.853916
      57A      0.914909    58A      0.915135    59A      0.944125
      60A      0.944621    61A      0.961117    62A      0.961467
      63A      1.003454    64A      1.127842    65A      1.128335
      66A      1.142262    67A      1.162881    68A      1.163655
      69A      1.223326    70A      1.274023    71A      1.274958
      72A      1.279348    73A      1.324259    74A      1.324450
      75A      1.355985    76A      1.365790    77A      1.366330
      78A      1.392450    79A      1.403998    80A      1.404102
      81A      1.416790    82A      1.417425    83A      1.427919
      84A      1.491451    85A      1.499126    86A      1.542826
      87A      1.542834    88A      1.574430    89A      1.574474
      90A      1.669821    91A      1.739223    92A      1.739626
      93A      1.768320    94A      1.831131    95A      1.831650
      96A      1.971732    97A      2.018277    98A      2.018501
      99A      2.019624   100A      2.052114   101A      2.053178
     102A      2.738248   103A      2.738725   104A      2.790918
     105A      2.811431   106A      2.889387   107A      2.890508
     108A      2.894936   109A      2.929108   110A      2.929888
     111A      2.958992   112A      2.964228   113A      2.964535
     114A      3.034001   115A      3.070785   116A      3.071797
     117A      3.084347   118A      3.168687   119A      3.168828
     120A      3.180656   121A      3.285012   122A      3.285609
     123A      3.326776   124A      3.327542   125A      3.375605
     126A      3.489622   127A      3.490674   128A      3.513994
     129A      3.525361   130A      3.568154   131A      3.568620
     132A      3.575153   133A      3.666068   134A      3.666683
     135A      3.679661   136A      3.694096   137A      3.694143
     138A      3.776061   139A      3.777532   140A      3.789170
     141A      3.911762   142A      3.912686   143A      4.034436
     144A      4.111049   145A      4.111687   146A      4.147144
     147A      4.149101   148A      4.173258   149A      4.202164
     150A      4.202922   151A      4.203692   152A      4.210879
     153A      4.315399   154A      4.316525   155A      4.358978
     156A      4.424383   157A      4.424506   158A      4.443434
     159A      4.516711   160A      4.516979   161A      4.577913
     162A      4.578337   163A      4.617834   164A      4.709468
     165A      4.774048   166A      4.775168   167A      4.836895
     168A      4.962825   169A      5.002715   170A      5.003232
     171A      5.228043   172A      5.246791   173A      5.246855
     174A      5.354945   175A      5.356064   176A      5.479351

    Beta Occupied:

       1A    -10.167803     2A    -10.167776     3A    -10.167744
       4A    -10.166519     5A     -0.781094     6A     -0.684166
       7A     -0.683812     8A     -0.511747     9A     -0.431256
      10A     -0.430834    11A     -0.421819    12A     -0.376761
      13A     -0.376610    14A     -0.362591    15A     -0.333650
      16A     -0.332591

    Beta Virtual:

      17A     -0.025742    18A      0.077081    19A      0.135042
      20A      0.135047    21A      0.144333    22A      0.144663
      23A      0.163338    24A      0.182432    25A      0.182469
      26A      0.215027    27A      0.218931    28A      0.282079
      29A      0.282586    30A      0.400277    31A      0.400520
      32A      0.419791    33A      0.426897    34A      0.426919
      35A      0.468500    36A      0.497599    37A      0.497701
      38A      0.513895    39A      0.556321    40A      0.584148
      41A      0.584584    42A      0.597813    43A      0.597827
      44A      0.609997    45A      0.628108    46A      0.631949
      47A      0.639375    48A      0.639707    49A      0.666916
      50A      0.667037    51A      0.686438    52A      0.686540
      53A      0.757517    54A      0.830471    55A      0.830679
      56A      0.855270    57A      0.922853    58A      0.923133
      59A      0.945963    60A      0.953548    61A      0.966416
      62A      0.966781    63A      1.008694    64A      1.131905
      65A      1.132347    66A      1.155622    67A      1.167959
      68A      1.168721    69A      1.232299    70A      1.279674
      71A      1.280503    72A      1.285100    73A      1.329260
      74A      1.329427    75A      1.365397    76A      1.371083
      77A      1.371525    78A      1.393512    79A      1.407408
      80A      1.407620    81A      1.421847    82A      1.422467
      83A      1.428191    84A      1.492519    85A      1.509549
      86A      1.547228    87A      1.547248    88A      1.582319
      89A      1.582329    90A      1.674668    91A      1.744980
      92A      1.745391    93A      1.779100    94A      1.834972
      95A      1.835520    96A      1.972592    97A      2.024891
      98A      2.026010    99A      2.039675   100A      2.058844
     101A      2.059883   102A      2.746553   103A      2.747091
     104A      2.811801   105A      2.816095   106A      2.902162
     107A      2.903106   108A      2.924644   109A      2.931536
     110A      2.932425   111A      2.960057   112A      2.968773
     113A      2.969077   114A      3.041936   115A      3.080772
     116A      3.081630   117A      3.086163   118A      3.184363
     119A      3.184539   120A      3.188451   121A      3.289851
     122A      3.290366   123A      3.330579   124A      3.331349
     125A      3.383424   126A      3.492341   127A      3.493410
     128A      3.512371   129A      3.528398   130A      3.575005
     131A      3.581546   132A      3.581921   133A      3.670890
     134A      3.671351   135A      3.692955   136A      3.725606
     137A      3.725900   138A      3.780606   139A      3.782062
     140A      3.817683   141A      3.921583   142A      3.922504
     143A      4.045323   144A      4.117911   145A      4.118459
     146A      4.154377   147A      4.156283   148A      4.187319
     149A      4.208499   150A      4.209281   151A      4.210833
     152A      4.215360   153A      4.322775   154A      4.324028
     155A      4.362341   156A      4.432601   157A      4.432714
     158A      4.446323   159A      4.524455   160A      4.524815
     161A      4.588496   162A      4.588934   163A      4.625049
     164A      4.719815   165A      4.780965   166A      4.782158
     167A      4.839812   168A      4.967617   169A      5.006770
     170A      5.007258   171A      5.233759   172A      5.248580
     173A      5.248635   174A      5.361399   175A      5.362571
     176A      5.481672

    Final Occupation by Irrep:
              A
    DOCC [    16 ]
    SOCC [     1 ]

  @DF-UKS Final Energy:  -157.81306287969699

   => Energetics <=

    Nuclear Repulsion Energy =            125.3946890969655072
    One-Electron Energy =                -458.7490237191794904
    Two-Electron Energy =                 195.8484175128521372
    DFT Exchange-Correlation Energy =     -20.3071457703351612
    Empirical Dispersion Energy =           0.0000000000000000
    VV10 Nonlocal Energy =                  0.0000000000000000
    Total Energy =                       -157.8130628796969859

  UHF NO Occupations:
  HONO-2 :   15  A 1.9996009
  HONO-1 :   16  A 1.9989805
  HONO-0 :   17  A 1.0000000
  LUNO+0 :   18  A 0.0010195
  LUNO+1 :   19  A 0.0003991
  LUNO+2 :   20  A 0.0001986
  LUNO+3 :   21  A 0.0001965

Computation Completed

Properties will be evaluated at   0.000000,   0.000000,   0.000000 [a0]

Properties computed using the SCF density matrix

  Nuclear Dipole Moment: [e a0]
     X:     0.8272      Y:    -0.0000      Z:     0.0096

  Electronic Dipole Moment: [e a0]
     X:    -0.7493      Y:     0.0000      Z:    -0.0108

  Dipole Moment: [e a0]
     X:     0.0779      Y:     0.0000      Z:    -0.0012     Total:     0.0779

  Dipole Moment: [D]
     X:     0.1980      Y:     0.0000      Z:    -0.0031     Total:     0.1981

*** tstop() called on n071 at Fri Nov  5 12:44:05 2021
Module time:
	user time   =     576.09 seconds =       9.60 minutes
	system time =      13.24 seconds =       0.22 minutes
	total time  =        148 seconds =       2.47 minutes
Total time:
	user time   =     576.09 seconds =       9.60 minutes
	system time =      13.24 seconds =       0.22 minutes
	total time  =        148 seconds =       2.47 minutes
Grab this energy -157.813062879697
    Psi4 stopped on: Friday, 05 November 2021 12:44PM
    Psi4 wall time for execution: 0:02:28.40

*** Psi4 exiting successfully. Buy a developer a beer!
