                               Psi4 1.4a2.dev629

  ==> Input File <==

--------------------------------------------------------------------------
import os
memory 14 GB

molecule {
 C   -0.3233175779    0.0019959409   -0.0000000000
 C    0.0613104188   -1.4005526803   -2.4278175733
 C    0.0609594071    2.8015722744   -0.0000000000
 C    0.0613104188   -1.4005526803    2.4278175733
 H    2.0836690789   -1.6423589488   -2.8515074137
 H   -0.7653193670   -0.3931807265   -4.0278766802
 H   -0.7631052127   -3.2879172215   -2.3453701768
 H    2.0838679367    3.2838798820   -0.0000000000
 H   -0.7636137393    3.6802733717    1.6729464846
 H   -0.7636137393    3.6802733717   -1.6729464846
 H    2.0836690789   -1.6423589488    2.8515074137
 H   -0.7631052127   -3.2879172215    2.3453701768
 H   -0.7653193670   -0.3931807265    4.0278766802
units bohr
0 2
}

basis {

assign 6-31g_2dfp_

[ 6-31g_2dfp_ ]

spherical

!----------------------------------------------------------------------
! Basis Set Exchange
! Version v0.8.13
! https://www.basissetexchange.org
!----------------------------------------------------------------------
!   Basis set: 6-31G(2df,p)
! Description: 6-31G(2df,p)
!        Role: orbital
!     Version: 0  (Data from the original Basis Set Exchange)
!----------------------------------------------------------------------

****
H     0
S    3   1.00
     18.7311370              0.03349460
      2.8253937              0.23472695
      0.6401217              0.81375733
S    1   1.00
      0.1612778              1.00000000
P    1   1.00
      1.5000000              1.0000000
P    1   1.00
      0.3750000              1.0000000
****
B     0
S    6   1.00
   2068.8823000              0.0018663
    310.6495700              0.0142515
     70.6830330              0.0695516
     19.8610800              0.2325729
      6.2993048              0.4670787
      2.1270270              0.3634314
SP   3   1.00
      4.7279710             -0.1303938              0.0745976
      1.1903377             -0.1307889              0.3078467
      0.3594117              1.1309444              0.7434568
SP   1   1.00
      0.1267512              1.0000000              1.0000000
D    1   1.00
      0.8020000              1.0000000
D    1   1.00
      0.2005000              1.0000000
F    1   1.00
      0.5000000              1.0000000
****
C     0
S    6   1.00
   3047.5249000              0.0018347
    457.3695100              0.0140373
    103.9486900              0.0688426
     29.2101550              0.2321844
      9.2866630              0.4679413
      3.1639270              0.3623120
SP   3   1.00
      7.8682724             -0.1193324              0.0689991
      1.8812885             -0.1608542              0.3164240
      0.5442493              1.1434564              0.7443083
SP   1   1.00
      0.1687144              1.0000000              1.0000000
D    1   1.00
      1.2520000              1.0000000
D    1   1.00
      0.3130000              1.0000000
F    1   1.00
      0.8000000              1.0000000
****
N     0
S    6   1.00
   4173.5110000              0.0018348
    627.4579000              0.0139950
    142.9021000              0.0685870
     40.2343300              0.2322410
     12.8202100              0.4690700
      4.3904370              0.3604550
SP   3   1.00
     11.6263580             -0.1149610              0.0675800
      2.7162800             -0.1691180              0.3239070
      0.7722180              1.1458520              0.7408950
SP   1   1.00
      0.2120313              1.0000000              1.0000000
D    1   1.00
      1.8260000              1.0000000
D    1   1.00
      0.4565000              1.0000000
F    1   1.00
      1.0000000              1.0000000
****
O     0
S    6   1.00
   5484.6717000              0.0018311
    825.2349500              0.0139501
    188.0469600              0.0684451
     52.9645000              0.2327143
     16.8975700              0.4701930
      5.7996353              0.3585209
SP   3   1.00
     15.5396160             -0.1107775              0.0708743
      3.5999336             -0.1480263              0.3397528
      1.0137618              1.1307670              0.7271586
SP   1   1.00
      0.2700058              1.0000000              1.0000000
D    1   1.00
      2.5840000              1.0000000
D    1   1.00
      0.6460000              1.0000000
F    1   1.00
      1.4000000              1.0000000
****
F     0
S    6   1.00
   7001.7130900              0.0018196169
   1051.3660900              0.0139160796
    239.2856900              0.0684053245
     67.3974453              0.233185760
     21.5199573              0.471267439
      7.40310130             0.356618546
SP   3   1.00
     20.8479528             -0.108506975            0.0716287243
      4.80830834            -0.146451658            0.3459121030
      1.34406986             1.128688580            0.7224699570
SP   1   1.00
      0.358151393            1.0000000              1.0000000
D    1   1.00
      3.5000000              1.0000000
D    1   1.00
      0.8750000              1.0000000
F    1   1.00
      1.8500000              1.0000000
****
Al     0
S    6   1.00
  13983.1000000              0.00194267
   2098.7500000              0.0148599
    477.7050000              0.0728494
    134.3600000              0.2468300
     42.8709000              0.4872580
     14.5189000              0.3234960
SP   6   1.00
    239.6680000             -0.00292619             0.00460285
     57.4419000             -0.0374080              0.0331990
     18.2859000             -0.1144870              0.1362820
      6.5991400              0.1156350              0.3304760
      2.4904900              0.6125950              0.4491460
      0.9445400              0.3937990              0.2657040
SP   3   1.00
      1.2779000             -0.2276060             -0.0175130
      0.3975900              0.00144583             0.2445330
      0.1600950              1.0927900              0.8049340
SP   1   1.00
      0.0556577              1.0000000              1.0000000
D    1   1.00
      0.6500000              1.0000000
D    1   1.00
      0.1625000              1.0000000
F    1   1.00
      0.2500000              1.0000000
****
Si     0
S    6   1.00
  16115.9000000              0.00195948
   2425.5800000              0.01492880
    553.8670000              0.07284780
    156.3400000              0.24613000
     50.0683000              0.48591400
     17.0178000              0.32500200
SP   6   1.00
    292.7180000             -0.00278094             0.00443826
     69.8731000             -0.03571460             0.03266790
     22.3363000             -0.11498500             0.13472100
      8.1503900              0.09356340             0.32867800
      3.1345800              0.60301700             0.44964000
      1.2254300              0.41895900             0.26137200
SP   3   1.00
      1.7273800             -0.24463000            -0.01779510
      0.5729220              0.00431572             0.25353900
      0.2221920              1.09818000             0.80066900
SP   1   1.00
      0.0778369              1.00000000             1.00000000
D    1   1.00
      0.9000000              1.0000000
D    1   1.00
      0.2250000              1.0000000
F    1   1.00
      0.3200000              1.0000000
****
P     0
S    6   1.00
  19413.3000000              0.0018516
   2909.4200000              0.0142062
    661.3640000              0.0699995
    185.7590000              0.2400790
     59.1943000              0.4847620
     20.0310000              0.3352000
SP   6   1.00
    339.4780000             -0.00278217             0.00456462
     81.0101000             -0.0360499              0.03369360
     25.8780000             -0.1166310              0.13975500
      9.4522100              0.0968328              0.33936200
      3.6656600              0.6144180              0.45092100
      1.4674600              0.4037980              0.23858600
SP   3   1.00
      2.1562300             -0.2529230             -0.01776530
      0.7489970              0.0328517              0.27405800
      0.2831450              1.0812500              0.78542100
SP   1   1.00
      0.0998317              1.0000000              1.00000000
D    1   1.00
      1.1000000              1.0000000
D    1   1.00
      0.2750000              1.0000000
F    1   1.00
      0.4500000              1.0000000
****
S     0
S    6   1.00
  21917.1000000              0.0018690
   3301.4900000              0.0142300
    754.1460000              0.0696960
    212.7110000              0.2384870
     67.9896000              0.4833070
     23.0515000              0.3380740
SP   6   1.00
    423.7350000             -0.0023767              0.0040610
    100.7100000             -0.0316930              0.0306810
     32.1599000             -0.1133170              0.1304520
     11.8079000              0.0560900              0.3272050
      4.6311000              0.5922550              0.4528510
      1.8702500              0.4550060              0.2560420
SP   3   1.00
      2.6158400             -0.2503740             -0.0145110
      0.9221670              0.0669570              0.3102630
      0.3412870              1.0545100              0.7544830
SP   1   1.00
      0.1171670              1.0000000              1.0000000
D    1   1.00
      1.3000000              1.0000000
D    1   1.00
      0.3250000              1.0000000
F    1   1.00
      0.5500000              1.0000000
****
Cl     0
S    6   1.00
  25180.1000000              0.0018330
   3780.3500000              0.0140340
    860.4740000              0.0690970
    242.1450000              0.2374520
     77.3349000              0.4830340
     26.2470000              0.3398560
SP   6   1.00
    491.7650000             -0.0022974              0.0039894
    116.9840000             -0.0307140              0.0303180
     37.4153000             -0.1125280              0.1298800
     13.7834000              0.0450160              0.3279510
      5.4521500              0.5893530              0.4535270
      2.2258800              0.4652060              0.2521540
SP   3   1.00
      3.1864900             -0.2518300             -0.0142990
      1.1442700              0.0615890              0.3235720
      0.4203770              1.0601800              0.7435070
SP   1   1.00
      0.1426570              1.0000000              1.0000000
D    1   1.00
      1.5000000              1.0000000
D    1   1.00
      0.3750000              1.0000000
F    1   1.00
      0.7000000              1.0000000
****
}

set {
reference uhf
freeze_core true
e_convergence 10
d_convergence 10
dft_spherical_points 1202
dft_radial_points 99
}

e = energy('b3lyp')

print_out('Grab this energy {0}'.format(e))
--------------------------------------------------------------------------

    Molecular point group: cs

    Geometry (in Bohr), charge = 0, multiplicity = 2:

       Center              X                  Y                   Z               Mass
    ------------   -----------------  -----------------  -----------------  -----------------
         C           -0.323375870787     0.001522006706     0.000000000000    12.000000000000
         C            0.061252125913    -1.401026614494    -2.427817573300    12.000000000000
         C            0.060901114213     2.801098340206     0.000000000000    12.000000000000
         C            0.061252125913    -1.401026614494     2.427817573300    12.000000000000
         H            2.083610786013    -1.642832882994    -2.851507413700     1.007825032230
         H           -0.765377659887    -0.393654660694    -4.027876680200     1.007825032230
         H           -0.763163505587    -3.288391155694    -2.345370176800     1.007825032230
         H            2.083809643813     3.283405947806     0.000000000000     1.007825032230
         H           -0.763672032187     3.679799437506     1.672946484600     1.007825032230
         H           -0.763672032187     3.679799437506    -1.672946484600     1.007825032230
         H            2.083610786013    -1.642832882994     2.851507413700     1.007825032230
         H           -0.763163505587    -3.288391155694     2.345370176800     1.007825032230
         H           -0.765377659887    -0.393654660694     4.027876680200     1.007825032230

  Charge       = 0
  Multiplicity = 2
  Basis Set: ANONYMOUS84462E7E
    Blend: 6-31G_2DFP_
  Basis Set: (ANONYMOUS84462E7E AUX)
    Blend: DEF2-UNIVERSAL-JKFIT

    Orbital Energies [Eh]
    ---------------------

    Alpha Occupied:

       1Ap   -10.180274     1App  -10.166585     2Ap   -10.166557
       3Ap   -10.166295     4Ap    -0.797728     5Ap    -0.686669
       2App   -0.686425     6Ap    -0.531087     7Ap    -0.441229
       8Ap    -0.434876     3App   -0.434741     9Ap    -0.382893
       4App   -0.382822     5App   -0.363927    10Ap    -0.338070
       6App   -0.337937    11Ap    -0.168899

    Alpha Virtual:

      12Ap     0.076404     7App    0.134489    13Ap     0.134553
      14Ap     0.142973     8App    0.143100    15Ap     0.155178
      16Ap     0.179246     9App    0.179324    17Ap     0.203438
      10App    0.215259    11App    0.275739    18Ap     0.276278
      12App    0.399141    19Ap     0.399199    20Ap     0.403558
      21Ap     0.424318    13App    0.424426    22Ap     0.456725
      23Ap     0.495555    14App    0.495673    15App    0.512431
      24Ap     0.514112    16App    0.578867    25Ap     0.579438
      17App    0.591940    26Ap     0.592526    27Ap     0.603229
      28Ap     0.625739    18App    0.632479    19App    0.636775
      29Ap     0.636855    30Ap     0.663716    20App    0.663781
      21App    0.684378    31Ap     0.684434    32Ap     0.735304
      33Ap     0.826010    22App    0.826438    23App    0.854431
      24App    0.915598    34Ap     0.915868    25App    0.944750
      35Ap     0.945403    36Ap     0.961269    26App    0.962634
      37Ap     1.003562    38Ap     1.128295    27App    1.128750
      39Ap     1.143092    40Ap     1.163426    28App    1.163640
      41Ap     1.223768    29App    1.274871    42Ap     1.275180
      43Ap     1.278893    44Ap     1.325061    30App    1.325068
      45Ap     1.356853    31App    1.366382    46Ap     1.366721
      32App    1.393034    33App    1.404767    47Ap     1.405394
      34App    1.417638    48Ap     1.418442    35App    1.428661
      36App    1.492390    49Ap     1.500430    50Ap     1.543039
      37App    1.543595    51Ap     1.574633    38App    1.574649
      52Ap     1.671990    39App    1.740482    53Ap     1.741223
      54Ap     1.769844    40App    1.833398    55Ap     1.834391
      41App    1.973356    56Ap     2.019132    42App    2.020298
      57Ap     2.020447    43App    2.052918    58Ap     2.054524
      59Ap     2.739183    44App    2.739742    60Ap     2.791142
      45App    2.811930    46App    2.890263    61Ap     2.890720
      62Ap     2.895074    47App    2.929869    63Ap     2.929907
      48App    2.959622    64Ap     2.964880    49App    2.965196
      65Ap     3.034923    66Ap     3.072112    50App    3.072364
      51App    3.085281    52App    3.167933    67Ap     3.168327
      68Ap     3.180883    53App    3.285235    69Ap     3.285324
      54App    3.326329    70Ap     3.326982    71Ap     3.374917
      55App    3.488988    72Ap     3.489317    56App    3.513736
      73Ap     3.524696    57App    3.568136    74Ap     3.568913
      58App    3.573601    75Ap     3.666845    59App    3.667279
      76Ap     3.681437    60App    3.694510    77Ap     3.695495
      78Ap     3.776079    61App    3.778615    79Ap     3.789713
      62App    3.912889    80Ap     3.913452    81Ap     4.036784
      63App    4.112549    82Ap     4.115108    64App    4.150575
      83Ap     4.152281    84Ap     4.176272    85Ap     4.204050
      65App    4.204468    86Ap     4.204597    66App    4.214564
      67App    4.317403    87Ap     4.318990    68App    4.361446
      88Ap     4.426778    69App    4.427290    70App    4.445461
      71App    4.518841    89Ap     4.519672    72App    4.579402
      90Ap     4.580072    91Ap     4.618198    92Ap     4.711490
      93Ap     4.775317    73App    4.777414    74App    4.839271
      94Ap     4.963673    75App    5.003693    95Ap     5.004433
      96Ap     5.233328    97Ap     5.251653    76App    5.252564
      77App    5.359389    98Ap     5.360810    78App    5.482600

    Beta Occupied:

       1App  -10.167335     1Ap   -10.167323     2Ap   -10.167059
       3Ap   -10.166430     4Ap    -0.781081     5Ap    -0.684462
       2App   -0.684234     6Ap    -0.512000     7Ap    -0.431254
       3App   -0.431129     8Ap    -0.421954     9Ap    -0.376982
       4App   -0.376921     5App   -0.362914    10Ap    -0.333179
       6App   -0.333055

    Beta Virtual:

      11Ap    -0.025510    12Ap     0.077409     7App    0.135395
      13Ap     0.135443    14Ap     0.144815     8App    0.144945
      15Ap     0.163575    16Ap     0.182925     9App    0.182968
      10App    0.215486    17Ap     0.218839    11App    0.282107
      18Ap     0.282625    12App    0.400305    19Ap     0.400370
      20Ap     0.420011    21Ap     0.427132    13App    0.427240
      22Ap     0.468614    23Ap     0.497818    14App    0.497930
      15App    0.514160    24Ap     0.556515    16App    0.584432
      25Ap     0.585007    17App    0.598154    26Ap     0.598713
      27Ap     0.610638    28Ap     0.629105    18App    0.632629
      19App    0.640020    29Ap     0.640138    30Ap     0.667283
      20App    0.667351    21App    0.686957    31Ap     0.687055
      32Ap     0.757852    33Ap     0.831155    22App    0.831626
      23App    0.855760    24App    0.923587    34Ap     0.923791
      25App    0.946587    35Ap     0.954350    36Ap     0.966626
      26App    0.967878    37Ap     1.008815    38Ap     1.132236
      27App    1.132839    39Ap     1.156462    40Ap     1.168610
      28App    1.168658    41Ap     1.232724    29App    1.280458
      42Ap     1.280763    43Ap     1.284635    30App    1.330067
      44Ap     1.330093    45Ap     1.366294    31App    1.371652
      46Ap     1.371933    32App    1.394088    33App    1.408202
      47Ap     1.408881    34App    1.422694    48Ap     1.423487
      35App    1.428919    36App    1.493444    49Ap     1.510874
      50Ap     1.547316    37App    1.547874    51Ap     1.582614
      38App    1.582626    52Ap     1.676912    39App    1.746241
      53Ap     1.747000    54Ap     1.780566    40App    1.837225
      55Ap     1.838214    41App    1.974211    56Ap     2.026555
      42App    2.026697    57Ap     2.040751    43App    2.059602
      58Ap     2.061264    59Ap     2.747549    44App    2.748074
      45App    2.812346    60Ap     2.816301    46App    2.903053
      61Ap     2.903436    62Ap     2.924779    47App    2.932313
      63Ap     2.932322    48App    2.960689    64Ap     2.969484
      49App    2.969763    65Ap     3.042778    66Ap     3.082090
      50App    3.082327    51App    3.087102    52App    3.183604
      67Ap     3.184069    68Ap     3.188612    53App    3.289955
      69Ap     3.290093    54App    3.330158    70Ap     3.330776
      71Ap     3.382760    55App    3.491779    72Ap     3.492076
      56App    3.512109    73Ap     3.527764    57App    3.573258
      58App    3.581651    74Ap     3.582299    59App    3.672064
      75Ap     3.672169    76Ap     3.694792    60App    3.726310
      77Ap     3.726589    78Ap     3.780635    61App    3.783079
      79Ap     3.818287    62App    3.922709    80Ap     3.923237
      81Ap     4.047795    63App    4.119551    82Ap     4.121891
      64App    4.157726    83Ap     4.159488    84Ap     4.190179
      65App    4.210382    85Ap     4.210517    86Ap     4.211977
      66App    4.219011    67App    4.324731    87Ap     4.326372
      68App    4.364804    88Ap     4.435014    69App    4.435428
      70App    4.448327    71App    4.526630    89Ap     4.527441
      72App    4.589973    90Ap     4.590634    91Ap     4.625387
      92Ap     4.721829    93Ap     4.782310    73App    4.784320
      74App    4.842196    94Ap     4.968441    75App    5.007704
      95Ap     5.008462    96Ap     5.239019    97Ap     5.253424
      76App    5.254350    77App    5.365821    98Ap     5.367284
      78App    5.484910

    Final Occupation by Irrep:
             Ap   App
    DOCC [    10,    6 ]
    SOCC [     1,    0 ]

  @DF-UKS Final Energy:  -157.81301836576614

   => Energetics <=

    Nuclear Repulsion Energy =            125.4320581169612581
    One-Electron Energy =                -458.8198382680060377
    Two-Electron Energy =                 195.8859349811731931
    DFT Exchange-Correlation Energy =     -20.3111731958945185
    Empirical Dispersion Energy =           0.0000000000000000
    VV10 Nonlocal Energy =                  0.0000000000000000
    Total Energy =                       -157.8130183657661405

  UHF NO Occupations:
  HONO-2 :    9 Ap 1.9996034
  HONO-1 :   10 Ap 1.9989797
  HONO-0 :   11 Ap 1.0000000
  LUNO+0 :   12 Ap 0.0010203
  LUNO+1 :   13 Ap 0.0003966
  LUNO+2 :    7App 0.0001982
  LUNO+3 :   14 Ap 0.0001976

Computation Completed

Properties will be evaluated at   0.000000,   0.000000,   0.000000 [a0]

Properties computed using the SCF density matrix

  Nuclear Dipole Moment: [e a0]
     X:     0.8268      Y:    -0.0033      Z:     0.0000

  Electronic Dipole Moment: [e a0]
     X:    -0.7482      Y:     0.0034      Z:     0.0000

  Dipole Moment: [e a0]
     X:     0.0785      Y:     0.0000      Z:     0.0000     Total:     0.0785

  Dipole Moment: [D]
     X:     0.1996      Y:     0.0001      Z:     0.0000     Total:     0.1996

*** tstop() called on n054 at Fri Nov  5 14:57:37 2021
Module time:
	user time   =     542.08 seconds =       9.03 minutes
	system time =      12.08 seconds =       0.20 minutes
	total time  =        140 seconds =       2.33 minutes
Total time:
	user time   =     542.08 seconds =       9.03 minutes
	system time =      12.08 seconds =       0.20 minutes
	total time  =        140 seconds =       2.33 minutes
Grab this energy -157.81301836576614
    Psi4 stopped on: Friday, 05 November 2021 02:57PM
    Psi4 wall time for execution: 0:02:19.37

*** Psi4 exiting successfully. Buy a developer a beer!
