                               Psi4 1.4a2.dev629

  ==> Input File <==

--------------------------------------------------------------------------
import os
memory 14 GB

molecule {
 C   -0.3243632314   -0.0053455784    0.0000000000
 C    0.0600052361   -1.4018004029   -2.4260557682
 C    0.0601082720    2.8018575909    0.0000000000
 C    0.0600052361   -1.4018004029    2.4260557682
 H    2.0903666903   -1.6434053790   -2.8479736549
 H   -0.7656112511   -0.3895757456   -4.0247816628
 H   -0.7672187720   -3.2888797450   -2.3491563536
 H    2.0898734079    3.2891256581   -0.0000000000
 H   -0.7666550658    3.6808302805    1.6737598041
 H   -0.7666550658    3.6808302805   -1.6737598041
 H    2.0903666903   -1.6434053790    2.8479736549
 H   -0.7672187720   -3.2888797450    2.3491563536
 H   -0.7656112511   -0.3895757456    4.0247816628
units bohr
0 2
}

basis {

assign 6-31g_2dfp_

[ 6-31g_2dfp_ ]

spherical

!----------------------------------------------------------------------
! Basis Set Exchange
! Version v0.8.13
! https://www.basissetexchange.org
!----------------------------------------------------------------------
!   Basis set: 6-31G(2df,p)
! Description: 6-31G(2df,p)
!        Role: orbital
!     Version: 0  (Data from the original Basis Set Exchange)
!----------------------------------------------------------------------

****
H     0
S    3   1.00
     18.7311370              0.03349460
      2.8253937              0.23472695
      0.6401217              0.81375733
S    1   1.00
      0.1612778              1.00000000
P    1   1.00
      1.5000000              1.0000000
P    1   1.00
      0.3750000              1.0000000
****
B     0
S    6   1.00
   2068.8823000              0.0018663
    310.6495700              0.0142515
     70.6830330              0.0695516
     19.8610800              0.2325729
      6.2993048              0.4670787
      2.1270270              0.3634314
SP   3   1.00
      4.7279710             -0.1303938              0.0745976
      1.1903377             -0.1307889              0.3078467
      0.3594117              1.1309444              0.7434568
SP   1   1.00
      0.1267512              1.0000000              1.0000000
D    1   1.00
      0.8020000              1.0000000
D    1   1.00
      0.2005000              1.0000000
F    1   1.00
      0.5000000              1.0000000
****
C     0
S    6   1.00
   3047.5249000              0.0018347
    457.3695100              0.0140373
    103.9486900              0.0688426
     29.2101550              0.2321844
      9.2866630              0.4679413
      3.1639270              0.3623120
SP   3   1.00
      7.8682724             -0.1193324              0.0689991
      1.8812885             -0.1608542              0.3164240
      0.5442493              1.1434564              0.7443083
SP   1   1.00
      0.1687144              1.0000000              1.0000000
D    1   1.00
      1.2520000              1.0000000
D    1   1.00
      0.3130000              1.0000000
F    1   1.00
      0.8000000              1.0000000
****
N     0
S    6   1.00
   4173.5110000              0.0018348
    627.4579000              0.0139950
    142.9021000              0.0685870
     40.2343300              0.2322410
     12.8202100              0.4690700
      4.3904370              0.3604550
SP   3   1.00
     11.6263580             -0.1149610              0.0675800
      2.7162800             -0.1691180              0.3239070
      0.7722180              1.1458520              0.7408950
SP   1   1.00
      0.2120313              1.0000000              1.0000000
D    1   1.00
      1.8260000              1.0000000
D    1   1.00
      0.4565000              1.0000000
F    1   1.00
      1.0000000              1.0000000
****
O     0
S    6   1.00
   5484.6717000              0.0018311
    825.2349500              0.0139501
    188.0469600              0.0684451
     52.9645000              0.2327143
     16.8975700              0.4701930
      5.7996353              0.3585209
SP   3   1.00
     15.5396160             -0.1107775              0.0708743
      3.5999336             -0.1480263              0.3397528
      1.0137618              1.1307670              0.7271586
SP   1   1.00
      0.2700058              1.0000000              1.0000000
D    1   1.00
      2.5840000              1.0000000
D    1   1.00
      0.6460000              1.0000000
F    1   1.00
      1.4000000              1.0000000
****
F     0
S    6   1.00
   7001.7130900              0.0018196169
   1051.3660900              0.0139160796
    239.2856900              0.0684053245
     67.3974453              0.233185760
     21.5199573              0.471267439
      7.40310130             0.356618546
SP   3   1.00
     20.8479528             -0.108506975            0.0716287243
      4.80830834            -0.146451658            0.3459121030
      1.34406986             1.128688580            0.7224699570
SP   1   1.00
      0.358151393            1.0000000              1.0000000
D    1   1.00
      3.5000000              1.0000000
D    1   1.00
      0.8750000              1.0000000
F    1   1.00
      1.8500000              1.0000000
****
Al     0
S    6   1.00
  13983.1000000              0.00194267
   2098.7500000              0.0148599
    477.7050000              0.0728494
    134.3600000              0.2468300
     42.8709000              0.4872580
     14.5189000              0.3234960
SP   6   1.00
    239.6680000             -0.00292619             0.00460285
     57.4419000             -0.0374080              0.0331990
     18.2859000             -0.1144870              0.1362820
      6.5991400              0.1156350              0.3304760
      2.4904900              0.6125950              0.4491460
      0.9445400              0.3937990              0.2657040
SP   3   1.00
      1.2779000             -0.2276060             -0.0175130
      0.3975900              0.00144583             0.2445330
      0.1600950              1.0927900              0.8049340
SP   1   1.00
      0.0556577              1.0000000              1.0000000
D    1   1.00
      0.6500000              1.0000000
D    1   1.00
      0.1625000              1.0000000
F    1   1.00
      0.2500000              1.0000000
****
Si     0
S    6   1.00
  16115.9000000              0.00195948
   2425.5800000              0.01492880
    553.8670000              0.07284780
    156.3400000              0.24613000
     50.0683000              0.48591400
     17.0178000              0.32500200
SP   6   1.00
    292.7180000             -0.00278094             0.00443826
     69.8731000             -0.03571460             0.03266790
     22.3363000             -0.11498500             0.13472100
      8.1503900              0.09356340             0.32867800
      3.1345800              0.60301700             0.44964000
      1.2254300              0.41895900             0.26137200
SP   3   1.00
      1.7273800             -0.24463000            -0.01779510
      0.5729220              0.00431572             0.25353900
      0.2221920              1.09818000             0.80066900
SP   1   1.00
      0.0778369              1.00000000             1.00000000
D    1   1.00
      0.9000000              1.0000000
D    1   1.00
      0.2250000              1.0000000
F    1   1.00
      0.3200000              1.0000000
****
P     0
S    6   1.00
  19413.3000000              0.0018516
   2909.4200000              0.0142062
    661.3640000              0.0699995
    185.7590000              0.2400790
     59.1943000              0.4847620
     20.0310000              0.3352000
SP   6   1.00
    339.4780000             -0.00278217             0.00456462
     81.0101000             -0.0360499              0.03369360
     25.8780000             -0.1166310              0.13975500
      9.4522100              0.0968328              0.33936200
      3.6656600              0.6144180              0.45092100
      1.4674600              0.4037980              0.23858600
SP   3   1.00
      2.1562300             -0.2529230             -0.01776530
      0.7489970              0.0328517              0.27405800
      0.2831450              1.0812500              0.78542100
SP   1   1.00
      0.0998317              1.0000000              1.00000000
D    1   1.00
      1.1000000              1.0000000
D    1   1.00
      0.2750000              1.0000000
F    1   1.00
      0.4500000              1.0000000
****
S     0
S    6   1.00
  21917.1000000              0.0018690
   3301.4900000              0.0142300
    754.1460000              0.0696960
    212.7110000              0.2384870
     67.9896000              0.4833070
     23.0515000              0.3380740
SP   6   1.00
    423.7350000             -0.0023767              0.0040610
    100.7100000             -0.0316930              0.0306810
     32.1599000             -0.1133170              0.1304520
     11.8079000              0.0560900              0.3272050
      4.6311000              0.5922550              0.4528510
      1.8702500              0.4550060              0.2560420
SP   3   1.00
      2.6158400             -0.2503740             -0.0145110
      0.9221670              0.0669570              0.3102630
      0.3412870              1.0545100              0.7544830
SP   1   1.00
      0.1171670              1.0000000              1.0000000
D    1   1.00
      1.3000000              1.0000000
D    1   1.00
      0.3250000              1.0000000
F    1   1.00
      0.5500000              1.0000000
****
Cl     0
S    6   1.00
  25180.1000000              0.0018330
   3780.3500000              0.0140340
    860.4740000              0.0690970
    242.1450000              0.2374520
     77.3349000              0.4830340
     26.2470000              0.3398560
SP   6   1.00
    491.7650000             -0.0022974              0.0039894
    116.9840000             -0.0307140              0.0303180
     37.4153000             -0.1125280              0.1298800
     13.7834000              0.0450160              0.3279510
      5.4521500              0.5893530              0.4535270
      2.2258800              0.4652060              0.2521540
SP   3   1.00
      3.1864900             -0.2518300             -0.0142990
      1.1442700              0.0615890              0.3235720
      0.4203770              1.0601800              0.7435070
SP   1   1.00
      0.1426570              1.0000000              1.0000000
D    1   1.00
      1.5000000              1.0000000
D    1   1.00
      0.3750000              1.0000000
F    1   1.00
      0.7000000              1.0000000
****
}

set {
reference uhf
freeze_core true
e_convergence 10
d_convergence 10
dft_spherical_points 1202
dft_radial_points 99
}

e = energy('b3lyp')

print_out('Grab this energy {0}'.format(e))
--------------------------------------------------------------------------

    Molecular point group: cs

    Geometry (in Bohr), charge = 0, multiplicity = 2:

       Center              X                  Y                   Z               Mass
    ------------   -----------------  -----------------  -----------------  -----------------
         C           -0.323553413966    -0.003979796394     0.000000000000    12.000000000000
         C            0.060815053534    -1.400434620894    -2.426055768200    12.000000000000
         C            0.060918089434     2.803223372906     0.000000000000    12.000000000000
         C            0.060815053534    -1.400434620894     2.426055768200    12.000000000000
         H            2.091176507734    -1.642039596994    -2.847973654900     1.007825032230
         H           -0.764801433666    -0.388209963594    -4.024781662800     1.007825032230
         H           -0.766408954566    -3.287513962994    -2.349156353600     1.007825032230
         H            2.090683225334     3.290491440106     0.000000000000     1.007825032230
         H           -0.765845248366     3.682196062506     1.673759804100     1.007825032230
         H           -0.765845248366     3.682196062506    -1.673759804100     1.007825032230
         H            2.091176507734    -1.642039596994     2.847973654900     1.007825032230
         H           -0.766408954566    -3.287513962994     2.349156353600     1.007825032230
         H           -0.764801433666    -0.388209963594     4.024781662800     1.007825032230

  Charge       = 0
  Multiplicity = 2
  Basis Set: ANONYMOUSB1986905
    Blend: 6-31G_2DFP_
  Basis Set: (ANONYMOUSB1986905 AUX)
    Blend: DEF2-UNIVERSAL-JKFIT

    Orbital Energies [Eh]
    ---------------------

    Alpha Occupied:

       1Ap   -10.180400     2Ap   -10.167058     1App  -10.167016
       3Ap   -10.166980     4Ap    -0.797732     2App   -0.686371
       5Ap    -0.685993     6Ap    -0.530769     7Ap    -0.441032
       8Ap    -0.434924     3App   -0.434504     4App   -0.382579
       9Ap    -0.382347     5App   -0.363787     6App   -0.338573
      10Ap    -0.337531    11Ap    -0.168998

    Alpha Virtual:

      12Ap     0.076157     7App    0.134131    13Ap     0.134163
      14Ap     0.142525     8App    0.142878    15Ap     0.154712
      16Ap     0.178596     9App    0.178613    17Ap     0.203501
      10App    0.215076    18Ap     0.275673    11App    0.276247
      19Ap     0.398982    12App    0.399236    20Ap     0.403256
      13App    0.424285    21Ap     0.424286    22Ap     0.456518
      23Ap     0.495520    14App    0.495618    15App    0.512043
      24Ap     0.513824    25Ap     0.578453    16App    0.578829
      26Ap     0.591372    17App    0.591384    27Ap     0.601821
      28Ap     0.625263    18App    0.632162    29Ap     0.636484
      19App    0.636769    20App    0.662860    30Ap     0.662993
      21App    0.684054    31Ap     0.684152    32Ap     0.735056
      33Ap     0.825266    22App    0.825480    23App    0.853637
      24App    0.914688    34Ap     0.914910    25App    0.944414
      35Ap     0.944759    36Ap     0.961029    26App    0.961363
      37Ap     1.003266    38Ap     1.128062    27App    1.128614
      39Ap     1.141547    40Ap     1.163141    28App    1.163927
      41Ap     1.223742    29App    1.273788    42Ap     1.274717
      43Ap     1.279188    44Ap     1.324043    30App    1.324237
      45Ap     1.356513    46Ap     1.365707    31App    1.366243
      32App    1.392386    47Ap     1.402990    33App    1.403047
      34App    1.417790    48Ap     1.418404    35App    1.427710
      36App    1.491479    49Ap     1.498153    50Ap     1.542459
      37App    1.542475    38App    1.574785    51Ap     1.574837
      52Ap     1.671085    53Ap     1.738376    39App    1.738784
      54Ap     1.766455    55Ap     1.832532    40App    1.833047
      41App    1.972747    56Ap     2.018216    42App    2.018478
      57Ap     2.019571    58Ap     2.050915    43App    2.051913
      59Ap     2.738567    44App    2.739044    60Ap     2.790535
      45App    2.811879    61Ap     2.889014    46App    2.890141
      62Ap     2.894594    63Ap     2.929313    47App    2.930095
      48App    2.958860    49App    2.963824    64Ap     2.964100
      65Ap     3.033312    66Ap     3.070766    50App    3.071755
      51App    3.085757    52App    3.168602    67Ap     3.168659
      68Ap     3.180610    69Ap     3.284915    53App    3.285521
      54App    3.327412    70Ap     3.328162    71Ap     3.375771
      72Ap     3.489431    55App    3.490415    56App    3.512813
      73Ap     3.526540    57App    3.567742    74Ap     3.568225
      58App    3.574323    59App    3.665711    75Ap     3.666301
      76Ap     3.680265    60App    3.694291    77Ap     3.694332
      78Ap     3.776443    61App    3.777978    79Ap     3.788385
      80Ap     3.912329    62App    3.913249    81Ap     4.034857
      82Ap     4.110999    63App    4.111630    83Ap     4.146521
      64App    4.148487    84Ap     4.171483    85Ap     4.202399
      86Ap     4.203782    65App    4.204310    66App    4.209696
      87Ap     4.314992    67App    4.316089    68App    4.360218
      88Ap     4.423655    69App    4.423786    70App    4.443692
      89Ap     4.516064    71App    4.516312    90Ap     4.578803
      72App    4.578830    91Ap     4.617704    92Ap     4.708951
      93Ap     4.774191    73App    4.775288    74App    4.838247
      94Ap     4.963132    75App    5.001392    95Ap     5.001950
      96Ap     5.225328    97Ap     5.249800    76App    5.249836
      98Ap     5.352982    77App    5.354126    78App    5.481308

    Beta Occupied:

       1Ap   -10.167811     1App  -10.167772     2Ap   -10.167754
       3Ap   -10.166584     4Ap    -0.781064     2App   -0.684175
       5Ap    -0.683820     6Ap    -0.511789     7Ap    -0.431325
       3App   -0.430902     8Ap    -0.421661     4App   -0.376598
       9Ap    -0.376448     5App   -0.362780     6App   -0.333702
      10Ap    -0.332641

    Beta Virtual:

      11Ap    -0.025872    12Ap     0.077183    13Ap     0.135108
       7App    0.135109    14Ap     0.144379     8App    0.144712
      15Ap     0.163191    16Ap     0.182227     9App    0.182268
      10App    0.215298    17Ap     0.218883    18Ap     0.282061
      11App    0.282564    19Ap     0.400156    12App    0.400404
      20Ap     0.419799    21Ap     0.427086    13App    0.427107
      22Ap     0.468326    23Ap     0.497787    14App    0.497890
      15App    0.513785    24Ap     0.556129    25Ap     0.584010
      16App    0.584431    26Ap     0.597532    17App    0.597564
      27Ap     0.609368    28Ap     0.628513    18App    0.632317
      29Ap     0.639720    19App    0.640031    20App    0.666461
      30Ap     0.666582    21App    0.686676    31Ap     0.686777
      32Ap     0.757575    33Ap     0.830460    22App    0.830666
      23App    0.854999    24App    0.922651    34Ap     0.922925
      25App    0.946242    35Ap     0.953737    36Ap     0.966294
      26App    0.966642    37Ap     1.008467    38Ap     1.132172
      27App    1.132653    39Ap     1.154986    40Ap     1.168195
      28App    1.168969    41Ap     1.232698    29App    1.279416
      42Ap     1.280241    43Ap     1.284883    44Ap     1.329091
      30App    1.329262    45Ap     1.365909    46Ap     1.371072
      31App    1.371511    32App    1.393462    47Ap     1.406346
      33App    1.406504    34App    1.422811    48Ap     1.423412
      35App    1.427989    36App    1.492502    49Ap     1.508605
      50Ap     1.546891    37App    1.546921    38App    1.582666
      51Ap     1.582667    52Ap     1.675983    53Ap     1.744128
      39App    1.744544    54Ap     1.777224    55Ap     1.836375
      40App    1.836917    41App    1.973593    42App    2.024753
      56Ap     2.025802    57Ap     2.039584    58Ap     2.057781
      43App    2.058736    59Ap     2.746881    44App    2.747418
      45App    2.812294    60Ap     2.815633    61Ap     2.901763
      46App    2.902714    62Ap     2.924103    63Ap     2.931743
      47App    2.932632    48App    2.959921    49App    2.968333
      64Ap     2.968607    65Ap     3.041462    66Ap     3.080740
      50App    3.081575    51App    3.087572    67Ap     3.184224
      52App    3.184460    68Ap     3.188385    69Ap     3.289785
      53App    3.290310    54App    3.331179    70Ap     3.331934
      71Ap     3.383565    72Ap     3.492112    55App    3.493109
      56App    3.511181    73Ap     3.529571    57App    3.574167
      58App    3.581311    74Ap     3.581694    59App    3.670440
      75Ap     3.670882    76Ap     3.693534    60App    3.725793
      77Ap     3.726082    78Ap     3.780938    61App    3.782433
      79Ap     3.816924    80Ap     3.922208    62App    3.923121
      81Ap     4.045807    82Ap     4.117866    63App    4.118403
      83Ap     4.153745    64App    4.155662    84Ap     4.185566
      85Ap     4.209301    65App    4.210336    86Ap     4.210862
      66App    4.214305    87Ap     4.322303    67App    4.323530
      68App    4.363536    88Ap     4.431875    69App    4.431988
      70App    4.446530    89Ap     4.523840    71App    4.524184
      90Ap     4.589334    72App    4.589393    91Ap     4.624829
      92Ap     4.719414    93Ap     4.781060    73App    4.782228
      74App    4.841153    94Ap     4.967937    75App    5.005472
      95Ap     5.006004    96Ap     5.231008    97Ap     5.251576
      76App    5.251602    98Ap     5.359409    77App    5.360604
      78App    5.483617

    Final Occupation by Irrep:
             Ap   App
    DOCC [    10,    6 ]
    SOCC [     1,    0 ]

  @DF-UKS Final Energy:  -157.81305209909294

   => Energetics <=

    Nuclear Repulsion Energy =            125.3893658931840491
    One-Electron Energy =                -458.7383167752528834
    Two-Electron Energy =                 195.8429386416982254
    DFT Exchange-Correlation Energy =     -20.3070398587223266
    Empirical Dispersion Energy =           0.0000000000000000
    VV10 Nonlocal Energy =                  0.0000000000000000
    Total Energy =                       -157.8130520990929426

  UHF NO Occupations:
  HONO-2 :    9 Ap 1.9995985
  HONO-1 :   10 Ap 1.9989796
  HONO-0 :   11 Ap 1.0000000
  LUNO+0 :   12 Ap 0.0010204
  LUNO+1 :   13 Ap 0.0004015
  LUNO+2 :   14 Ap 0.0001986
  LUNO+3 :    7App 0.0001965

Computation Completed

Properties will be evaluated at   0.000000,   0.000000,   0.000000 [a0]

Properties computed using the SCF density matrix

  Nuclear Dipole Moment: [e a0]
     X:     0.8329      Y:     0.0096      Z:     0.0000

  Electronic Dipole Moment: [e a0]
     X:    -0.7582      Y:    -0.0108      Z:     0.0000

  Dipole Moment: [e a0]
     X:     0.0747      Y:    -0.0012      Z:     0.0000     Total:     0.0747

  Dipole Moment: [D]
     X:     0.1899      Y:    -0.0031      Z:     0.0000     Total:     0.1899

*** tstop() called on n054 at Fri Nov  5 13:44:53 2021
Module time:
	user time   =     545.60 seconds =       9.09 minutes
	system time =      12.09 seconds =       0.20 minutes
	total time  =        141 seconds =       2.35 minutes
Total time:
	user time   =     545.60 seconds =       9.09 minutes
	system time =      12.09 seconds =       0.20 minutes
	total time  =        141 seconds =       2.35 minutes
Grab this energy -157.81305209909294
    Psi4 stopped on: Friday, 05 November 2021 01:44PM
    Psi4 wall time for execution: 0:02:20.27

*** Psi4 exiting successfully. Buy a developer a beer!
