                               Psi4 1.4a2.dev629

  ==> Input File <==

--------------------------------------------------------------------------
import os
memory 14 GB

molecule {
 C   -0.3233409472   -0.0004990317    0.0004939011
 C    0.0603680651   -1.4008355605   -2.4256034478
 C    0.0623956928    2.8016626501    0.0000404338
 C    0.0605353575   -1.4015432527    2.4269098044
 H    2.0926221536   -1.6438809972   -2.8467801687
 H   -0.7692386487   -0.3867386884   -4.0276366465
 H   -0.7674143329   -3.2932211854   -2.3480814011
 H    2.0826746663    3.2885873457   -0.0000280091
 H   -0.7638280951    3.6797079911    1.6792999714
 H   -0.7636451895    3.6806980420   -1.6799561010
 H    2.0853778623   -1.6443384429    2.8475161818
 H   -0.7635568194   -3.2872387845    2.3510618957
 H   -0.7655576415   -0.3923843993    4.0227635860
units bohr
0 2
}

basis {

assign 6-31g_2dfp_

[ 6-31g_2dfp_ ]

spherical

!----------------------------------------------------------------------
! Basis Set Exchange
! Version v0.8.13
! https://www.basissetexchange.org
!----------------------------------------------------------------------
!   Basis set: 6-31G(2df,p)
! Description: 6-31G(2df,p)
!        Role: orbital
!     Version: 0  (Data from the original Basis Set Exchange)
!----------------------------------------------------------------------

****
H     0
S    3   1.00
     18.7311370              0.03349460
      2.8253937              0.23472695
      0.6401217              0.81375733
S    1   1.00
      0.1612778              1.00000000
P    1   1.00
      1.5000000              1.0000000
P    1   1.00
      0.3750000              1.0000000
****
B     0
S    6   1.00
   2068.8823000              0.0018663
    310.6495700              0.0142515
     70.6830330              0.0695516
     19.8610800              0.2325729
      6.2993048              0.4670787
      2.1270270              0.3634314
SP   3   1.00
      4.7279710             -0.1303938              0.0745976
      1.1903377             -0.1307889              0.3078467
      0.3594117              1.1309444              0.7434568
SP   1   1.00
      0.1267512              1.0000000              1.0000000
D    1   1.00
      0.8020000              1.0000000
D    1   1.00
      0.2005000              1.0000000
F    1   1.00
      0.5000000              1.0000000
****
C     0
S    6   1.00
   3047.5249000              0.0018347
    457.3695100              0.0140373
    103.9486900              0.0688426
     29.2101550              0.2321844
      9.2866630              0.4679413
      3.1639270              0.3623120
SP   3   1.00
      7.8682724             -0.1193324              0.0689991
      1.8812885             -0.1608542              0.3164240
      0.5442493              1.1434564              0.7443083
SP   1   1.00
      0.1687144              1.0000000              1.0000000
D    1   1.00
      1.2520000              1.0000000
D    1   1.00
      0.3130000              1.0000000
F    1   1.00
      0.8000000              1.0000000
****
N     0
S    6   1.00
   4173.5110000              0.0018348
    627.4579000              0.0139950
    142.9021000              0.0685870
     40.2343300              0.2322410
     12.8202100              0.4690700
      4.3904370              0.3604550
SP   3   1.00
     11.6263580             -0.1149610              0.0675800
      2.7162800             -0.1691180              0.3239070
      0.7722180              1.1458520              0.7408950
SP   1   1.00
      0.2120313              1.0000000              1.0000000
D    1   1.00
      1.8260000              1.0000000
D    1   1.00
      0.4565000              1.0000000
F    1   1.00
      1.0000000              1.0000000
****
O     0
S    6   1.00
   5484.6717000              0.0018311
    825.2349500              0.0139501
    188.0469600              0.0684451
     52.9645000              0.2327143
     16.8975700              0.4701930
      5.7996353              0.3585209
SP   3   1.00
     15.5396160             -0.1107775              0.0708743
      3.5999336             -0.1480263              0.3397528
      1.0137618              1.1307670              0.7271586
SP   1   1.00
      0.2700058              1.0000000              1.0000000
D    1   1.00
      2.5840000              1.0000000
D    1   1.00
      0.6460000              1.0000000
F    1   1.00
      1.4000000              1.0000000
****
F     0
S    6   1.00
   7001.7130900              0.0018196169
   1051.3660900              0.0139160796
    239.2856900              0.0684053245
     67.3974453              0.233185760
     21.5199573              0.471267439
      7.40310130             0.356618546
SP   3   1.00
     20.8479528             -0.108506975            0.0716287243
      4.80830834            -0.146451658            0.3459121030
      1.34406986             1.128688580            0.7224699570
SP   1   1.00
      0.358151393            1.0000000              1.0000000
D    1   1.00
      3.5000000              1.0000000
D    1   1.00
      0.8750000              1.0000000
F    1   1.00
      1.8500000              1.0000000
****
Al     0
S    6   1.00
  13983.1000000              0.00194267
   2098.7500000              0.0148599
    477.7050000              0.0728494
    134.3600000              0.2468300
     42.8709000              0.4872580
     14.5189000              0.3234960
SP   6   1.00
    239.6680000             -0.00292619             0.00460285
     57.4419000             -0.0374080              0.0331990
     18.2859000             -0.1144870              0.1362820
      6.5991400              0.1156350              0.3304760
      2.4904900              0.6125950              0.4491460
      0.9445400              0.3937990              0.2657040
SP   3   1.00
      1.2779000             -0.2276060             -0.0175130
      0.3975900              0.00144583             0.2445330
      0.1600950              1.0927900              0.8049340
SP   1   1.00
      0.0556577              1.0000000              1.0000000
D    1   1.00
      0.6500000              1.0000000
D    1   1.00
      0.1625000              1.0000000
F    1   1.00
      0.2500000              1.0000000
****
Si     0
S    6   1.00
  16115.9000000              0.00195948
   2425.5800000              0.01492880
    553.8670000              0.07284780
    156.3400000              0.24613000
     50.0683000              0.48591400
     17.0178000              0.32500200
SP   6   1.00
    292.7180000             -0.00278094             0.00443826
     69.8731000             -0.03571460             0.03266790
     22.3363000             -0.11498500             0.13472100
      8.1503900              0.09356340             0.32867800
      3.1345800              0.60301700             0.44964000
      1.2254300              0.41895900             0.26137200
SP   3   1.00
      1.7273800             -0.24463000            -0.01779510
      0.5729220              0.00431572             0.25353900
      0.2221920              1.09818000             0.80066900
SP   1   1.00
      0.0778369              1.00000000             1.00000000
D    1   1.00
      0.9000000              1.0000000
D    1   1.00
      0.2250000              1.0000000
F    1   1.00
      0.3200000              1.0000000
****
P     0
S    6   1.00
  19413.3000000              0.0018516
   2909.4200000              0.0142062
    661.3640000              0.0699995
    185.7590000              0.2400790
     59.1943000              0.4847620
     20.0310000              0.3352000
SP   6   1.00
    339.4780000             -0.00278217             0.00456462
     81.0101000             -0.0360499              0.03369360
     25.8780000             -0.1166310              0.13975500
      9.4522100              0.0968328              0.33936200
      3.6656600              0.6144180              0.45092100
      1.4674600              0.4037980              0.23858600
SP   3   1.00
      2.1562300             -0.2529230             -0.01776530
      0.7489970              0.0328517              0.27405800
      0.2831450              1.0812500              0.78542100
SP   1   1.00
      0.0998317              1.0000000              1.00000000
D    1   1.00
      1.1000000              1.0000000
D    1   1.00
      0.2750000              1.0000000
F    1   1.00
      0.4500000              1.0000000
****
S     0
S    6   1.00
  21917.1000000              0.0018690
   3301.4900000              0.0142300
    754.1460000              0.0696960
    212.7110000              0.2384870
     67.9896000              0.4833070
     23.0515000              0.3380740
SP   6   1.00
    423.7350000             -0.0023767              0.0040610
    100.7100000             -0.0316930              0.0306810
     32.1599000             -0.1133170              0.1304520
     11.8079000              0.0560900              0.3272050
      4.6311000              0.5922550              0.4528510
      1.8702500              0.4550060              0.2560420
SP   3   1.00
      2.6158400             -0.2503740             -0.0145110
      0.9221670              0.0669570              0.3102630
      0.3412870              1.0545100              0.7544830
SP   1   1.00
      0.1171670              1.0000000              1.0000000
D    1   1.00
      1.3000000              1.0000000
D    1   1.00
      0.3250000              1.0000000
F    1   1.00
      0.5500000              1.0000000
****
Cl     0
S    6   1.00
  25180.1000000              0.0018330
   3780.3500000              0.0140340
    860.4740000              0.0690970
    242.1450000              0.2374520
     77.3349000              0.4830340
     26.2470000              0.3398560
SP   6   1.00
    491.7650000             -0.0022974              0.0039894
    116.9840000             -0.0307140              0.0303180
     37.4153000             -0.1125280              0.1298800
     13.7834000              0.0450160              0.3279510
      5.4521500              0.5893530              0.4535270
      2.2258800              0.4652060              0.2521540
SP   3   1.00
      3.1864900             -0.2518300             -0.0142990
      1.1442700              0.0615890              0.3235720
      0.4203770              1.0601800              0.7435070
SP   1   1.00
      0.1426570              1.0000000              1.0000000
D    1   1.00
      1.5000000              1.0000000
D    1   1.00
      0.3750000              1.0000000
F    1   1.00
      0.7000000              1.0000000
****
}

set {
reference uhf
freeze_core true
e_convergence 10
d_convergence 10
dft_spherical_points 1202
dft_radial_points 99
}

e = energy('b3lyp')

print_out('Grab this energy {0}'.format(e))
--------------------------------------------------------------------------

    Molecular point group: c1

    Geometry (in Bohr), charge = 0, multiplicity = 2:

       Center              X                  Y                   Z               Mass
    ------------   -----------------  -----------------  -----------------  -----------------
         C           -0.323340591463    -0.000264547065     0.000139370659    12.000000000000
         C            0.060368420837    -1.400601075865    -2.425957978241    12.000000000000
         C            0.062396048537     2.801897134735    -0.000314096641    12.000000000000
         C            0.060535713237    -1.401308768065     2.426555273959    12.000000000000
         H            2.092622509337    -1.643646512565    -2.847134699141     1.007825032230
         H           -0.769238292963    -0.386504203765    -4.027991176941     1.007825032230
         H           -0.767413977163    -3.292986700765    -2.348435931541     1.007825032230
         H            2.082675022037     3.288821830335    -0.000382539541     1.007825032230
         H           -0.763827739363     3.679942475735     1.678945440959     1.007825032230
         H           -0.763644833763     3.680932526635    -1.680310631441     1.007825032230
         H            2.085378218037    -1.644103958265     2.847161651359     1.007825032230
         H           -0.763556463663    -3.287004299865     2.350707365259     1.007825032230
         H           -0.765557285763    -0.392149914665     4.022409055559     1.007825032230

  Charge       = 0
  Multiplicity = 2
  Basis Set: ANONYMOUSA69AE04C
    Blend: 6-31G_2DFP_
  Basis Set: (ANONYMOUSA69AE04C AUX)
    Blend: DEF2-UNIVERSAL-JKFIT

    Orbital Energies [Eh]
    ---------------------

    Alpha Occupied:

       1A    -10.180342     2A    -10.167608     3A    -10.166989
       4A    -10.166446     5A     -0.797767     6A     -0.686510
       7A     -0.685867     8A     -0.530777     9A     -0.441127
      10A     -0.434760    11A     -0.434582    12A     -0.382822
      13A     -0.382374    14A     -0.363612    15A     -0.338044
      16A     -0.337952    17A     -0.168961

    Alpha Virtual:

      18A      0.076069    19A      0.133982    20A      0.134311
      21A      0.142515    22A      0.142750    23A      0.154876
      24A      0.178450    25A      0.179113    26A      0.203548
      27A      0.214806    28A      0.275898    29A      0.276073
      30A      0.399141    31A      0.399314    32A      0.403344
      33A      0.423969    34A      0.424225    35A      0.456591
      36A      0.495226    37A      0.495551    38A      0.512162
      39A      0.513980    40A      0.578601    41A      0.579025
      42A      0.591271    43A      0.591969    44A      0.602600
      45A      0.624766    46A      0.631683    47A      0.635850
      48A      0.636737    49A      0.663005    50A      0.663835
      51A      0.683496    52A      0.684228    53A      0.734995
      54A      0.824996    55A      0.825800    56A      0.853922
      57A      0.914809    58A      0.915242    59A      0.944129
      60A      0.944609    61A      0.961011    62A      0.961588
      63A      1.003454    64A      1.127778    65A      1.128438
      66A      1.142213    67A      1.163122    68A      1.163422
      69A      1.223325    70A      1.274250    71A      1.274712
      72A      1.279368    73A      1.323994    74A      1.324711
      75A      1.355947    76A      1.365787    77A      1.366314
      78A      1.392454    79A      1.403440    80A      1.404666
      81A      1.416496    82A      1.417726    83A      1.427916
      84A      1.491488    85A      1.499083    86A      1.542369
      87A      1.543314    88A      1.574123    89A      1.574775
      90A      1.669794    91A      1.739244    92A      1.739522
      93A      1.768365    94A      1.829622    95A      1.833241
      96A      1.971687    97A      2.017888    98A      2.018810
      99A      2.019683   100A      2.051730   101A      2.053632
     102A      2.737880   103A      2.739091   104A      2.790925
     105A      2.811427   106A      2.889608   107A      2.890228
     108A      2.895003   109A      2.929392   110A      2.929599
     111A      2.959008   112A      2.963767   113A      2.965001
     114A      3.034029   115A      3.071036   116A      3.071515
     117A      3.084395   118A      3.168523   119A      3.169037
     120A      3.180609   121A      3.284988   122A      3.285649
     123A      3.326939   124A      3.327382   125A      3.375619
     126A      3.489307   127A      3.491008   128A      3.514016
     129A      3.525339   130A      3.568229   131A      3.568508
     132A      3.575205   133A      3.665279   134A      3.667415
     135A      3.679645   136A      3.693629   137A      3.694669
     138A      3.776229   139A      3.777399   140A      3.789129
     141A      3.911766   142A      3.912673   143A      4.034421
     144A      4.110412   145A      4.112180   146A      4.145895
     147A      4.150208   148A      4.173299   149A      4.201056
     150A      4.202083   151A      4.205543   152A      4.211234
     153A      4.314910   154A      4.317063   155A      4.358951
     156A      4.423969   157A      4.424872   158A      4.443546
     159A      4.516080   160A      4.517582   161A      4.577809
     162A      4.578760   163A      4.617558   164A      4.709485
     165A      4.774131   166A      4.775064   167A      4.836870
     168A      4.962870   169A      5.002033   170A      5.003903
     171A      5.227782   172A      5.242641   173A      5.250959
     174A      5.352487   175A      5.358783   176A      5.479464

    Beta Occupied:

       1A    -10.168371     2A    -10.167747     3A    -10.167209
       4A    -10.166517     5A     -0.781092     6A     -0.684313
       7A     -0.683670     8A     -0.511748     9A     -0.431144
      10A     -0.430944    11A     -0.421821    12A     -0.376919
      13A     -0.376446    14A     -0.362596    15A     -0.333157
      16A     -0.333086

    Beta Virtual:

      17A     -0.025744    18A      0.077078    19A      0.134873
      20A      0.135203    21A      0.144439    22A      0.144566
      23A      0.163333    24A      0.182125    25A      0.182780
      26A      0.215035    27A      0.218930    28A      0.282243
      29A      0.282425    30A      0.400308    31A      0.400487
      32A      0.419790    33A      0.426778    34A      0.427039
      35A      0.468499    36A      0.497481    37A      0.497818
      38A      0.513897    39A      0.556324    40A      0.584159
      41A      0.584567    42A      0.597466    43A      0.598140
      44A      0.610016    45A      0.628142    46A      0.631879
      47A      0.639156    48A      0.639963    49A      0.666592
      50A      0.667378    51A      0.686171    52A      0.686824
      53A      0.757518    54A      0.830138    55A      0.830995
      56A      0.855277    57A      0.922794    58A      0.923199
      59A      0.945967    60A      0.953537    61A      0.966327
      62A      0.966885    63A      1.008694    64A      1.131794
      65A      1.132479    66A      1.155586    67A      1.168158
      68A      1.168538    69A      1.232298    70A      1.279839
      71A      1.280315    72A      1.285124    73A      1.328937
      74A      1.329747    75A      1.365350    76A      1.371042
      77A      1.371554    78A      1.393513    79A      1.406861
      80A      1.408178    81A      1.421507    82A      1.422817
      83A      1.428185    84A      1.492537    85A      1.509525
      86A      1.546783    87A      1.547712    88A      1.582010
      89A      1.582633    90A      1.674639    91A      1.745013
      92A      1.745287    93A      1.779134    94A      1.833500
      95A      1.837075    96A      1.972552    97A      2.024952
      98A      2.025916    99A      2.039673   100A      2.058486
     101A      2.060318   102A      2.746211   103A      2.747432
     104A      2.811839   105A      2.816061   106A      2.902418
     107A      2.902841   108A      2.924658   109A      2.931914
     110A      2.932040   111A      2.960072   112A      2.968276
     113A      2.969585   114A      3.041961   115A      3.080822
     116A      3.081495   117A      3.086268   118A      3.184157
     119A      3.184865   120A      3.188327   121A      3.289770
     122A      3.290464   123A      3.330725   124A      3.331206
     125A      3.383436   126A      3.492075   127A      3.493702
     128A      3.512382   129A      3.528384   130A      3.574941
     131A      3.581641   132A      3.581894   133A      3.669973
     134A      3.672232   135A      3.692964   136A      3.725262
     137A      3.726257   138A      3.780788   139A      3.781900
     140A      3.817670   141A      3.921590   142A      3.922482
     143A      4.045303   144A      4.117416   145A      4.118782
     146A      4.153345   147A      4.157217   148A      4.187340
     149A      4.207921   150A      4.208159   151A      4.212434
     152A      4.215736   153A      4.322423   154A      4.324423
     155A      4.362317   156A      4.432162   157A      4.433063
     158A      4.446475   159A      4.523886   160A      4.525358
     161A      4.588451   162A      4.589317   163A      4.624751
     164A      4.719829   165A      4.781075   166A      4.782026
     167A      4.839786   168A      4.967667   169A      5.006097
     170A      5.007918   171A      5.233480   172A      5.244452
     173A      5.252738   174A      5.358973   175A      5.365252
     176A      5.481784

    Final Occupation by Irrep:
              A
    DOCC [    16 ]
    SOCC [     1 ]

  @DF-UKS Final Energy:  -157.81304736350171

   => Energetics <=

    Nuclear Repulsion Energy =            125.3946867622161676
    One-Electron Energy =                -458.7489737652110762
    Two-Electron Energy =                 195.8483902244523733
    DFT Exchange-Correlation Energy =     -20.3071505849591674
    Empirical Dispersion Energy =           0.0000000000000000
    VV10 Nonlocal Energy =                  0.0000000000000000
    Total Energy =                       -157.8130473635017097

  UHF NO Occupations:
  HONO-2 :   15  A 1.9996008
  HONO-1 :   16  A 1.9989804
  HONO-0 :   17  A 1.0000000
  LUNO+0 :   18  A 0.0010196
  LUNO+1 :   19  A 0.0003992
  LUNO+2 :   20  A 0.0001976
  LUNO+3 :   21  A 0.0001975

Computation Completed

Properties will be evaluated at   0.000000,   0.000000,   0.000000 [a0]

Properties computed using the SCF density matrix

  Nuclear Dipole Moment: [e a0]
     X:     0.8272      Y:     0.0016      Z:    -0.0025

  Electronic Dipole Moment: [e a0]
     X:    -0.7493      Y:    -0.0023      Z:     0.0049

  Dipole Moment: [e a0]
     X:     0.0779      Y:    -0.0006      Z:     0.0025     Total:     0.0780

  Dipole Moment: [D]
     X:     0.1980      Y:    -0.0016      Z:     0.0062     Total:     0.1981

*** tstop() called on n031 at Fri Nov  5 14:16:31 2021
Module time:
	user time   =     636.19 seconds =      10.60 minutes
	system time =      12.14 seconds =       0.20 minutes
	total time  =        163 seconds =       2.72 minutes
Total time:
	user time   =     636.19 seconds =      10.60 minutes
	system time =      12.14 seconds =       0.20 minutes
	total time  =        163 seconds =       2.72 minutes
Grab this energy -157.8130473635017
    Psi4 stopped on: Friday, 05 November 2021 02:16PM
    Psi4 wall time for execution: 0:02:43.03

*** Psi4 exiting successfully. Buy a developer a beer!
