                               Psi4 1.4a2.dev629

  ==> Input File <==

--------------------------------------------------------------------------
import os
memory 14 GB

molecule {
 C   -0.3236395189   -0.0010258465   -0.0000000000
 C    0.0616528845   -1.4021489619   -2.4317071910
 C    0.0604104454    2.8075959664    0.0000000000
 C    0.0616528845   -1.4021489619    2.4317071910
 H    2.0871875695   -1.6479410224   -2.8528915493
 H   -0.7658040289   -0.3911967439   -4.0308272855
 H   -0.7657127617   -3.2954844970   -2.3538628469
 H    2.0871724038    3.2945976091   -0.0000000000
 H   -0.7655992669    3.6861752039    1.6769794032
 H   -0.7655992669    3.6861752039   -1.6769794032
 H    2.0871875695   -1.6479410224    2.8528915493
 H   -0.7657127617   -3.2954844970    2.3538628469
 H   -0.7658040289   -0.3911967439    4.0308272855
units bohr
0 2
}

basis {

assign 6-31g_2dfp_

[ 6-31g_2dfp_ ]

spherical

!----------------------------------------------------------------------
! Basis Set Exchange
! Version v0.8.13
! https://www.basissetexchange.org
!----------------------------------------------------------------------
!   Basis set: 6-31G(2df,p)
! Description: 6-31G(2df,p)
!        Role: orbital
!     Version: 0  (Data from the original Basis Set Exchange)
!----------------------------------------------------------------------

****
H     0
S    3   1.00
     18.7311370              0.03349460
      2.8253937              0.23472695
      0.6401217              0.81375733
S    1   1.00
      0.1612778              1.00000000
P    1   1.00
      1.5000000              1.0000000
P    1   1.00
      0.3750000              1.0000000
****
B     0
S    6   1.00
   2068.8823000              0.0018663
    310.6495700              0.0142515
     70.6830330              0.0695516
     19.8610800              0.2325729
      6.2993048              0.4670787
      2.1270270              0.3634314
SP   3   1.00
      4.7279710             -0.1303938              0.0745976
      1.1903377             -0.1307889              0.3078467
      0.3594117              1.1309444              0.7434568
SP   1   1.00
      0.1267512              1.0000000              1.0000000
D    1   1.00
      0.8020000              1.0000000
D    1   1.00
      0.2005000              1.0000000
F    1   1.00
      0.5000000              1.0000000
****
C     0
S    6   1.00
   3047.5249000              0.0018347
    457.3695100              0.0140373
    103.9486900              0.0688426
     29.2101550              0.2321844
      9.2866630              0.4679413
      3.1639270              0.3623120
SP   3   1.00
      7.8682724             -0.1193324              0.0689991
      1.8812885             -0.1608542              0.3164240
      0.5442493              1.1434564              0.7443083
SP   1   1.00
      0.1687144              1.0000000              1.0000000
D    1   1.00
      1.2520000              1.0000000
D    1   1.00
      0.3130000              1.0000000
F    1   1.00
      0.8000000              1.0000000
****
N     0
S    6   1.00
   4173.5110000              0.0018348
    627.4579000              0.0139950
    142.9021000              0.0685870
     40.2343300              0.2322410
     12.8202100              0.4690700
      4.3904370              0.3604550
SP   3   1.00
     11.6263580             -0.1149610              0.0675800
      2.7162800             -0.1691180              0.3239070
      0.7722180              1.1458520              0.7408950
SP   1   1.00
      0.2120313              1.0000000              1.0000000
D    1   1.00
      1.8260000              1.0000000
D    1   1.00
      0.4565000              1.0000000
F    1   1.00
      1.0000000              1.0000000
****
O     0
S    6   1.00
   5484.6717000              0.0018311
    825.2349500              0.0139501
    188.0469600              0.0684451
     52.9645000              0.2327143
     16.8975700              0.4701930
      5.7996353              0.3585209
SP   3   1.00
     15.5396160             -0.1107775              0.0708743
      3.5999336             -0.1480263              0.3397528
      1.0137618              1.1307670              0.7271586
SP   1   1.00
      0.2700058              1.0000000              1.0000000
D    1   1.00
      2.5840000              1.0000000
D    1   1.00
      0.6460000              1.0000000
F    1   1.00
      1.4000000              1.0000000
****
F     0
S    6   1.00
   7001.7130900              0.0018196169
   1051.3660900              0.0139160796
    239.2856900              0.0684053245
     67.3974453              0.233185760
     21.5199573              0.471267439
      7.40310130             0.356618546
SP   3   1.00
     20.8479528             -0.108506975            0.0716287243
      4.80830834            -0.146451658            0.3459121030
      1.34406986             1.128688580            0.7224699570
SP   1   1.00
      0.358151393            1.0000000              1.0000000
D    1   1.00
      3.5000000              1.0000000
D    1   1.00
      0.8750000              1.0000000
F    1   1.00
      1.8500000              1.0000000
****
Al     0
S    6   1.00
  13983.1000000              0.00194267
   2098.7500000              0.0148599
    477.7050000              0.0728494
    134.3600000              0.2468300
     42.8709000              0.4872580
     14.5189000              0.3234960
SP   6   1.00
    239.6680000             -0.00292619             0.00460285
     57.4419000             -0.0374080              0.0331990
     18.2859000             -0.1144870              0.1362820
      6.5991400              0.1156350              0.3304760
      2.4904900              0.6125950              0.4491460
      0.9445400              0.3937990              0.2657040
SP   3   1.00
      1.2779000             -0.2276060             -0.0175130
      0.3975900              0.00144583             0.2445330
      0.1600950              1.0927900              0.8049340
SP   1   1.00
      0.0556577              1.0000000              1.0000000
D    1   1.00
      0.6500000              1.0000000
D    1   1.00
      0.1625000              1.0000000
F    1   1.00
      0.2500000              1.0000000
****
Si     0
S    6   1.00
  16115.9000000              0.00195948
   2425.5800000              0.01492880
    553.8670000              0.07284780
    156.3400000              0.24613000
     50.0683000              0.48591400
     17.0178000              0.32500200
SP   6   1.00
    292.7180000             -0.00278094             0.00443826
     69.8731000             -0.03571460             0.03266790
     22.3363000             -0.11498500             0.13472100
      8.1503900              0.09356340             0.32867800
      3.1345800              0.60301700             0.44964000
      1.2254300              0.41895900             0.26137200
SP   3   1.00
      1.7273800             -0.24463000            -0.01779510
      0.5729220              0.00431572             0.25353900
      0.2221920              1.09818000             0.80066900
SP   1   1.00
      0.0778369              1.00000000             1.00000000
D    1   1.00
      0.9000000              1.0000000
D    1   1.00
      0.2250000              1.0000000
F    1   1.00
      0.3200000              1.0000000
****
P     0
S    6   1.00
  19413.3000000              0.0018516
   2909.4200000              0.0142062
    661.3640000              0.0699995
    185.7590000              0.2400790
     59.1943000              0.4847620
     20.0310000              0.3352000
SP   6   1.00
    339.4780000             -0.00278217             0.00456462
     81.0101000             -0.0360499              0.03369360
     25.8780000             -0.1166310              0.13975500
      9.4522100              0.0968328              0.33936200
      3.6656600              0.6144180              0.45092100
      1.4674600              0.4037980              0.23858600
SP   3   1.00
      2.1562300             -0.2529230             -0.01776530
      0.7489970              0.0328517              0.27405800
      0.2831450              1.0812500              0.78542100
SP   1   1.00
      0.0998317              1.0000000              1.00000000
D    1   1.00
      1.1000000              1.0000000
D    1   1.00
      0.2750000              1.0000000
F    1   1.00
      0.4500000              1.0000000
****
S     0
S    6   1.00
  21917.1000000              0.0018690
   3301.4900000              0.0142300
    754.1460000              0.0696960
    212.7110000              0.2384870
     67.9896000              0.4833070
     23.0515000              0.3380740
SP   6   1.00
    423.7350000             -0.0023767              0.0040610
    100.7100000             -0.0316930              0.0306810
     32.1599000             -0.1133170              0.1304520
     11.8079000              0.0560900              0.3272050
      4.6311000              0.5922550              0.4528510
      1.8702500              0.4550060              0.2560420
SP   3   1.00
      2.6158400             -0.2503740             -0.0145110
      0.9221670              0.0669570              0.3102630
      0.3412870              1.0545100              0.7544830
SP   1   1.00
      0.1171670              1.0000000              1.0000000
D    1   1.00
      1.3000000              1.0000000
D    1   1.00
      0.3250000              1.0000000
F    1   1.00
      0.5500000              1.0000000
****
Cl     0
S    6   1.00
  25180.1000000              0.0018330
   3780.3500000              0.0140340
    860.4740000              0.0690970
    242.1450000              0.2374520
     77.3349000              0.4830340
     26.2470000              0.3398560
SP   6   1.00
    491.7650000             -0.0022974              0.0039894
    116.9840000             -0.0307140              0.0303180
     37.4153000             -0.1125280              0.1298800
     13.7834000              0.0450160              0.3279510
      5.4521500              0.5893530              0.4535270
      2.2258800              0.4652060              0.2521540
SP   3   1.00
      3.1864900             -0.2518300             -0.0142990
      1.1442700              0.0615890              0.3235720
      0.4203770              1.0601800              0.7435070
SP   1   1.00
      0.1426570              1.0000000              1.0000000
D    1   1.00
      1.5000000              1.0000000
D    1   1.00
      0.3750000              1.0000000
F    1   1.00
      0.7000000              1.0000000
****
}

set {
reference uhf
freeze_core true
e_convergence 10
d_convergence 10
dft_spherical_points 1202
dft_radial_points 99
}

e = energy('b3lyp')

print_out('Grab this energy {0}'.format(e))
--------------------------------------------------------------------------

    Molecular point group: cs

    Geometry (in Bohr), charge = 0, multiplicity = 2:

       Center              X                  Y                   Z               Mass
    ------------   -----------------  -----------------  -----------------  -----------------
         C           -0.323661992375    -0.001463058473     0.000000000000    12.000000000000
         C            0.061630411025    -1.402586173873    -2.431707191000    12.000000000000
         C            0.060387971925     2.807158754427     0.000000000000    12.000000000000
         C            0.061630411025    -1.402586173873     2.431707191000    12.000000000000
         H            2.087165096025    -1.648378234373    -2.852891549300     1.007825032230
         H           -0.765826502375    -0.391633955873    -4.030827285500     1.007825032230
         H           -0.765735235175    -3.295921708973    -2.353862846900     1.007825032230
         H            2.087149930325     3.294160397127     0.000000000000     1.007825032230
         H           -0.765621740375     3.685737991927     1.676979403200     1.007825032230
         H           -0.765621740375     3.685737991927    -1.676979403200     1.007825032230
         H            2.087165096025    -1.648378234373     2.852891549300     1.007825032230
         H           -0.765735235175    -3.295921708973     2.353862846900     1.007825032230
         H           -0.765826502375    -0.391633955873     4.030827285500     1.007825032230

  Charge       = 0
  Multiplicity = 2
  Basis Set: ANONYMOUS4948F4D3
    Blend: 6-31G_2DFP_
  Basis Set: (ANONYMOUS4948F4D3 AUX)
    Blend: DEF2-UNIVERSAL-JKFIT

    Orbital Energies [Eh]
    ---------------------

    Alpha Occupied:

       1Ap   -10.181113     1App  -10.167407     2Ap   -10.167387
       3Ap   -10.167334     4Ap    -0.796721     2App   -0.685966
       5Ap    -0.685808     6Ap    -0.530778     7Ap    -0.440532
       8Ap    -0.434199     3App   -0.434184     4App   -0.382564
       9Ap    -0.382487     5App   -0.363727     6App   -0.338104
      10Ap    -0.337518    11Ap    -0.169285

    Alpha Virtual:

      12Ap     0.076102    13Ap     0.134078     7App    0.134152
      14Ap     0.142361     8App    0.142492    15Ap     0.154818
       9App    0.178553    16Ap     0.178653    17Ap     0.202437
      10App    0.214458    18Ap     0.275328    11App    0.275579
      19Ap     0.399137    12App    0.399361    20Ap     0.403546
      13App    0.424376    21Ap     0.424391    22Ap     0.456030
      14App    0.495128    23Ap     0.495200    15App    0.511826
      24Ap     0.513570    25Ap     0.578073    16App    0.578167
      26Ap     0.591071    17App    0.591108    27Ap     0.602123
      28Ap     0.624353    18App    0.631415    19App    0.635455
      29Ap     0.635456    30Ap     0.662844    20App    0.663018
      21App    0.683403    31Ap     0.683422    32Ap     0.735194
      22App    0.825556    33Ap     0.825567    23App    0.852910
      24App    0.914193    34Ap     0.914409    25App    0.942802
      35Ap     0.945183    36Ap     0.960280    26App    0.960390
      37Ap     1.002334    27App    1.127207    38Ap     1.127232
      39Ap     1.141871    28App    1.162473    40Ap     1.162512
      41Ap     1.222435    42Ap     1.273397    29App    1.273769
      43Ap     1.278837    44Ap     1.323969    30App    1.324074
      45Ap     1.355822    31App    1.363990    46Ap     1.364473
      32App    1.390924    47Ap     1.404093    33App    1.404557
      48Ap     1.416482    34App    1.417032    35App    1.426489
      36App    1.490298    49Ap     1.498509    50Ap     1.541920
      37App    1.542260    38App    1.572971    51Ap     1.573595
      52Ap     1.669888    53Ap     1.738660    39App    1.738896
      54Ap     1.766825    40App    1.830124    55Ap     1.830274
      41App    1.970354    56Ap     2.015964    42App    2.017511
      57Ap     2.018403    43App    2.047592    58Ap     2.048779
      59Ap     2.737832    44App    2.737932    60Ap     2.789761
      45App    2.808705    61Ap     2.888112    46App    2.889463
      62Ap     2.893415    63Ap     2.929164    47App    2.929492
      48App    2.958756    49App    2.964397    64Ap     2.964963
      65Ap     3.034038    66Ap     3.070217    50App    3.070477
      51App    3.082781    52App    3.167819    67Ap     3.168025
      68Ap     3.178754    69Ap     3.284572    53App    3.285003
      54App    3.326702    70Ap     3.326782    71Ap     3.376977
      72Ap     3.488331    55App    3.488381    56App    3.513233
      73Ap     3.522979    57App    3.568356    74Ap     3.568574
      58App    3.573034    75Ap     3.666192    59App    3.666635
      76Ap     3.677766    77Ap     3.692681    60App    3.692716
      78Ap     3.772332    61App    3.772345    79Ap     3.788414
      80Ap     3.909778    62App    3.910488    81Ap     4.032625
      63App    4.108257    82Ap     4.108701    83Ap     4.147229
      64App    4.147625    84Ap     4.172036    85Ap     4.200677
      65App    4.200762    86Ap     4.201278    66App    4.209233
      87Ap     4.313633    67App    4.315216    68App    4.356478
      69App    4.421814    88Ap     4.422953    70App    4.441047
      89Ap     4.513677    71App    4.514050    90Ap     4.574435
      72App    4.575009    91Ap     4.610237    92Ap     4.704692
      73App    4.768020    93Ap     4.768310    74App    4.832954
      94Ap     4.959846    75App    5.001047    95Ap     5.001624
      96Ap     5.227018    97Ap     5.245174    76App    5.245641
      98Ap     5.352882    77App    5.352931    78App    5.473652

    Beta Occupied:

       1App  -10.168158     1Ap   -10.168147     2Ap   -10.168103
       3Ap   -10.167260     4Ap    -0.780069     2App   -0.683786
       5Ap    -0.683634     6Ap    -0.511648     7Ap    -0.430598
       3App   -0.430567     8Ap    -0.421324     4App   -0.376694
       9Ap    -0.376601     5App   -0.362722     6App   -0.333222
      10Ap    -0.332637

    Beta Virtual:

      11Ap    -0.025774    12Ap     0.077099    13Ap     0.134962
       7App    0.135061    14Ap     0.144221     8App    0.144315
      15Ap     0.163233     9App    0.182210    16Ap     0.182286
      10App    0.214680    17Ap     0.217999    18Ap     0.281759
      11App    0.281983    19Ap     0.400273    12App    0.400498
      20Ap     0.420089    13App    0.427195    21Ap     0.427213
      22Ap     0.467584    14App    0.497377    23Ap     0.497444
      15App    0.513546    24Ap     0.555986    25Ap     0.583618
      16App    0.583711    26Ap     0.597300    17App    0.597357
      27Ap     0.609510    28Ap     0.627670    18App    0.631564
      19App    0.638661    29Ap     0.638673    30Ap     0.666444
      20App    0.666627    21App    0.685958    31Ap     0.685981
      32Ap     0.757895    22App    0.830711    33Ap     0.830715
      23App    0.854227    24App    0.922150    34Ap     0.922368
      25App    0.944635    35Ap     0.954202    36Ap     0.965570
      26App    0.965662    37Ap     1.007653    27App    1.131247
      38Ap     1.131250    39Ap     1.155230    28App    1.167532
      40Ap     1.167601    41Ap     1.231267    42Ap     1.278927
      29App    1.279354    43Ap     1.284658    44Ap     1.328950
      30App    1.329077    45Ap     1.365210    31App    1.369214
      46Ap     1.369749    32App    1.391973    47Ap     1.407580
      33App    1.408067    48Ap     1.421498    34App    1.421997
      35App    1.426729    36App    1.491347    49Ap     1.508890
      50Ap     1.546370    37App    1.546739    38App    1.580780
      51Ap     1.581392    52Ap     1.674727    53Ap     1.744422
      39App    1.744653    54Ap     1.777580    40App    1.833963
      55Ap     1.834109    41App    1.971210    42App    2.023922
      56Ap     2.024727    57Ap     2.037324    43App    2.054254
      58Ap     2.055489    59Ap     2.746269    44App    2.746357
      45App    2.809112    60Ap     2.814916    61Ap     2.901024
      46App    2.902359    62Ap     2.923058    63Ap     2.931462
      47App    2.931841    48App    2.959808    49App    2.968895
      64Ap     2.969438    65Ap     3.041885    66Ap     3.080032
      50App    3.080310    51App    3.084579    52App    3.183658
      67Ap     3.183854    68Ap     3.186538    69Ap     3.289224
      53App    3.289597    54App    3.330568    70Ap     3.330675
      71Ap     3.384813    72Ap     3.491062    55App    3.491143
      56App    3.511607    73Ap     3.526076    57App    3.572859
      58App    3.581734    74Ap     3.581852    75Ap     3.670951
      59App    3.671596    76Ap     3.691065    60App    3.724328
      77Ap     3.724688    78Ap     3.776759    61App    3.776891
      79Ap     3.817092    80Ap     3.919568    62App    3.920319
      81Ap     4.043581    63App    4.115341    82Ap     4.115793
      83Ap     4.154288    64App    4.154617    84Ap     4.185983
      85Ap     4.206646    65App    4.206713    86Ap     4.209143
      66App    4.213631    87Ap     4.321009    67App    4.322659
      68App    4.359861    69App    4.429915    88Ap     4.431063
      70App    4.443924    89Ap     4.521355    71App    4.521699
      90Ap     4.585039    72App    4.585569    91Ap     4.617445
      92Ap     4.714955    73App    4.774989    93Ap     4.775241
      74App    4.835872    94Ap     4.964618    75App    5.005046
      95Ap     5.005625    96Ap     5.232694    97Ap     5.246956
      76App    5.247405    98Ap     5.359289    77App    5.359377
      78App    5.475951

    Final Occupation by Irrep:
             Ap   App
    DOCC [    10,    6 ]
    SOCC [     1,    0 ]

  @DF-UKS Final Energy:  -157.81307157873422

   => Energetics <=

    Nuclear Repulsion Energy =            125.2136561196303859
    One-Electron Energy =                -458.3925864175332663
    Two-Electron Energy =                 195.6692091495397676
    DFT Exchange-Correlation Energy =     -20.3033504303711325
    Empirical Dispersion Energy =           0.0000000000000000
    VV10 Nonlocal Energy =                  0.0000000000000000
    Total Energy =                       -157.8130715787342240

  UHF NO Occupations:
  HONO-2 :    9 Ap 1.9996026
  HONO-1 :   10 Ap 1.9989734
  HONO-0 :   11 Ap 1.0000000
  LUNO+0 :   12 Ap 0.0010266
  LUNO+1 :   13 Ap 0.0003974
  LUNO+2 :   14 Ap 0.0002002
  LUNO+3 :    7App 0.0001993

Computation Completed

Properties will be evaluated at   0.000000,   0.000000,   0.000000 [a0]

Properties computed using the SCF density matrix

  Nuclear Dipole Moment: [e a0]
     X:     0.8270      Y:    -0.0031      Z:     0.0000

  Electronic Dipole Moment: [e a0]
     X:    -0.7483      Y:     0.0030      Z:     0.0000

  Dipole Moment: [e a0]
     X:     0.0788      Y:    -0.0001      Z:     0.0000     Total:     0.0788

  Dipole Moment: [D]
     X:     0.2002      Y:    -0.0001      Z:     0.0000     Total:     0.2002

*** tstop() called on n066 at Fri Nov  5 11:56:51 2021
Module time:
	user time   =     539.99 seconds =       9.00 minutes
	system time =      11.62 seconds =       0.19 minutes
	total time  =        138 seconds =       2.30 minutes
Total time:
	user time   =     539.99 seconds =       9.00 minutes
	system time =      11.62 seconds =       0.19 minutes
	total time  =        138 seconds =       2.30 minutes
Grab this energy -157.81307157873422
    Psi4 stopped on: Friday, 05 November 2021 11:56AM
    Psi4 wall time for execution: 0:02:18.76

*** Psi4 exiting successfully. Buy a developer a beer!
