                               Psi4 1.4a2.dev629

  ==> Input File <==

--------------------------------------------------------------------------
import os
memory 14 GB

molecule {
 C   -0.3223159573   -0.0000016733   -0.0002444443
 C    0.0612389847   -1.4009180343   -2.4263012048
 C    0.0620797713    2.8016061964    0.0001502308
 C    0.0631616532   -1.4006824432    2.4261937648
 H    2.0808109369   -1.6420548720   -2.8420523138
 H   -0.7653844366   -0.3870675764   -4.0289516387
 H   -0.7665122679   -3.2957953677   -2.3512407603
 H    2.0834861216    3.2876819130    0.0018531720
 H   -0.7656561351    3.6819270692    1.6782786915
 H   -0.7637251614    3.6790870646   -1.6794233678
 H    2.0864286210   -1.6457209718    2.8521086894
 H   -0.7627085946   -3.2925261571    2.3448267787
 H   -0.7635114127   -0.3855594611    4.0248024024
units bohr
0 2
}

basis {

assign 6-31g_2dfp_

[ 6-31g_2dfp_ ]

spherical

!----------------------------------------------------------------------
! Basis Set Exchange
! Version v0.8.13
! https://www.basissetexchange.org
!----------------------------------------------------------------------
!   Basis set: 6-31G(2df,p)
! Description: 6-31G(2df,p)
!        Role: orbital
!     Version: 0  (Data from the original Basis Set Exchange)
!----------------------------------------------------------------------

****
H     0
S    3   1.00
     18.7311370              0.03349460
      2.8253937              0.23472695
      0.6401217              0.81375733
S    1   1.00
      0.1612778              1.00000000
P    1   1.00
      1.5000000              1.0000000
P    1   1.00
      0.3750000              1.0000000
****
B     0
S    6   1.00
   2068.8823000              0.0018663
    310.6495700              0.0142515
     70.6830330              0.0695516
     19.8610800              0.2325729
      6.2993048              0.4670787
      2.1270270              0.3634314
SP   3   1.00
      4.7279710             -0.1303938              0.0745976
      1.1903377             -0.1307889              0.3078467
      0.3594117              1.1309444              0.7434568
SP   1   1.00
      0.1267512              1.0000000              1.0000000
D    1   1.00
      0.8020000              1.0000000
D    1   1.00
      0.2005000              1.0000000
F    1   1.00
      0.5000000              1.0000000
****
C     0
S    6   1.00
   3047.5249000              0.0018347
    457.3695100              0.0140373
    103.9486900              0.0688426
     29.2101550              0.2321844
      9.2866630              0.4679413
      3.1639270              0.3623120
SP   3   1.00
      7.8682724             -0.1193324              0.0689991
      1.8812885             -0.1608542              0.3164240
      0.5442493              1.1434564              0.7443083
SP   1   1.00
      0.1687144              1.0000000              1.0000000
D    1   1.00
      1.2520000              1.0000000
D    1   1.00
      0.3130000              1.0000000
F    1   1.00
      0.8000000              1.0000000
****
N     0
S    6   1.00
   4173.5110000              0.0018348
    627.4579000              0.0139950
    142.9021000              0.0685870
     40.2343300              0.2322410
     12.8202100              0.4690700
      4.3904370              0.3604550
SP   3   1.00
     11.6263580             -0.1149610              0.0675800
      2.7162800             -0.1691180              0.3239070
      0.7722180              1.1458520              0.7408950
SP   1   1.00
      0.2120313              1.0000000              1.0000000
D    1   1.00
      1.8260000              1.0000000
D    1   1.00
      0.4565000              1.0000000
F    1   1.00
      1.0000000              1.0000000
****
O     0
S    6   1.00
   5484.6717000              0.0018311
    825.2349500              0.0139501
    188.0469600              0.0684451
     52.9645000              0.2327143
     16.8975700              0.4701930
      5.7996353              0.3585209
SP   3   1.00
     15.5396160             -0.1107775              0.0708743
      3.5999336             -0.1480263              0.3397528
      1.0137618              1.1307670              0.7271586
SP   1   1.00
      0.2700058              1.0000000              1.0000000
D    1   1.00
      2.5840000              1.0000000
D    1   1.00
      0.6460000              1.0000000
F    1   1.00
      1.4000000              1.0000000
****
F     0
S    6   1.00
   7001.7130900              0.0018196169
   1051.3660900              0.0139160796
    239.2856900              0.0684053245
     67.3974453              0.233185760
     21.5199573              0.471267439
      7.40310130             0.356618546
SP   3   1.00
     20.8479528             -0.108506975            0.0716287243
      4.80830834            -0.146451658            0.3459121030
      1.34406986             1.128688580            0.7224699570
SP   1   1.00
      0.358151393            1.0000000              1.0000000
D    1   1.00
      3.5000000              1.0000000
D    1   1.00
      0.8750000              1.0000000
F    1   1.00
      1.8500000              1.0000000
****
Al     0
S    6   1.00
  13983.1000000              0.00194267
   2098.7500000              0.0148599
    477.7050000              0.0728494
    134.3600000              0.2468300
     42.8709000              0.4872580
     14.5189000              0.3234960
SP   6   1.00
    239.6680000             -0.00292619             0.00460285
     57.4419000             -0.0374080              0.0331990
     18.2859000             -0.1144870              0.1362820
      6.5991400              0.1156350              0.3304760
      2.4904900              0.6125950              0.4491460
      0.9445400              0.3937990              0.2657040
SP   3   1.00
      1.2779000             -0.2276060             -0.0175130
      0.3975900              0.00144583             0.2445330
      0.1600950              1.0927900              0.8049340
SP   1   1.00
      0.0556577              1.0000000              1.0000000
D    1   1.00
      0.6500000              1.0000000
D    1   1.00
      0.1625000              1.0000000
F    1   1.00
      0.2500000              1.0000000
****
Si     0
S    6   1.00
  16115.9000000              0.00195948
   2425.5800000              0.01492880
    553.8670000              0.07284780
    156.3400000              0.24613000
     50.0683000              0.48591400
     17.0178000              0.32500200
SP   6   1.00
    292.7180000             -0.00278094             0.00443826
     69.8731000             -0.03571460             0.03266790
     22.3363000             -0.11498500             0.13472100
      8.1503900              0.09356340             0.32867800
      3.1345800              0.60301700             0.44964000
      1.2254300              0.41895900             0.26137200
SP   3   1.00
      1.7273800             -0.24463000            -0.01779510
      0.5729220              0.00431572             0.25353900
      0.2221920              1.09818000             0.80066900
SP   1   1.00
      0.0778369              1.00000000             1.00000000
D    1   1.00
      0.9000000              1.0000000
D    1   1.00
      0.2250000              1.0000000
F    1   1.00
      0.3200000              1.0000000
****
P     0
S    6   1.00
  19413.3000000              0.0018516
   2909.4200000              0.0142062
    661.3640000              0.0699995
    185.7590000              0.2400790
     59.1943000              0.4847620
     20.0310000              0.3352000
SP   6   1.00
    339.4780000             -0.00278217             0.00456462
     81.0101000             -0.0360499              0.03369360
     25.8780000             -0.1166310              0.13975500
      9.4522100              0.0968328              0.33936200
      3.6656600              0.6144180              0.45092100
      1.4674600              0.4037980              0.23858600
SP   3   1.00
      2.1562300             -0.2529230             -0.01776530
      0.7489970              0.0328517              0.27405800
      0.2831450              1.0812500              0.78542100
SP   1   1.00
      0.0998317              1.0000000              1.00000000
D    1   1.00
      1.1000000              1.0000000
D    1   1.00
      0.2750000              1.0000000
F    1   1.00
      0.4500000              1.0000000
****
S     0
S    6   1.00
  21917.1000000              0.0018690
   3301.4900000              0.0142300
    754.1460000              0.0696960
    212.7110000              0.2384870
     67.9896000              0.4833070
     23.0515000              0.3380740
SP   6   1.00
    423.7350000             -0.0023767              0.0040610
    100.7100000             -0.0316930              0.0306810
     32.1599000             -0.1133170              0.1304520
     11.8079000              0.0560900              0.3272050
      4.6311000              0.5922550              0.4528510
      1.8702500              0.4550060              0.2560420
SP   3   1.00
      2.6158400             -0.2503740             -0.0145110
      0.9221670              0.0669570              0.3102630
      0.3412870              1.0545100              0.7544830
SP   1   1.00
      0.1171670              1.0000000              1.0000000
D    1   1.00
      1.3000000              1.0000000
D    1   1.00
      0.3250000              1.0000000
F    1   1.00
      0.5500000              1.0000000
****
Cl     0
S    6   1.00
  25180.1000000              0.0018330
   3780.3500000              0.0140340
    860.4740000              0.0690970
    242.1450000              0.2374520
     77.3349000              0.4830340
     26.2470000              0.3398560
SP   6   1.00
    491.7650000             -0.0022974              0.0039894
    116.9840000             -0.0307140              0.0303180
     37.4153000             -0.1125280              0.1298800
     13.7834000              0.0450160              0.3279510
      5.4521500              0.5893530              0.4535270
      2.2258800              0.4652060              0.2521540
SP   3   1.00
      3.1864900             -0.2518300             -0.0142990
      1.1442700              0.0615890              0.3235720
      0.4203770              1.0601800              0.7435070
SP   1   1.00
      0.1426570              1.0000000              1.0000000
D    1   1.00
      1.5000000              1.0000000
D    1   1.00
      0.3750000              1.0000000
F    1   1.00
      0.7000000              1.0000000
****
}

set {
reference uhf
freeze_core true
e_convergence 10
d_convergence 10
dft_spherical_points 1202
dft_radial_points 99
}

e = energy('b3lyp')

print_out('Grab this energy {0}'.format(e))
--------------------------------------------------------------------------

    Molecular point group: c1

    Geometry (in Bohr), charge = 0, multiplicity = 2:

       Center              X                  Y                   Z               Mass
    ------------   -----------------  -----------------  -----------------  -----------------
         C           -0.323125762096    -0.000002023148    -0.000205604382    12.000000000000
         C            0.060429179904    -1.400918384148    -2.426262364882    12.000000000000
         C            0.061269966504     2.801605846552     0.000189070718    12.000000000000
         C            0.062351848404    -1.400682793048     2.426232604718    12.000000000000
         H            2.080001132104    -1.642055221848    -2.842013473882     1.007825032230
         H           -0.766194241396    -0.387067926248    -4.028912798782     1.007825032230
         H           -0.767322072696    -3.295795717548    -2.351201920382     1.007825032230
         H            2.082676316804     3.287681563152     0.001892011918     1.007825032230
         H           -0.766465939896     3.681926719352     1.678317531418     1.007825032230
         H           -0.764534966196     3.679086714752    -1.679384527882     1.007825032230
         H            2.085618816204    -1.645721321648     2.852147529318     1.007825032230
         H           -0.763518399396    -3.292526506948     2.344865618618     1.007825032230
         H           -0.764321217496    -0.385559810948     4.024841242318     1.007825032230

  Charge       = 0
  Multiplicity = 2
  Basis Set: ANONYMOUS425393A9
    Blend: 6-31G_2DFP_
  Basis Set: (ANONYMOUS425393A9 AUX)
    Blend: DEF2-UNIVERSAL-JKFIT

    Orbital Energies [Eh]
    ---------------------

    Alpha Occupied:

       1A    -10.180284     2A    -10.167047     3A    -10.167017
       4A    -10.166971     5A     -0.797804     6A     -0.686225
       7A     -0.686164     8A     -0.530787     9A     -0.441221
      10A     -0.434714    11A     -0.434543    12A     -0.382958
      13A     -0.382509    14A     -0.363432    15A     -0.338099
      16A     -0.337792    17A     -0.168924

    Alpha Virtual:

      18A      0.075987    19A      0.134099    20A      0.134195
      21A      0.142359    22A      0.142765    23A      0.155046
      24A      0.178815    25A      0.179094    26A      0.203592
      27A      0.214528    28A      0.275990    29A      0.276031
      30A      0.399222    31A      0.399473    32A      0.403428
      33A      0.423806    34A      0.424012    35A      0.456671
      36A      0.495199    37A      0.495221    38A      0.512280
      39A      0.514135    40A      0.578843    41A      0.579109
      42A      0.591632    43A      0.592156    44A      0.603353
      45A      0.624262    46A      0.631363    47A      0.635670
      48A      0.636106    49A      0.663874    50A      0.663945
      51A      0.683491    52A      0.683716    53A      0.734932
      54A      0.825378    55A      0.825498    56A      0.854195
      57A      0.914928    58A      0.915564    59A      0.943823
      60A      0.944469    61A      0.961325    62A      0.961484
      63A      1.003638    64A      1.127458    65A      1.128263
      66A      1.142924    67A      1.162849    68A      1.163168
      69A      1.222912    70A      1.274621    71A      1.274829
      72A      1.279531    73A      1.324485    74A      1.324641
      75A      1.355438    76A      1.366109    77A      1.366138
      78A      1.392498    79A      1.404596    80A      1.405532
      81A      1.415779    82A      1.416498    83A      1.428137
      84A      1.491521    85A      1.500014    86A      1.543197
      87A      1.543225    88A      1.573591    89A      1.574570
      90A      1.668564    91A      1.740169    92A      1.740357
      93A      1.770181    94A      1.829574    95A      1.830430
      96A      1.970703    97A      2.018398    98A      2.018866
      99A      2.019020   100A      2.053543   101A      2.054485
     102A      2.738157   103A      2.738183   104A      2.791320
     105A      2.810972   106A      2.890152   107A      2.890478
     108A      2.895309   109A      2.928981   110A      2.929595
     111A      2.959128   112A      2.964625   113A      2.964990
     114A      3.034704   115A      3.070675   116A      3.071960
     117A      3.082956   118A      3.168681   119A      3.169140
     120A      3.180634   121A      3.285296   122A      3.285531
     123A      3.325663   124A      3.327411   125A      3.375437
     126A      3.489328   127A      3.491461   128A      3.515221
     129A      3.524149   130A      3.568626   131A      3.568814
     132A      3.576119   133A      3.666314   134A      3.667185
     135A      3.679055   136A      3.693279   137A      3.694584
     138A      3.776312   139A      3.776450   140A      3.789956
     141A      3.911551   142A      3.911797   143A      4.033978
     144A      4.111282   145A      4.111518   146A      4.148653
     147A      4.148715   148A      4.174918   149A      4.201742
     150A      4.202350   151A      4.203203   152A      4.211971
     153A      4.316257   154A      4.316605   155A      4.357765
     156A      4.425133   157A      4.425263   158A      4.443180
     159A      4.516847   160A      4.518123   161A      4.577566
     162A      4.577627   163A      4.617678   164A      4.709955
     165A      4.773888   166A      4.775100   167A      4.835546
     168A      4.962561   169A      5.003711   170A      5.004804
     171A      5.230820   172A      5.243271   173A      5.244353
     174A      5.357475   175A      5.357530   176A      5.477398

    Beta Occupied:

       1A    -10.167798     2A    -10.167772     3A    -10.167740
       4A    -10.166456     5A     -0.781123     6A     -0.684010
       7A     -0.683959     8A     -0.511709     9A     -0.431072
      10A     -0.430878    11A     -0.421978    12A     -0.377075
      13A     -0.376613    14A     -0.362407    15A     -0.333214
      16A     -0.332930

    Beta Virtual:

      17A     -0.025616    18A      0.076980    19A      0.134927
      20A      0.135012    21A      0.144275    22A      0.144635
      23A      0.163485    24A      0.182511    25A      0.182798
      26A      0.214765    27A      0.218975    28A      0.282328
      29A      0.282379    30A      0.400393    31A      0.400636
      32A      0.419779    33A      0.426616    34A      0.426825
      35A      0.468678    36A      0.497450    37A      0.497475
      38A      0.514007    39A      0.556517    40A      0.584360
      41A      0.584636    42A      0.597819    43A      0.598350
      44A      0.610632    45A      0.627779    46A      0.631529
      47A      0.638992    48A      0.639424    49A      0.667398
      50A      0.667487    51A      0.686155    52A      0.686348
      53A      0.757459    54A      0.830528    55A      0.830642
      56A      0.855540    57A      0.922908    58A      0.923492
      59A      0.945670    60A      0.953346    61A      0.966679
      62A      0.966812    63A      1.008918    64A      1.131495
      65A      1.132209    66A      1.156215    67A      1.167916
      68A      1.168303    69A      1.231900    70A      1.280256
      71A      1.280437    72A      1.285340    73A      1.329422
      74A      1.329588    75A      1.364861    76A      1.371274
      77A      1.371337    78A      1.393540    79A      1.408108
      80A      1.409048    81A      1.420865    82A      1.421580
      83A      1.428408    84A      1.492595    85A      1.510446
      86A      1.547483    87A      1.547698    88A      1.581389
      89A      1.582548    90A      1.673361    91A      1.745939
      92A      1.746121    93A      1.780972    94A      1.833433
      95A      1.834279    96A      1.971577    97A      2.025430
      98A      2.025542    99A      2.039774   100A      2.060124
     101A      2.061092   102A      2.746472   103A      2.746521
     104A      2.811382   105A      2.816494   106A      2.902856
     107A      2.903230   108A      2.925185   109A      2.931473
     110A      2.932064   111A      2.960198   112A      2.969203
     113A      2.969567   114A      3.042427   115A      3.080554
     116A      3.081926   117A      3.084773   118A      3.184417
     119A      3.184880   120A      3.188323   121A      3.290026
     122A      3.290336   123A      3.329515   124A      3.331241
     125A      3.383281   126A      3.492121   127A      3.494209
     128A      3.513587   129A      3.527208   130A      3.575714
     131A      3.581863   132A      3.582179   133A      3.671176
     134A      3.672021   135A      3.692365   136A      3.725163
     137A      3.725969   138A      3.780935   139A      3.781021
     140A      3.818460   141A      3.921304   142A      3.921562
     143A      4.044804   144A      4.118119   145A      4.118307
     146A      4.155789   147A      4.156009   148A      4.188949
     149A      4.207694   150A      4.208323   151A      4.210962
     152A      4.216322   153A      4.323787   154A      4.324077
     155A      4.361170   156A      4.433339   157A      4.433490
     158A      4.446111   159A      4.524611   160A      4.525871
     161A      4.588194   162A      4.588285   163A      4.624964
     164A      4.720181   165A      4.780862   166A      4.782134
     167A      4.838475   168A      4.967345   169A      5.007740
     170A      5.008803   171A      5.236570   172A      5.245071
     173A      5.246149   174A      5.363988   175A      5.364031
     176A      5.479732

    Final Occupation by Irrep:
              A
    DOCC [    16 ]
    SOCC [     1 ]

  @DF-UKS Final Energy:  -157.81305372636064

   => Energetics <=

    Nuclear Repulsion Energy =            125.4000177586166416
    One-Electron Energy =                -458.7596735810343489
    Two-Electron Energy =                 195.8538599721819082
    DFT Exchange-Correlation Energy =     -20.3072578761248117
    Empirical Dispersion Energy =           0.0000000000000000
    VV10 Nonlocal Energy =                  0.0000000000000000
    Total Energy =                       -157.8130537263606357

  UHF NO Occupations:
  HONO-2 :   15  A 1.9996032
  HONO-1 :   16  A 1.9989813
  HONO-0 :   17  A 1.0000000
  LUNO+0 :   18  A 0.0010187
  LUNO+1 :   19  A 0.0003968
  LUNO+2 :   20  A 0.0001977
  LUNO+3 :   21  A 0.0001974

Computation Completed

Properties will be evaluated at   0.000000,   0.000000,   0.000000 [a0]

Properties computed using the SCF density matrix

  Nuclear Dipole Moment: [e a0]
     X:     0.8215      Y:    -0.0000      Z:     0.0003

  Electronic Dipole Moment: [e a0]
     X:    -0.7404      Y:     0.0000      Z:    -0.0010

  Dipole Moment: [e a0]
     X:     0.0811      Y:     0.0000      Z:    -0.0008     Total:     0.0811

  Dipole Moment: [D]
     X:     0.2061      Y:     0.0000      Z:    -0.0019     Total:     0.2061

*** tstop() called on n056 at Fri Nov  5 14:49:13 2021
Module time:
	user time   =     509.10 seconds =       8.48 minutes
	system time =      11.26 seconds =       0.19 minutes
	total time  =        131 seconds =       2.18 minutes
Total time:
	user time   =     509.10 seconds =       8.48 minutes
	system time =      11.26 seconds =       0.19 minutes
	total time  =        131 seconds =       2.18 minutes
Grab this energy -157.81305372636064
    Psi4 stopped on: Friday, 05 November 2021 02:49PM
    Psi4 wall time for execution: 0:02:10.91

*** Psi4 exiting successfully. Buy a developer a beer!
