                               Psi4 1.4a2.dev629

  ==> Input File <==

--------------------------------------------------------------------------
import os
memory 14 GB

molecule {
 C   -0.3233383085   -0.0004969362    0.0053445584
 C    0.0613162676   -1.4015732532   -2.4264167848
 C    0.0609230569    2.8008983575    0.0011077910
 C    0.0610608760   -1.4006660507    2.4270553217
 H    2.0846403662   -1.6440264838   -2.8483708556
 H   -0.7638692520   -0.3903536816   -4.0257670713
 H   -0.7650253200   -3.2891905993   -2.3501474286
 H    2.0909795265    3.2876019076   -0.0010033231
 H   -0.7686608918    3.6799101822    1.6798100186
 H   -0.7669822570    3.6816249551   -1.6812771097
 H    2.0850529977   -1.6443719226    2.8469688468
 H   -0.7640956340   -3.2901224637    2.3489428857
 H   -0.7646093044   -0.3892583250    4.0237531510
units bohr
0 2
}

basis {

assign 6-31g_2dfp_

[ 6-31g_2dfp_ ]

spherical

!----------------------------------------------------------------------
! Basis Set Exchange
! Version v0.8.13
! https://www.basissetexchange.org
!----------------------------------------------------------------------
!   Basis set: 6-31G(2df,p)
! Description: 6-31G(2df,p)
!        Role: orbital
!     Version: 0  (Data from the original Basis Set Exchange)
!----------------------------------------------------------------------

****
H     0
S    3   1.00
     18.7311370              0.03349460
      2.8253937              0.23472695
      0.6401217              0.81375733
S    1   1.00
      0.1612778              1.00000000
P    1   1.00
      1.5000000              1.0000000
P    1   1.00
      0.3750000              1.0000000
****
B     0
S    6   1.00
   2068.8823000              0.0018663
    310.6495700              0.0142515
     70.6830330              0.0695516
     19.8610800              0.2325729
      6.2993048              0.4670787
      2.1270270              0.3634314
SP   3   1.00
      4.7279710             -0.1303938              0.0745976
      1.1903377             -0.1307889              0.3078467
      0.3594117              1.1309444              0.7434568
SP   1   1.00
      0.1267512              1.0000000              1.0000000
D    1   1.00
      0.8020000              1.0000000
D    1   1.00
      0.2005000              1.0000000
F    1   1.00
      0.5000000              1.0000000
****
C     0
S    6   1.00
   3047.5249000              0.0018347
    457.3695100              0.0140373
    103.9486900              0.0688426
     29.2101550              0.2321844
      9.2866630              0.4679413
      3.1639270              0.3623120
SP   3   1.00
      7.8682724             -0.1193324              0.0689991
      1.8812885             -0.1608542              0.3164240
      0.5442493              1.1434564              0.7443083
SP   1   1.00
      0.1687144              1.0000000              1.0000000
D    1   1.00
      1.2520000              1.0000000
D    1   1.00
      0.3130000              1.0000000
F    1   1.00
      0.8000000              1.0000000
****
N     0
S    6   1.00
   4173.5110000              0.0018348
    627.4579000              0.0139950
    142.9021000              0.0685870
     40.2343300              0.2322410
     12.8202100              0.4690700
      4.3904370              0.3604550
SP   3   1.00
     11.6263580             -0.1149610              0.0675800
      2.7162800             -0.1691180              0.3239070
      0.7722180              1.1458520              0.7408950
SP   1   1.00
      0.2120313              1.0000000              1.0000000
D    1   1.00
      1.8260000              1.0000000
D    1   1.00
      0.4565000              1.0000000
F    1   1.00
      1.0000000              1.0000000
****
O     0
S    6   1.00
   5484.6717000              0.0018311
    825.2349500              0.0139501
    188.0469600              0.0684451
     52.9645000              0.2327143
     16.8975700              0.4701930
      5.7996353              0.3585209
SP   3   1.00
     15.5396160             -0.1107775              0.0708743
      3.5999336             -0.1480263              0.3397528
      1.0137618              1.1307670              0.7271586
SP   1   1.00
      0.2700058              1.0000000              1.0000000
D    1   1.00
      2.5840000              1.0000000
D    1   1.00
      0.6460000              1.0000000
F    1   1.00
      1.4000000              1.0000000
****
F     0
S    6   1.00
   7001.7130900              0.0018196169
   1051.3660900              0.0139160796
    239.2856900              0.0684053245
     67.3974453              0.233185760
     21.5199573              0.471267439
      7.40310130             0.356618546
SP   3   1.00
     20.8479528             -0.108506975            0.0716287243
      4.80830834            -0.146451658            0.3459121030
      1.34406986             1.128688580            0.7224699570
SP   1   1.00
      0.358151393            1.0000000              1.0000000
D    1   1.00
      3.5000000              1.0000000
D    1   1.00
      0.8750000              1.0000000
F    1   1.00
      1.8500000              1.0000000
****
Al     0
S    6   1.00
  13983.1000000              0.00194267
   2098.7500000              0.0148599
    477.7050000              0.0728494
    134.3600000              0.2468300
     42.8709000              0.4872580
     14.5189000              0.3234960
SP   6   1.00
    239.6680000             -0.00292619             0.00460285
     57.4419000             -0.0374080              0.0331990
     18.2859000             -0.1144870              0.1362820
      6.5991400              0.1156350              0.3304760
      2.4904900              0.6125950              0.4491460
      0.9445400              0.3937990              0.2657040
SP   3   1.00
      1.2779000             -0.2276060             -0.0175130
      0.3975900              0.00144583             0.2445330
      0.1600950              1.0927900              0.8049340
SP   1   1.00
      0.0556577              1.0000000              1.0000000
D    1   1.00
      0.6500000              1.0000000
D    1   1.00
      0.1625000              1.0000000
F    1   1.00
      0.2500000              1.0000000
****
Si     0
S    6   1.00
  16115.9000000              0.00195948
   2425.5800000              0.01492880
    553.8670000              0.07284780
    156.3400000              0.24613000
     50.0683000              0.48591400
     17.0178000              0.32500200
SP   6   1.00
    292.7180000             -0.00278094             0.00443826
     69.8731000             -0.03571460             0.03266790
     22.3363000             -0.11498500             0.13472100
      8.1503900              0.09356340             0.32867800
      3.1345800              0.60301700             0.44964000
      1.2254300              0.41895900             0.26137200
SP   3   1.00
      1.7273800             -0.24463000            -0.01779510
      0.5729220              0.00431572             0.25353900
      0.2221920              1.09818000             0.80066900
SP   1   1.00
      0.0778369              1.00000000             1.00000000
D    1   1.00
      0.9000000              1.0000000
D    1   1.00
      0.2250000              1.0000000
F    1   1.00
      0.3200000              1.0000000
****
P     0
S    6   1.00
  19413.3000000              0.0018516
   2909.4200000              0.0142062
    661.3640000              0.0699995
    185.7590000              0.2400790
     59.1943000              0.4847620
     20.0310000              0.3352000
SP   6   1.00
    339.4780000             -0.00278217             0.00456462
     81.0101000             -0.0360499              0.03369360
     25.8780000             -0.1166310              0.13975500
      9.4522100              0.0968328              0.33936200
      3.6656600              0.6144180              0.45092100
      1.4674600              0.4037980              0.23858600
SP   3   1.00
      2.1562300             -0.2529230             -0.01776530
      0.7489970              0.0328517              0.27405800
      0.2831450              1.0812500              0.78542100
SP   1   1.00
      0.0998317              1.0000000              1.00000000
D    1   1.00
      1.1000000              1.0000000
D    1   1.00
      0.2750000              1.0000000
F    1   1.00
      0.4500000              1.0000000
****
S     0
S    6   1.00
  21917.1000000              0.0018690
   3301.4900000              0.0142300
    754.1460000              0.0696960
    212.7110000              0.2384870
     67.9896000              0.4833070
     23.0515000              0.3380740
SP   6   1.00
    423.7350000             -0.0023767              0.0040610
    100.7100000             -0.0316930              0.0306810
     32.1599000             -0.1133170              0.1304520
     11.8079000              0.0560900              0.3272050
      4.6311000              0.5922550              0.4528510
      1.8702500              0.4550060              0.2560420
SP   3   1.00
      2.6158400             -0.2503740             -0.0145110
      0.9221670              0.0669570              0.3102630
      0.3412870              1.0545100              0.7544830
SP   1   1.00
      0.1171670              1.0000000              1.0000000
D    1   1.00
      1.3000000              1.0000000
D    1   1.00
      0.3250000              1.0000000
F    1   1.00
      0.5500000              1.0000000
****
Cl     0
S    6   1.00
  25180.1000000              0.0018330
   3780.3500000              0.0140340
    860.4740000              0.0690970
    242.1450000              0.2374520
     77.3349000              0.4830340
     26.2470000              0.3398560
SP   6   1.00
    491.7650000             -0.0022974              0.0039894
    116.9840000             -0.0307140              0.0303180
     37.4153000             -0.1125280              0.1298800
     13.7834000              0.0450160              0.3279510
      5.4521500              0.5893530              0.4535270
      2.2258800              0.4652060              0.2521540
SP   3   1.00
      3.1864900             -0.2518300             -0.0142990
      1.1442700              0.0615890              0.3235720
      0.4203770              1.0601800              0.7435070
SP   1   1.00
      0.1426570              1.0000000              1.0000000
D    1   1.00
      1.5000000              1.0000000
D    1   1.00
      0.3750000              1.0000000
F    1   1.00
      0.7000000              1.0000000
****
}

set {
reference uhf
freeze_core true
e_convergence 10
d_convergence 10
dft_spherical_points 1202
dft_radial_points 99
}

e = energy('b3lyp')

print_out('Grab this energy {0}'.format(e))
--------------------------------------------------------------------------

    Molecular point group: c1

    Geometry (in Bohr), charge = 0, multiplicity = 2:

       Center              X                  Y                   Z               Mass
    ------------   -----------------  -----------------  -----------------  -----------------
         C           -0.323338669992    -0.000142517410     0.003978802624    12.000000000000
         C            0.061315906108    -1.401218834410    -2.427782540576    12.000000000000
         C            0.060922695408     2.801252776290    -0.000257964776    12.000000000000
         C            0.061060514508    -1.400311631910     2.425689565924    12.000000000000
         H            2.084640004708    -1.643672065010    -2.849736611376     1.007825032230
         H           -0.763869613492    -0.389999262810    -4.027132827076     1.007825032230
         H           -0.765025681492    -3.288836180510    -2.351513184376     1.007825032230
         H            2.090979165008     3.287956326390    -0.002369078876     1.007825032230
         H           -0.768661253292     3.680264600990     1.678444262824     1.007825032230
         H           -0.766982618492     3.681979373890    -1.682642865476     1.007825032230
         H            2.085052636208    -1.644017503810     2.845603091024     1.007825032230
         H           -0.764095995492    -3.289768044910     2.347577129924     1.007825032230
         H           -0.764609665892    -0.388903906210     4.022387395224     1.007825032230

  Charge       = 0
  Multiplicity = 2
  Basis Set: ANONYMOUSA1FD599C
    Blend: 6-31G_2DFP_
  Basis Set: (ANONYMOUSA1FD599C AUX)
    Blend: DEF2-UNIVERSAL-JKFIT

    Orbital Energies [Eh]
    ---------------------

    Alpha Occupied:

       1A    -10.180342     2A    -10.167686     3A    -10.166712
       4A    -10.166646     5A     -0.797770     6A     -0.686558
       7A     -0.685817     8A     -0.530775     9A     -0.441132
      10A     -0.434903    11A     -0.434436    12A     -0.382849
      13A     -0.382352    14A     -0.363609    15A     -0.338519
      16A     -0.337476    17A     -0.168961

    Alpha Virtual:

      18A      0.076070    19A      0.134133    20A      0.134162
      21A      0.142430    22A      0.142836    23A      0.154875
      24A      0.178459    25A      0.179102    26A      0.203543
      27A      0.214805    28A      0.275693    29A      0.276276
      30A      0.399079    31A      0.399378    32A      0.403345
      33A      0.424001    34A      0.424193    35A      0.456592
      36A      0.495304    37A      0.495474    38A      0.512162
      39A      0.513977    40A      0.578576    41A      0.579047
      42A      0.591323    43A      0.591941    44A      0.602594
      45A      0.624754    46A      0.631686    47A      0.635940
      48A      0.636661    49A      0.663220    50A      0.663609
      51A      0.683546    52A      0.684174    53A      0.734994
      54A      0.824984    55A      0.825820    56A      0.853917
      57A      0.914906    58A      0.915139    59A      0.944130
      60A      0.944617    61A      0.960986    62A      0.961607
      63A      1.003455    64A      1.127682    65A      1.128494
      66A      1.142265    67A      1.162872    68A      1.163662
      69A      1.223328    70A      1.273992    71A      1.274988
      72A      1.279349    73A      1.323979    74A      1.324725
      75A      1.355982    76A      1.365677    77A      1.366435
      78A      1.392441    79A      1.403646    80A      1.404437
      81A      1.416669    82A      1.417549    83A      1.427928
      84A      1.491489    85A      1.499085    86A      1.542777
      87A      1.542894    88A      1.574166    89A      1.574734
      90A      1.669796    91A      1.739199    92A      1.739616
      93A      1.768324    94A      1.829831    95A      1.833023
      96A      1.971704    97A      2.017945    98A      2.018739
      99A      2.019699   100A      2.052147   101A      2.053200
     102A      2.737981   103A      2.738992   104A      2.790926
     105A      2.811426   106A      2.889290   107A      2.890565
     108A      2.894975   109A      2.929093   110A      2.929897
     111A      2.959002   112A      2.963832   113A      2.964942
     114A      3.034013   115A      3.070747   116A      3.071826
     117A      3.084379   118A      3.168578   119A      3.168932
     120A      3.180663   121A      3.285011   122A      3.285620
     123A      3.326773   124A      3.327543   125A      3.375598
     126A      3.489151   127A      3.491144   128A      3.514027
     129A      3.525350   130A      3.568151   131A      3.568580
     132A      3.575198   133A      3.665506   134A      3.667178
     135A      3.679652   136A      3.693722   137A      3.694554
     138A      3.775863   139A      3.777739   140A      3.789174
     141A      3.911565   142A      3.912871   143A      4.034419
     144A      4.110505   145A      4.112097   146A      4.145818
     147A      4.150333   148A      4.173330   149A      4.200382
     150A      4.203739   151A      4.204598   152A      4.211184
     153A      4.315082   154A      4.316846   155A      4.358953
     156A      4.424114   157A      4.424688   158A      4.443560
     159A      4.516561   160A      4.517088   161A      4.577532
     162A      4.578762   163A      4.617828   164A      4.709497
     165A      4.774024   166A      4.775194   167A      4.836862
     168A      4.962828   169A      5.002386   170A      5.003612
     171A      5.227838   172A      5.243081   173A      5.250530
     174A      5.352611   175A      5.358592   176A      5.479432

    Beta Occupied:

       1A    -10.168448     2A    -10.167465     3A    -10.167413
       4A    -10.166517     5A     -0.781095     6A     -0.684355
       7A     -0.683625     8A     -0.511746     9A     -0.431276
      10A     -0.430814    11A     -0.421820    12A     -0.376927
      13A     -0.376444    14A     -0.362592    15A     -0.333651
      16A     -0.332590

    Beta Virtual:

      17A     -0.025743    18A      0.077079    19A      0.134979
      20A      0.135097    21A      0.144330    22A      0.144677
      23A      0.163334    24A      0.182139    25A      0.182765
      26A      0.215035    27A      0.218926    28A      0.282075
      29A      0.282590    30A      0.400249    31A      0.400546
      32A      0.419791    33A      0.426808    34A      0.427007
      35A      0.468499    36A      0.497563    37A      0.497737
      38A      0.513897    39A      0.556319    40A      0.584103
      41A      0.584623    42A      0.597528    43A      0.598097
      44A      0.610013    45A      0.628129    46A      0.631884
      47A      0.639200    48A      0.639933    49A      0.666774
      50A      0.667184    51A      0.686215    52A      0.686776
      53A      0.757517    54A      0.830129    55A      0.831013
      56A      0.855271    57A      0.922851    58A      0.923135
      59A      0.945967    60A      0.953545    61A      0.966310
      62A      0.966896    63A      1.008695    64A      1.131719
      65A      1.132534    66A      1.155622    67A      1.167947
      68A      1.168733    69A      1.232300    70A      1.279637
      71A      1.280540    72A      1.285100    73A      1.328926
      74A      1.329757    75A      1.365389    76A      1.370968
      77A      1.371640    78A      1.393502    79A      1.407080
      80A      1.407930    81A      1.421690    82A      1.422627
      83A      1.428201    84A      1.492538    85A      1.509527
      86A      1.547140    87A      1.547346    88A      1.582046
      89A      1.582598    90A      1.674642    91A      1.744964
      92A      1.745379    93A      1.779100    94A      1.833713
      95A      1.836852    96A      1.972567    97A      2.024867
      98A      2.026004    99A      2.039673   100A      2.058875
     101A      2.059913   102A      2.746290   103A      2.747355
     104A      2.811838   105A      2.816061   106A      2.902113
     107A      2.903142   108A      2.924652   109A      2.931534
     110A      2.932425   111A      2.960068   112A      2.968339
     113A      2.969522   114A      3.041947   115A      3.080690
     116A      3.081664   117A      3.086235   118A      3.184196
     119A      3.184683   120A      3.188477   121A      3.289842
     122A      3.290386   123A      3.330577   124A      3.331347
     125A      3.383417   126A      3.491901   127A      3.493848
     128A      3.512397   129A      3.528394   130A      3.574948
     131A      3.581563   132A      3.581960   133A      3.670234
     134A      3.671950   135A      3.692975   136A      3.725291
     137A      3.726210   138A      3.780419   139A      3.782263
     140A      3.817686   141A      3.921394   142A      3.922682
     143A      4.045300   144A      4.117539   145A      4.118673
     146A      4.153243   147A      4.157360   148A      4.187381
     149A      4.206999   150A      4.209720   151A      4.211826
     152A      4.215678   153A      4.322565   154A      4.324237
     155A      4.362319   156A      4.432329   157A      4.432849
     158A      4.446498   159A      4.524377   160A      4.524854
     161A      4.588154   162A      4.589317   163A      4.625042
     164A      4.719843   165A      4.780934   166A      4.782191
     167A      4.839779   168A      4.967621   169A      5.006447
     170A      5.007633   171A      5.233550   172A      5.244867
     173A      5.252319   174A      5.359097   175A      5.365063
     176A      5.481753

    Final Occupation by Irrep:
              A
    DOCC [    16 ]
    SOCC [     1 ]

  @DF-UKS Final Energy:  -157.81304953044955

   => Energetics <=

    Nuclear Repulsion Energy =            125.3947381233441973
    One-Electron Energy =                -458.7490843197908248
    Two-Electron Energy =                 195.8484472727660943
    DFT Exchange-Correlation Energy =     -20.3071506067690173
    Empirical Dispersion Energy =           0.0000000000000000
    VV10 Nonlocal Energy =                  0.0000000000000000
    Total Energy =                       -157.8130495304495469

  UHF NO Occupations:
  HONO-2 :   15  A 1.9996008
  HONO-1 :   16  A 1.9989804
  HONO-0 :   17  A 1.0000000
  LUNO+0 :   18  A 0.0010196
  LUNO+1 :   19  A 0.0003992
  LUNO+2 :   20  A 0.0001986
  LUNO+3 :   21  A 0.0001965

Computation Completed

Properties will be evaluated at   0.000000,   0.000000,   0.000000 [a0]

Properties computed using the SCF density matrix

  Nuclear Dipole Moment: [e a0]
     X:     0.8272      Y:     0.0025      Z:    -0.0096

  Electronic Dipole Moment: [e a0]
     X:    -0.7493      Y:    -0.0049      Z:     0.0108

  Dipole Moment: [e a0]
     X:     0.0779      Y:    -0.0024      Z:     0.0012     Total:     0.0780

  Dipole Moment: [D]
     X:     0.1980      Y:    -0.0062      Z:     0.0031     Total:     0.1982

*** tstop() called on n061 at Fri Nov  5 13:56:51 2021
Module time:
	user time   =     540.38 seconds =       9.01 minutes
	system time =      11.99 seconds =       0.20 minutes
	total time  =        139 seconds =       2.32 minutes
Total time:
	user time   =     540.38 seconds =       9.01 minutes
	system time =      11.99 seconds =       0.20 minutes
	total time  =        139 seconds =       2.32 minutes
Grab this energy -157.81304953044955
    Psi4 stopped on: Friday, 05 November 2021 01:56PM
    Psi4 wall time for execution: 0:02:18.91

*** Psi4 exiting successfully. Buy a developer a beer!
