                               Psi4 1.4a2.dev629

  ==> Input File <==

--------------------------------------------------------------------------
import os
memory 14 GB

molecule {
 C   -0.3233398379    0.0002052053   -0.0000000000
 C    0.0609026123   -1.3996588758   -2.4258371940
 C    0.0614971320    2.8039220840   -0.0000000000
 C    0.0609026123   -1.3996588758    2.4258371940
 H    2.0873527728   -1.6415061550   -2.8493267024
 H   -0.7626879035   -0.3902146016   -4.0238781294
 H   -0.7685078562   -3.2938584939   -2.3492983116
 H    2.0859663676    3.2874330286   -0.0000000000
 H   -0.7654253946    3.6794458106    1.6775685024
 H   -0.7654253946    3.6794458106   -1.6775685024
 H    2.0873527728   -1.6415061550    2.8493267024
 H   -0.7685078562   -3.2938584939    2.3492983116
 H   -0.7626879035   -0.3902146016    4.0238781294
units bohr
0 2
}

basis {

assign 6-31g_2dfp_

[ 6-31g_2dfp_ ]

spherical

!----------------------------------------------------------------------
! Basis Set Exchange
! Version v0.8.13
! https://www.basissetexchange.org
!----------------------------------------------------------------------
!   Basis set: 6-31G(2df,p)
! Description: 6-31G(2df,p)
!        Role: orbital
!     Version: 0  (Data from the original Basis Set Exchange)
!----------------------------------------------------------------------

****
H     0
S    3   1.00
     18.7311370              0.03349460
      2.8253937              0.23472695
      0.6401217              0.81375733
S    1   1.00
      0.1612778              1.00000000
P    1   1.00
      1.5000000              1.0000000
P    1   1.00
      0.3750000              1.0000000
****
B     0
S    6   1.00
   2068.8823000              0.0018663
    310.6495700              0.0142515
     70.6830330              0.0695516
     19.8610800              0.2325729
      6.2993048              0.4670787
      2.1270270              0.3634314
SP   3   1.00
      4.7279710             -0.1303938              0.0745976
      1.1903377             -0.1307889              0.3078467
      0.3594117              1.1309444              0.7434568
SP   1   1.00
      0.1267512              1.0000000              1.0000000
D    1   1.00
      0.8020000              1.0000000
D    1   1.00
      0.2005000              1.0000000
F    1   1.00
      0.5000000              1.0000000
****
C     0
S    6   1.00
   3047.5249000              0.0018347
    457.3695100              0.0140373
    103.9486900              0.0688426
     29.2101550              0.2321844
      9.2866630              0.4679413
      3.1639270              0.3623120
SP   3   1.00
      7.8682724             -0.1193324              0.0689991
      1.8812885             -0.1608542              0.3164240
      0.5442493              1.1434564              0.7443083
SP   1   1.00
      0.1687144              1.0000000              1.0000000
D    1   1.00
      1.2520000              1.0000000
D    1   1.00
      0.3130000              1.0000000
F    1   1.00
      0.8000000              1.0000000
****
N     0
S    6   1.00
   4173.5110000              0.0018348
    627.4579000              0.0139950
    142.9021000              0.0685870
     40.2343300              0.2322410
     12.8202100              0.4690700
      4.3904370              0.3604550
SP   3   1.00
     11.6263580             -0.1149610              0.0675800
      2.7162800             -0.1691180              0.3239070
      0.7722180              1.1458520              0.7408950
SP   1   1.00
      0.2120313              1.0000000              1.0000000
D    1   1.00
      1.8260000              1.0000000
D    1   1.00
      0.4565000              1.0000000
F    1   1.00
      1.0000000              1.0000000
****
O     0
S    6   1.00
   5484.6717000              0.0018311
    825.2349500              0.0139501
    188.0469600              0.0684451
     52.9645000              0.2327143
     16.8975700              0.4701930
      5.7996353              0.3585209
SP   3   1.00
     15.5396160             -0.1107775              0.0708743
      3.5999336             -0.1480263              0.3397528
      1.0137618              1.1307670              0.7271586
SP   1   1.00
      0.2700058              1.0000000              1.0000000
D    1   1.00
      2.5840000              1.0000000
D    1   1.00
      0.6460000              1.0000000
F    1   1.00
      1.4000000              1.0000000
****
F     0
S    6   1.00
   7001.7130900              0.0018196169
   1051.3660900              0.0139160796
    239.2856900              0.0684053245
     67.3974453              0.233185760
     21.5199573              0.471267439
      7.40310130             0.356618546
SP   3   1.00
     20.8479528             -0.108506975            0.0716287243
      4.80830834            -0.146451658            0.3459121030
      1.34406986             1.128688580            0.7224699570
SP   1   1.00
      0.358151393            1.0000000              1.0000000
D    1   1.00
      3.5000000              1.0000000
D    1   1.00
      0.8750000              1.0000000
F    1   1.00
      1.8500000              1.0000000
****
Al     0
S    6   1.00
  13983.1000000              0.00194267
   2098.7500000              0.0148599
    477.7050000              0.0728494
    134.3600000              0.2468300
     42.8709000              0.4872580
     14.5189000              0.3234960
SP   6   1.00
    239.6680000             -0.00292619             0.00460285
     57.4419000             -0.0374080              0.0331990
     18.2859000             -0.1144870              0.1362820
      6.5991400              0.1156350              0.3304760
      2.4904900              0.6125950              0.4491460
      0.9445400              0.3937990              0.2657040
SP   3   1.00
      1.2779000             -0.2276060             -0.0175130
      0.3975900              0.00144583             0.2445330
      0.1600950              1.0927900              0.8049340
SP   1   1.00
      0.0556577              1.0000000              1.0000000
D    1   1.00
      0.6500000              1.0000000
D    1   1.00
      0.1625000              1.0000000
F    1   1.00
      0.2500000              1.0000000
****
Si     0
S    6   1.00
  16115.9000000              0.00195948
   2425.5800000              0.01492880
    553.8670000              0.07284780
    156.3400000              0.24613000
     50.0683000              0.48591400
     17.0178000              0.32500200
SP   6   1.00
    292.7180000             -0.00278094             0.00443826
     69.8731000             -0.03571460             0.03266790
     22.3363000             -0.11498500             0.13472100
      8.1503900              0.09356340             0.32867800
      3.1345800              0.60301700             0.44964000
      1.2254300              0.41895900             0.26137200
SP   3   1.00
      1.7273800             -0.24463000            -0.01779510
      0.5729220              0.00431572             0.25353900
      0.2221920              1.09818000             0.80066900
SP   1   1.00
      0.0778369              1.00000000             1.00000000
D    1   1.00
      0.9000000              1.0000000
D    1   1.00
      0.2250000              1.0000000
F    1   1.00
      0.3200000              1.0000000
****
P     0
S    6   1.00
  19413.3000000              0.0018516
   2909.4200000              0.0142062
    661.3640000              0.0699995
    185.7590000              0.2400790
     59.1943000              0.4847620
     20.0310000              0.3352000
SP   6   1.00
    339.4780000             -0.00278217             0.00456462
     81.0101000             -0.0360499              0.03369360
     25.8780000             -0.1166310              0.13975500
      9.4522100              0.0968328              0.33936200
      3.6656600              0.6144180              0.45092100
      1.4674600              0.4037980              0.23858600
SP   3   1.00
      2.1562300             -0.2529230             -0.01776530
      0.7489970              0.0328517              0.27405800
      0.2831450              1.0812500              0.78542100
SP   1   1.00
      0.0998317              1.0000000              1.00000000
D    1   1.00
      1.1000000              1.0000000
D    1   1.00
      0.2750000              1.0000000
F    1   1.00
      0.4500000              1.0000000
****
S     0
S    6   1.00
  21917.1000000              0.0018690
   3301.4900000              0.0142300
    754.1460000              0.0696960
    212.7110000              0.2384870
     67.9896000              0.4833070
     23.0515000              0.3380740
SP   6   1.00
    423.7350000             -0.0023767              0.0040610
    100.7100000             -0.0316930              0.0306810
     32.1599000             -0.1133170              0.1304520
     11.8079000              0.0560900              0.3272050
      4.6311000              0.5922550              0.4528510
      1.8702500              0.4550060              0.2560420
SP   3   1.00
      2.6158400             -0.2503740             -0.0145110
      0.9221670              0.0669570              0.3102630
      0.3412870              1.0545100              0.7544830
SP   1   1.00
      0.1171670              1.0000000              1.0000000
D    1   1.00
      1.3000000              1.0000000
D    1   1.00
      0.3250000              1.0000000
F    1   1.00
      0.5500000              1.0000000
****
Cl     0
S    6   1.00
  25180.1000000              0.0018330
   3780.3500000              0.0140340
    860.4740000              0.0690970
    242.1450000              0.2374520
     77.3349000              0.4830340
     26.2470000              0.3398560
SP   6   1.00
    491.7650000             -0.0022974              0.0039894
    116.9840000             -0.0307140              0.0303180
     37.4153000             -0.1125280              0.1298800
     13.7834000              0.0450160              0.3279510
      5.4521500              0.5893530              0.4535270
      2.2258800              0.4652060              0.2521540
SP   3   1.00
      3.1864900             -0.2518300             -0.0142990
      1.1442700              0.0615890              0.3235720
      0.4203770              1.0601800              0.7435070
SP   1   1.00
      0.1426570              1.0000000              1.0000000
D    1   1.00
      1.5000000              1.0000000
D    1   1.00
      0.3750000              1.0000000
F    1   1.00
      0.7000000              1.0000000
****
}

set {
reference uhf
freeze_core true
e_convergence 10
d_convergence 10
dft_spherical_points 1202
dft_radial_points 99
}

e = energy('b3lyp')

print_out('Grab this energy {0}'.format(e))
--------------------------------------------------------------------------

    Molecular point group: cs

    Geometry (in Bohr), charge = 0, multiplicity = 2:

       Center              X                  Y                   Z               Mass
    ------------   -----------------  -----------------  -----------------  -----------------
         C           -0.323340320101    -0.000720716942     0.000000000000    12.000000000000
         C            0.060902130099    -1.400584798042    -2.425837194000    12.000000000000
         C            0.061496649799     2.802996161758     0.000000000000    12.000000000000
         C            0.060902130099    -1.400584798042     2.425837194000    12.000000000000
         H            2.087352290599    -1.642432077242    -2.849326702400     1.007825032230
         H           -0.762688385701    -0.391140523842    -4.023878129400     1.007825032230
         H           -0.768508338401    -3.294784416142    -2.349298311600     1.007825032230
         H            2.085965885399     3.286507106358     0.000000000000     1.007825032230
         H           -0.765425876801     3.678519888358     1.677568502400     1.007825032230
         H           -0.765425876801     3.678519888358    -1.677568502400     1.007825032230
         H            2.087352290599    -1.642432077242     2.849326702400     1.007825032230
         H           -0.768508338401    -3.294784416142     2.349298311600     1.007825032230
         H           -0.762688385701    -0.391140523842     4.023878129400     1.007825032230

  Charge       = 0
  Multiplicity = 2
  Basis Set: ANONYMOUS38ABAC17
    Blend: 6-31G_2DFP_
  Basis Set: (ANONYMOUS38ABAC17 AUX)
    Blend: DEF2-UNIVERSAL-JKFIT

    Orbital Energies [Eh]
    ---------------------

    Alpha Occupied:

       1Ap   -10.180342     1App  -10.167047     2Ap   -10.167027
       3Ap   -10.166970     4Ap    -0.797766     2App   -0.686225
       5Ap    -0.686151     6Ap    -0.530778     7Ap    -0.441125
       8Ap    -0.434773     3App   -0.434567     9Ap    -0.382712
       4App   -0.382485     5App   -0.363609     6App   -0.338370
      10Ap    -0.337629    11Ap    -0.168961

    Alpha Virtual:

      12Ap     0.076071    13Ap     0.134056     7App    0.134247
       8App    0.142490    14Ap     0.142771    15Ap     0.154881
       9App    0.178601    16Ap     0.178954    17Ap     0.203545
      10App    0.214804    18Ap     0.275872    11App    0.276100
      19Ap     0.398971    12App    0.399488    20Ap     0.403343
      21Ap     0.423890    13App    0.424303    22Ap     0.456592
      23Ap     0.495315    14App    0.495463    15App    0.512161
      24Ap     0.513980    16App    0.578798    25Ap     0.578829
      17App    0.591431    26Ap     0.591838    27Ap     0.602572
      28Ap     0.624729    18App    0.631759    19App    0.636143
      29Ap     0.636404    20App    0.663264    30Ap     0.663562
      31Ap     0.683675    21App    0.684039    32Ap     0.734995
      22App    0.825100    33Ap     0.825715    23App    0.853915
      34Ap     0.914797    24App    0.915253    25App    0.944126
      35Ap     0.944613    36Ap     0.961248    26App    0.961335
      37Ap     1.003453    38Ap     1.127748    27App    1.128477
      39Ap     1.142215    40Ap     1.162922    28App    1.163621
      41Ap     1.223319    42Ap     1.274436    29App    1.274547
      43Ap     1.279357    30App    1.324204    44Ap     1.324497
      45Ap     1.355984    31App    1.365903    46Ap     1.366217
      32App    1.392455    33App    1.403814    47Ap     1.404250
      48Ap     1.416273    34App    1.417951    35App    1.427919
      36App    1.491494    49Ap     1.499072    50Ap     1.542741
      37App    1.542931    38App    1.574449    51Ap     1.574457
      52Ap     1.669835    39App    1.738579    53Ap     1.740236
      54Ap     1.768327    55Ap     1.831144    40App    1.831642
      41App    1.971760    56Ap     2.017524    42App    2.018999
      57Ap     2.019819    58Ap     2.052542    43App    2.052788
      44App    2.738181    59Ap     2.738789    60Ap     2.790922
      45App    2.811424    46App    2.889885    61Ap     2.890017
      62Ap     2.894947    63Ap     2.929456    47App    2.929538
      48App    2.958948    64Ap     2.964350    49App    2.964455
      65Ap     3.034006    66Ap     3.070892    50App    3.071596
      51App    3.084459    52App    3.168557    67Ap     3.168996
      68Ap     3.180590    69Ap     3.285148    53App    3.285483
      54App    3.326969    70Ap     3.327344    71Ap     3.375628
      72Ap     3.489564    55App    3.490759    56App    3.514012
      73Ap     3.525334    74Ap     3.567882    57App    3.568897
      58App    3.575123    59App    3.665258    75Ap     3.667491
      76Ap     3.679654    77Ap     3.694070    60App    3.694235
      78Ap     3.776706    61App    3.776883    79Ap     3.789125
      80Ap     3.910894    62App    3.913552    81Ap     4.034434
      63App    4.110980    82Ap     4.111738    83Ap     4.147377
      64App    4.148723    84Ap     4.173413    85Ap     4.201758
      86Ap     4.202794    65App    4.204023    66App    4.211097
      87Ap     4.314571    67App    4.317362    68App    4.358964
      88Ap     4.424074    69App    4.424697    70App    4.443576
      71App    4.516474    89Ap     4.517224    90Ap     4.578262
      72App    4.578285    91Ap     4.617530    92Ap     4.709436
      73App    4.773254    93Ap     4.775909    74App    4.836942
      94Ap     4.962828    75App    5.001876    95Ap     5.004082
      96Ap     5.227621    97Ap     5.246919    76App    5.247058
      77App    5.354300    98Ap     5.356730    78App    5.479410

    Beta Occupied:

       1App  -10.167802     1Ap   -10.167788     2Ap   -10.167734
       3Ap   -10.166519     4Ap    -0.781091     2App   -0.684024
       5Ap    -0.683957     6Ap    -0.511750     7Ap    -0.431144
       3App   -0.430939     8Ap    -0.421821     9Ap    -0.376812
       4App   -0.376555     5App   -0.362594     6App   -0.333490
      10Ap    -0.332755

    Beta Virtual:

      11Ap    -0.025743    12Ap     0.077080    13Ap     0.134901
       7App    0.135185     8App    0.144315    14Ap     0.144685
      15Ap     0.163339     9App    0.182285    16Ap     0.182612
      10App    0.215034    17Ap     0.218928    18Ap     0.282228
      11App    0.282440    19Ap     0.400139    12App    0.400658
      20Ap     0.419791    21Ap     0.426700    13App    0.427115
      22Ap     0.468500    23Ap     0.497565    14App    0.497735
      15App    0.513896    24Ap     0.556324    16App    0.584356
      25Ap     0.584373    17App    0.597587    26Ap     0.598038
      27Ap     0.609996    28Ap     0.628107    18App    0.631922
      19App    0.639437    29Ap     0.639673    20App    0.666849
      30Ap     0.667104    31Ap     0.686320    21App    0.686663
      32Ap     0.757518    22App    0.830276    33Ap     0.830876
      23App    0.855268    34Ap     0.922787    24App    0.923206
      25App    0.945962    35Ap     0.953541    36Ap     0.966533
      26App    0.966662    37Ap     1.008694    38Ap     1.131788
      27App    1.132495    39Ap     1.155586    40Ap     1.167987
      28App    1.168707    41Ap     1.232291    42Ap     1.280048
      29App    1.280130    43Ap     1.285109    30App    1.329182
      44Ap     1.329497    45Ap     1.365400    31App    1.371182
      46Ap     1.371425    32App    1.393512    33App    1.407309
      47Ap     1.407684    48Ap     1.421393    34App    1.422925
      35App    1.428198    36App    1.492544    49Ap     1.509515
      50Ap     1.547111    37App    1.547378    38App    1.582322
      51Ap     1.582324    52Ap     1.674682    39App    1.744323
      53Ap     1.746018    54Ap     1.779105    55Ap     1.834986
      40App    1.835511    41App    1.972620    56Ap     2.025395
      42App    2.025435    57Ap     2.039652    58Ap     2.059310
      43App    2.059490    44App    2.746527    59Ap     2.747114
      45App    2.811836    60Ap     2.816058    46App    2.902507
      61Ap     2.902778    62Ap     2.924644    63Ap     2.931911
      47App    2.932047    48App    2.960029    64Ap     2.968889
      49App    2.968986    65Ap     3.041941    66Ap     3.080797
      50App    3.081320    51App    3.086468    52App    3.184356
      67Ap     3.184692    68Ap     3.188276    69Ap     3.289964
      53App    3.290266    54App    3.330731    70Ap     3.331191
      71Ap     3.383446    72Ap     3.492286    55App    3.493497
      56App    3.512377    73Ap     3.528380    57App    3.574978
      74Ap     3.581126    58App    3.582340    59App    3.670106
      75Ap     3.672142    76Ap     3.692974    60App    3.725673
      77Ap     3.725867    78Ap     3.781225    61App    3.781419
      79Ap     3.817665    80Ap     3.920694    62App    3.923384
      81Ap     4.045323    63App    4.117687    82Ap     4.118662
      83Ap     4.154487    64App    4.156061    84Ap     4.187439
      85Ap     4.207805    65App    4.209898    86Ap     4.210673
      66App    4.215617    87Ap     4.322025    67App    4.324790
      68App    4.362329    88Ap     4.432303    69App    4.432834
      70App    4.446522    71App    4.524249    89Ap     4.525026
      72App    4.588871    90Ap     4.588879    91Ap     4.624721
      92Ap     4.719781    73App    4.780251    93Ap     4.782816
      74App    4.839862    94Ap     4.967624    75App    5.005932
      95Ap     5.008104    96Ap     5.233239    97Ap     5.248823
      76App    5.248823    77App    5.360809    98Ap     5.363176
      78App    5.481732

    Final Occupation by Irrep:
             Ap   App
    DOCC [    10,    6 ]
    SOCC [     1,    0 ]

  @DF-UKS Final Energy:  -157.81306146951516

   => Energetics <=

    Nuclear Repulsion Energy =            125.3946086538641396
    One-Electron Energy =                -458.7488587542119376
    Two-Electron Energy =                 195.8483336823285867
    DFT Exchange-Correlation Energy =     -20.3071450514959082
    Empirical Dispersion Energy =           0.0000000000000000
    VV10 Nonlocal Energy =                  0.0000000000000000
    Total Energy =                       -157.8130614695151621

  UHF NO Occupations:
  HONO-2 :    9 Ap 1.9996009
  HONO-1 :   10 Ap 1.9989805
  HONO-0 :   11 Ap 1.0000000
  LUNO+0 :   12 Ap 0.0010195
  LUNO+1 :   13 Ap 0.0003991
  LUNO+2 :   14 Ap 0.0001979
  LUNO+3 :    7App 0.0001972

Computation Completed

Properties will be evaluated at   0.000000,   0.000000,   0.000000 [a0]

Properties computed using the SCF density matrix

  Nuclear Dipole Moment: [e a0]
     X:     0.8272      Y:    -0.0065      Z:    -0.0000

  Electronic Dipole Moment: [e a0]
     X:    -0.7493      Y:     0.0083      Z:     0.0000

  Dipole Moment: [e a0]
     X:     0.0779      Y:     0.0018      Z:    -0.0000     Total:     0.0779

  Dipole Moment: [D]
     X:     0.1980      Y:     0.0046      Z:    -0.0000     Total:     0.1981

*** tstop() called on n073 at Fri Nov  5 12:57:45 2021
Module time:
	user time   =     572.34 seconds =       9.54 minutes
	system time =      13.21 seconds =       0.22 minutes
	total time  =        148 seconds =       2.47 minutes
Total time:
	user time   =     572.34 seconds =       9.54 minutes
	system time =      13.21 seconds =       0.22 minutes
	total time  =        148 seconds =       2.47 minutes
Grab this energy -157.81306146951516
    Psi4 stopped on: Friday, 05 November 2021 12:57PM
    Psi4 wall time for execution: 0:02:27.36

*** Psi4 exiting successfully. Buy a developer a beer!
