                               Psi4 1.4a2.dev629

  ==> Input File <==

--------------------------------------------------------------------------
import os
memory 14 GB

molecule {
 C   -0.3233405425    0.0002217241   -0.0019988160
 C    0.0610902678   -1.4002182366   -2.4272261935
 C    0.0608518055    2.7994889833   -0.0011584403
 C    0.0613569544   -1.4019474901    2.4279181035
 H    2.0871685057   -1.6403064661   -2.8446498719
 H   -0.7657686842   -0.3904890532   -4.0272740276
 H   -0.7644543721   -3.2904255768   -2.3464813535
 H    2.0867109539    3.2887916710   -0.0040934143
 H   -0.7641423789    3.6752938671    1.6771339087
 H   -0.7668828713    3.6865403431   -1.6755357311
 H    2.0867805137   -1.6478238014    2.8494851768
 H   -0.7667057426   -3.2935046129    2.3507517199
 H   -0.7652722861   -0.3856456652    4.0231289392
units bohr
0 2
}

basis {

assign 6-31g_2dfp_

[ 6-31g_2dfp_ ]

spherical

!----------------------------------------------------------------------
! Basis Set Exchange
! Version v0.8.13
! https://www.basissetexchange.org
!----------------------------------------------------------------------
!   Basis set: 6-31G(2df,p)
! Description: 6-31G(2df,p)
!        Role: orbital
!     Version: 0  (Data from the original Basis Set Exchange)
!----------------------------------------------------------------------

****
H     0
S    3   1.00
     18.7311370              0.03349460
      2.8253937              0.23472695
      0.6401217              0.81375733
S    1   1.00
      0.1612778              1.00000000
P    1   1.00
      1.5000000              1.0000000
P    1   1.00
      0.3750000              1.0000000
****
B     0
S    6   1.00
   2068.8823000              0.0018663
    310.6495700              0.0142515
     70.6830330              0.0695516
     19.8610800              0.2325729
      6.2993048              0.4670787
      2.1270270              0.3634314
SP   3   1.00
      4.7279710             -0.1303938              0.0745976
      1.1903377             -0.1307889              0.3078467
      0.3594117              1.1309444              0.7434568
SP   1   1.00
      0.1267512              1.0000000              1.0000000
D    1   1.00
      0.8020000              1.0000000
D    1   1.00
      0.2005000              1.0000000
F    1   1.00
      0.5000000              1.0000000
****
C     0
S    6   1.00
   3047.5249000              0.0018347
    457.3695100              0.0140373
    103.9486900              0.0688426
     29.2101550              0.2321844
      9.2866630              0.4679413
      3.1639270              0.3623120
SP   3   1.00
      7.8682724             -0.1193324              0.0689991
      1.8812885             -0.1608542              0.3164240
      0.5442493              1.1434564              0.7443083
SP   1   1.00
      0.1687144              1.0000000              1.0000000
D    1   1.00
      1.2520000              1.0000000
D    1   1.00
      0.3130000              1.0000000
F    1   1.00
      0.8000000              1.0000000
****
N     0
S    6   1.00
   4173.5110000              0.0018348
    627.4579000              0.0139950
    142.9021000              0.0685870
     40.2343300              0.2322410
     12.8202100              0.4690700
      4.3904370              0.3604550
SP   3   1.00
     11.6263580             -0.1149610              0.0675800
      2.7162800             -0.1691180              0.3239070
      0.7722180              1.1458520              0.7408950
SP   1   1.00
      0.2120313              1.0000000              1.0000000
D    1   1.00
      1.8260000              1.0000000
D    1   1.00
      0.4565000              1.0000000
F    1   1.00
      1.0000000              1.0000000
****
O     0
S    6   1.00
   5484.6717000              0.0018311
    825.2349500              0.0139501
    188.0469600              0.0684451
     52.9645000              0.2327143
     16.8975700              0.4701930
      5.7996353              0.3585209
SP   3   1.00
     15.5396160             -0.1107775              0.0708743
      3.5999336             -0.1480263              0.3397528
      1.0137618              1.1307670              0.7271586
SP   1   1.00
      0.2700058              1.0000000              1.0000000
D    1   1.00
      2.5840000              1.0000000
D    1   1.00
      0.6460000              1.0000000
F    1   1.00
      1.4000000              1.0000000
****
F     0
S    6   1.00
   7001.7130900              0.0018196169
   1051.3660900              0.0139160796
    239.2856900              0.0684053245
     67.3974453              0.233185760
     21.5199573              0.471267439
      7.40310130             0.356618546
SP   3   1.00
     20.8479528             -0.108506975            0.0716287243
      4.80830834            -0.146451658            0.3459121030
      1.34406986             1.128688580            0.7224699570
SP   1   1.00
      0.358151393            1.0000000              1.0000000
D    1   1.00
      3.5000000              1.0000000
D    1   1.00
      0.8750000              1.0000000
F    1   1.00
      1.8500000              1.0000000
****
Al     0
S    6   1.00
  13983.1000000              0.00194267
   2098.7500000              0.0148599
    477.7050000              0.0728494
    134.3600000              0.2468300
     42.8709000              0.4872580
     14.5189000              0.3234960
SP   6   1.00
    239.6680000             -0.00292619             0.00460285
     57.4419000             -0.0374080              0.0331990
     18.2859000             -0.1144870              0.1362820
      6.5991400              0.1156350              0.3304760
      2.4904900              0.6125950              0.4491460
      0.9445400              0.3937990              0.2657040
SP   3   1.00
      1.2779000             -0.2276060             -0.0175130
      0.3975900              0.00144583             0.2445330
      0.1600950              1.0927900              0.8049340
SP   1   1.00
      0.0556577              1.0000000              1.0000000
D    1   1.00
      0.6500000              1.0000000
D    1   1.00
      0.1625000              1.0000000
F    1   1.00
      0.2500000              1.0000000
****
Si     0
S    6   1.00
  16115.9000000              0.00195948
   2425.5800000              0.01492880
    553.8670000              0.07284780
    156.3400000              0.24613000
     50.0683000              0.48591400
     17.0178000              0.32500200
SP   6   1.00
    292.7180000             -0.00278094             0.00443826
     69.8731000             -0.03571460             0.03266790
     22.3363000             -0.11498500             0.13472100
      8.1503900              0.09356340             0.32867800
      3.1345800              0.60301700             0.44964000
      1.2254300              0.41895900             0.26137200
SP   3   1.00
      1.7273800             -0.24463000            -0.01779510
      0.5729220              0.00431572             0.25353900
      0.2221920              1.09818000             0.80066900
SP   1   1.00
      0.0778369              1.00000000             1.00000000
D    1   1.00
      0.9000000              1.0000000
D    1   1.00
      0.2250000              1.0000000
F    1   1.00
      0.3200000              1.0000000
****
P     0
S    6   1.00
  19413.3000000              0.0018516
   2909.4200000              0.0142062
    661.3640000              0.0699995
    185.7590000              0.2400790
     59.1943000              0.4847620
     20.0310000              0.3352000
SP   6   1.00
    339.4780000             -0.00278217             0.00456462
     81.0101000             -0.0360499              0.03369360
     25.8780000             -0.1166310              0.13975500
      9.4522100              0.0968328              0.33936200
      3.6656600              0.6144180              0.45092100
      1.4674600              0.4037980              0.23858600
SP   3   1.00
      2.1562300             -0.2529230             -0.01776530
      0.7489970              0.0328517              0.27405800
      0.2831450              1.0812500              0.78542100
SP   1   1.00
      0.0998317              1.0000000              1.00000000
D    1   1.00
      1.1000000              1.0000000
D    1   1.00
      0.2750000              1.0000000
F    1   1.00
      0.4500000              1.0000000
****
S     0
S    6   1.00
  21917.1000000              0.0018690
   3301.4900000              0.0142300
    754.1460000              0.0696960
    212.7110000              0.2384870
     67.9896000              0.4833070
     23.0515000              0.3380740
SP   6   1.00
    423.7350000             -0.0023767              0.0040610
    100.7100000             -0.0316930              0.0306810
     32.1599000             -0.1133170              0.1304520
     11.8079000              0.0560900              0.3272050
      4.6311000              0.5922550              0.4528510
      1.8702500              0.4550060              0.2560420
SP   3   1.00
      2.6158400             -0.2503740             -0.0145110
      0.9221670              0.0669570              0.3102630
      0.3412870              1.0545100              0.7544830
SP   1   1.00
      0.1171670              1.0000000              1.0000000
D    1   1.00
      1.3000000              1.0000000
D    1   1.00
      0.3250000              1.0000000
F    1   1.00
      0.5500000              1.0000000
****
Cl     0
S    6   1.00
  25180.1000000              0.0018330
   3780.3500000              0.0140340
    860.4740000              0.0690970
    242.1450000              0.2374520
     77.3349000              0.4830340
     26.2470000              0.3398560
SP   6   1.00
    491.7650000             -0.0022974              0.0039894
    116.9840000             -0.0307140              0.0303180
     37.4153000             -0.1125280              0.1298800
     13.7834000              0.0450160              0.3279510
      5.4521500              0.5893530              0.4535270
      2.2258800              0.4652060              0.2521540
SP   3   1.00
      3.1864900             -0.2518300             -0.0142990
      1.1442700              0.0615890              0.3235720
      0.4203770              1.0601800              0.7435070
SP   1   1.00
      0.1426570              1.0000000              1.0000000
D    1   1.00
      1.5000000              1.0000000
D    1   1.00
      0.3750000              1.0000000
F    1   1.00
      0.7000000              1.0000000
****
}

set {
reference uhf
freeze_core true
e_convergence 10
d_convergence 10
dft_spherical_points 1202
dft_radial_points 99
}

e = energy('b3lyp')

print_out('Grab this energy {0}'.format(e))
--------------------------------------------------------------------------

    Molecular point group: c1

    Geometry (in Bohr), charge = 0, multiplicity = 2:

       Center              X                  Y                   Z               Mass
    ------------   -----------------  -----------------  -----------------  -----------------
         C           -0.323340247820     0.000695007863    -0.001523972544    12.000000000000
         C            0.061090562480    -1.399744952837    -2.426751350044    12.000000000000
         C            0.060852100180     2.799962267063    -0.000683596844    12.000000000000
         C            0.061357249080    -1.401474206337     2.428392946956    12.000000000000
         H            2.087168800380    -1.639833182337    -2.844175028444     1.007825032230
         H           -0.765768389520    -0.390015769437    -4.026799184144     1.007825032230
         H           -0.764454077420    -3.289952293037    -2.346006510044     1.007825032230
         H            2.086711248580     3.289264954763    -0.003618570844     1.007825032230
         H           -0.764142084220     3.675767150863     1.677608752156     1.007825032230
         H           -0.766882576620     3.687013626863    -1.675060887644     1.007825032230
         H            2.086780808380    -1.647350517637     2.849960020256     1.007825032230
         H           -0.766705447920    -3.293031329137     2.351226563356     1.007825032230
         H           -0.765271991420    -0.385172381437     4.023603782656     1.007825032230

  Charge       = 0
  Multiplicity = 2
  Basis Set: ANONYMOUSF805BA6B
    Blend: 6-31G_2DFP_
  Basis Set: (ANONYMOUSF805BA6B AUX)
    Blend: DEF2-UNIVERSAL-JKFIT

    Orbital Energies [Eh]
    ---------------------

    Alpha Occupied:

       1A    -10.180342     2A    -10.167155     3A    -10.167056
       4A    -10.166834     5A     -0.797767     6A     -0.686311
       7A     -0.686063     8A     -0.530776     9A     -0.441129
      10A     -0.434778    11A     -0.434561    12A     -0.382694
      13A     -0.382504    14A     -0.363613    15A     -0.338215
      16A     -0.337780    17A     -0.168961

    Alpha Virtual:

      18A      0.076073    19A      0.134118    20A      0.134192
      21A      0.142538    22A      0.142716    23A      0.154880
      24A      0.178686    25A      0.178870    26A      0.203546
      27A      0.214804    28A      0.275635    29A      0.276337
      30A      0.399182    31A      0.399265    32A      0.403354
      33A      0.424028    34A      0.424169    35A      0.456593
      36A      0.495327    37A      0.495452    38A      0.512159
      39A      0.513980    40A      0.578523    41A      0.579105
      42A      0.591335    43A      0.591931    44A      0.602578
      45A      0.624758    46A      0.631773    47A      0.636085
      48A      0.636422    49A      0.663342    50A      0.663481
      51A      0.683817    52A      0.683888    53A      0.734994
      54A      0.825185    55A      0.825628    56A      0.853916
      57A      0.914880    58A      0.915159    59A      0.944123
      60A      0.944612    61A      0.960605    62A      0.961987
      63A      1.003461    64A      1.127874    65A      1.128325
      66A      1.142227    67A      1.162974    68A      1.163581
      69A      1.223326    70A      1.274152    71A      1.274810
      72A      1.279368    73A      1.324292    74A      1.324424
      75A      1.355994    76A      1.365832    77A      1.366279
      78A      1.392447    79A      1.403699    80A      1.404400
      81A      1.416684    82A      1.417539    83A      1.427922
      84A      1.491491    85A      1.499078    86A      1.542544
      87A      1.543112    88A      1.574252    89A      1.574636
      90A      1.669827    91A      1.739025    92A      1.739822
      93A      1.768311    94A      1.830695    95A      1.832108
      96A      1.971729    97A      2.017852    98A      2.018905
      99A      2.019636   100A      2.051590   101A      2.053700
     102A      2.738184   103A      2.738783   104A      2.790929
     105A      2.811416   106A      2.889634   107A      2.890237
     108A      2.894993   109A      2.929437   110A      2.929557
     111A      2.958993   112A      2.964207   113A      2.964543
     114A      3.034009   115A      3.071100   116A      3.071465
     117A      3.084352   118A      3.168502   119A      3.169047
     120A      3.180605   121A      3.285271   122A      3.285357
     123A      3.326779   124A      3.327534   125A      3.375616
     126A      3.489772   127A      3.490513   128A      3.514024
     129A      3.525308   130A      3.568036   131A      3.568676
     132A      3.575241   133A      3.665632   134A      3.667070
     135A      3.679641   136A      3.693715   137A      3.694589
     138A      3.775555   139A      3.778050   140A      3.789156
     141A      3.911443   142A      3.913025   143A      4.034449
     144A      4.110086   145A      4.112633   146A      4.147190
     147A      4.149020   148A      4.173287   149A      4.202441
     150A      4.202709   151A      4.203649   152A      4.210873
     153A      4.314867   154A      4.316990   155A      4.359033
     156A      4.423414   157A      4.425416   158A      4.443540
     159A      4.516061   160A      4.517603   161A      4.577912
     162A      4.578600   163A      4.617533   164A      4.709454
     165A      4.773418   166A      4.775734   167A      4.836969
     168A      4.962824   169A      5.002190   170A      5.003759
     171A      5.228035   172A      5.246308   173A      5.247317
     174A      5.354780   175A      5.356222   176A      5.479355

    Beta Occupied:

       1A    -10.167910     2A    -10.167819     3A    -10.167594
       4A    -10.166519     5A     -0.781092     6A     -0.684107
       7A     -0.683872     8A     -0.511748     9A     -0.431146
      10A     -0.430943    11A     -0.421818    12A     -0.376797
      13A     -0.376571    14A     -0.362596    15A     -0.333338
      16A     -0.332903

    Beta Virtual:

      17A     -0.025743    18A      0.077082    19A      0.135021
      20A      0.135069    21A      0.144419    22A      0.144576
      23A      0.163339    24A      0.182376    25A      0.182523
      26A      0.215033    27A      0.218928    28A      0.281996
      29A      0.282672    30A      0.400361    31A      0.400434
      32A      0.419790    33A      0.426839    34A      0.426982
      35A      0.468501    36A      0.497587    37A      0.497714
      38A      0.513894    39A      0.556324    40A      0.584072
      41A      0.584657    42A      0.597528    43A      0.598097
      44A      0.610000    45A      0.628134    46A      0.631930
      47A      0.639368    48A      0.639710    49A      0.666900
      50A      0.667050    51A      0.686437    52A      0.686539
      53A      0.757516    54A      0.830331    55A      0.830819
      56A      0.855269    57A      0.922884    58A      0.923096
      59A      0.945961    60A      0.953536    61A      0.965968
      62A      0.967241    63A      1.008702    64A      1.131833
      65A      1.132428    66A      1.155599    67A      1.168046
      68A      1.168656    69A      1.232298    70A      1.279747
      71A      1.280409    72A      1.285123    73A      1.329294
      74A      1.329401    75A      1.365410    76A      1.371114
      77A      1.371481    78A      1.393508    79A      1.407162
      80A      1.407865    81A      1.421741    82A      1.422576
      83A      1.428197    84A      1.492540    85A      1.509521
      86A      1.546948    87A      1.547523    88A      1.582118
      89A      1.582514    90A      1.674674    91A      1.744777
      92A      1.745592    93A      1.779091    94A      1.834559
      95A      1.835955    96A      1.972589    97A      2.024893
      98A      2.025997    99A      2.039677   100A      2.058287
     101A      2.060439   102A      2.746542   103A      2.747097
     104A      2.811829   105A      2.816062   106A      2.902421
     107A      2.902863   108A      2.924660   109A      2.931937
     110A      2.932024   111A      2.960055   112A      2.968760
     113A      2.969079   114A      3.041944   115A      3.081021
     116A      3.081360   117A      3.086173   118A      3.184205
     119A      3.184796   120A      3.188335   121A      3.290045
     122A      3.290181   123A      3.330602   124A      3.331320
     125A      3.383436   126A      3.492488   127A      3.493254
     128A      3.512393   129A      3.528361   130A      3.574904
     131A      3.581429   132A      3.582145   133A      3.670397
     134A      3.671844   135A      3.692936   136A      3.725598
     137A      3.725931   138A      3.780118   139A      3.782536
     140A      3.817703   141A      3.921314   142A      3.922787
     143A      4.045335   144A      4.116995   145A      4.119356
     146A      4.154402   147A      4.156234   148A      4.187338
     149A      4.208600   150A      4.209276   151A      4.210763
     152A      4.215352   153A      4.322267   154A      4.324462
     155A      4.362402   156A      4.431649   157A      4.433584
     158A      4.446454   159A      4.523860   160A      4.525382
     161A      4.588511   162A      4.589201   163A      4.624729
     164A      4.719799   165A      4.780416   166A      4.782642
     167A      4.839889   168A      4.967619   169A      5.006237
     170A      5.007790   171A      5.233751   172A      5.248088
     173A      5.249106   174A      5.361237   175A      5.362726
     176A      5.481676

    Final Occupation by Irrep:
              A
    DOCC [    16 ]
    SOCC [     1 ]

  @DF-UKS Final Energy:  -157.81306697167344

   => Energetics <=

    Nuclear Repulsion Energy =            125.3946358399614098
    One-Electron Energy =                -458.7489281053761943
    Two-Electron Energy =                 195.8483685966379539
    DFT Exchange-Correlation Energy =     -20.3071433028966446
    Empirical Dispersion Energy =           0.0000000000000000
    VV10 Nonlocal Energy =                  0.0000000000000000
    Total Energy =                       -157.8130669716734360

  UHF NO Occupations:
  HONO-2 :   15  A 1.9996009
  HONO-1 :   16  A 1.9989804
  HONO-0 :   17  A 1.0000000
  LUNO+0 :   18  A 0.0010196
  LUNO+1 :   19  A 0.0003991
  LUNO+2 :   20  A 0.0001980
  LUNO+3 :   21  A 0.0001970

Computation Completed

Properties will be evaluated at   0.000000,   0.000000,   0.000000 [a0]

Properties computed using the SCF density matrix

  Nuclear Dipole Moment: [e a0]
     X:     0.8272      Y:     0.0033      Z:     0.0033

  Electronic Dipole Moment: [e a0]
     X:    -0.7493      Y:    -0.0034      Z:    -0.0034

  Dipole Moment: [e a0]
     X:     0.0779      Y:    -0.0001      Z:    -0.0000     Total:     0.0779

  Dipole Moment: [D]
     X:     0.1980      Y:    -0.0002      Z:    -0.0001     Total:     0.1980

*** tstop() called on n082 at Fri Nov  5 13:03:25 2021
Module time:
	user time   =     623.85 seconds =      10.40 minutes
	system time =       5.72 seconds =       0.10 minutes
	total time  =        158 seconds =       2.63 minutes
Total time:
	user time   =     623.85 seconds =      10.40 minutes
	system time =       5.72 seconds =       0.10 minutes
	total time  =        158 seconds =       2.63 minutes
Grab this energy -157.81306697167344
    Psi4 stopped on: Friday, 05 November 2021 01:03PM
    Psi4 wall time for execution: 0:02:38.17

*** Psi4 exiting successfully. Buy a developer a beer!
