                               Psi4 1.4a2.dev629

  ==> Input File <==

--------------------------------------------------------------------------
import os
memory 14 GB

molecule {
 C   -0.3233313330    0.0049908232    0.0004335838
 C    0.0611726137   -1.4042155535   -2.4199741852
 C    0.0604209823    2.8096675394    0.0013897011
 C    0.0617122863   -1.4029211046    2.4205131567
 H    2.0881102766   -1.6516622557   -2.8377475185
 H   -0.7644007089   -0.3966475846   -4.0242838252
 H   -0.7661254411   -3.2918325935   -2.3365282243
 H    2.0860226500    3.2972588219    0.0034951383
 H   -0.7634972435    3.6872655725    1.6743061451
 H   -0.7699108833    3.6890703690   -1.6790854656
 H    2.0865381446   -1.6486480528    2.8395203461
 H   -0.7687313256   -3.2955906259    2.3350869406
 H   -0.7605878948   -0.3967596690    4.0228742071
units bohr
0 2
}

basis {

assign 6-31g_2dfp_

[ 6-31g_2dfp_ ]

spherical

!----------------------------------------------------------------------
! Basis Set Exchange
! Version v0.8.13
! https://www.basissetexchange.org
!----------------------------------------------------------------------
!   Basis set: 6-31G(2df,p)
! Description: 6-31G(2df,p)
!        Role: orbital
!     Version: 0  (Data from the original Basis Set Exchange)
!----------------------------------------------------------------------

****
H     0
S    3   1.00
     18.7311370              0.03349460
      2.8253937              0.23472695
      0.6401217              0.81375733
S    1   1.00
      0.1612778              1.00000000
P    1   1.00
      1.5000000              1.0000000
P    1   1.00
      0.3750000              1.0000000
****
B     0
S    6   1.00
   2068.8823000              0.0018663
    310.6495700              0.0142515
     70.6830330              0.0695516
     19.8610800              0.2325729
      6.2993048              0.4670787
      2.1270270              0.3634314
SP   3   1.00
      4.7279710             -0.1303938              0.0745976
      1.1903377             -0.1307889              0.3078467
      0.3594117              1.1309444              0.7434568
SP   1   1.00
      0.1267512              1.0000000              1.0000000
D    1   1.00
      0.8020000              1.0000000
D    1   1.00
      0.2005000              1.0000000
F    1   1.00
      0.5000000              1.0000000
****
C     0
S    6   1.00
   3047.5249000              0.0018347
    457.3695100              0.0140373
    103.9486900              0.0688426
     29.2101550              0.2321844
      9.2866630              0.4679413
      3.1639270              0.3623120
SP   3   1.00
      7.8682724             -0.1193324              0.0689991
      1.8812885             -0.1608542              0.3164240
      0.5442493              1.1434564              0.7443083
SP   1   1.00
      0.1687144              1.0000000              1.0000000
D    1   1.00
      1.2520000              1.0000000
D    1   1.00
      0.3130000              1.0000000
F    1   1.00
      0.8000000              1.0000000
****
N     0
S    6   1.00
   4173.5110000              0.0018348
    627.4579000              0.0139950
    142.9021000              0.0685870
     40.2343300              0.2322410
     12.8202100              0.4690700
      4.3904370              0.3604550
SP   3   1.00
     11.6263580             -0.1149610              0.0675800
      2.7162800             -0.1691180              0.3239070
      0.7722180              1.1458520              0.7408950
SP   1   1.00
      0.2120313              1.0000000              1.0000000
D    1   1.00
      1.8260000              1.0000000
D    1   1.00
      0.4565000              1.0000000
F    1   1.00
      1.0000000              1.0000000
****
O     0
S    6   1.00
   5484.6717000              0.0018311
    825.2349500              0.0139501
    188.0469600              0.0684451
     52.9645000              0.2327143
     16.8975700              0.4701930
      5.7996353              0.3585209
SP   3   1.00
     15.5396160             -0.1107775              0.0708743
      3.5999336             -0.1480263              0.3397528
      1.0137618              1.1307670              0.7271586
SP   1   1.00
      0.2700058              1.0000000              1.0000000
D    1   1.00
      2.5840000              1.0000000
D    1   1.00
      0.6460000              1.0000000
F    1   1.00
      1.4000000              1.0000000
****
F     0
S    6   1.00
   7001.7130900              0.0018196169
   1051.3660900              0.0139160796
    239.2856900              0.0684053245
     67.3974453              0.233185760
     21.5199573              0.471267439
      7.40310130             0.356618546
SP   3   1.00
     20.8479528             -0.108506975            0.0716287243
      4.80830834            -0.146451658            0.3459121030
      1.34406986             1.128688580            0.7224699570
SP   1   1.00
      0.358151393            1.0000000              1.0000000
D    1   1.00
      3.5000000              1.0000000
D    1   1.00
      0.8750000              1.0000000
F    1   1.00
      1.8500000              1.0000000
****
Al     0
S    6   1.00
  13983.1000000              0.00194267
   2098.7500000              0.0148599
    477.7050000              0.0728494
    134.3600000              0.2468300
     42.8709000              0.4872580
     14.5189000              0.3234960
SP   6   1.00
    239.6680000             -0.00292619             0.00460285
     57.4419000             -0.0374080              0.0331990
     18.2859000             -0.1144870              0.1362820
      6.5991400              0.1156350              0.3304760
      2.4904900              0.6125950              0.4491460
      0.9445400              0.3937990              0.2657040
SP   3   1.00
      1.2779000             -0.2276060             -0.0175130
      0.3975900              0.00144583             0.2445330
      0.1600950              1.0927900              0.8049340
SP   1   1.00
      0.0556577              1.0000000              1.0000000
D    1   1.00
      0.6500000              1.0000000
D    1   1.00
      0.1625000              1.0000000
F    1   1.00
      0.2500000              1.0000000
****
Si     0
S    6   1.00
  16115.9000000              0.00195948
   2425.5800000              0.01492880
    553.8670000              0.07284780
    156.3400000              0.24613000
     50.0683000              0.48591400
     17.0178000              0.32500200
SP   6   1.00
    292.7180000             -0.00278094             0.00443826
     69.8731000             -0.03571460             0.03266790
     22.3363000             -0.11498500             0.13472100
      8.1503900              0.09356340             0.32867800
      3.1345800              0.60301700             0.44964000
      1.2254300              0.41895900             0.26137200
SP   3   1.00
      1.7273800             -0.24463000            -0.01779510
      0.5729220              0.00431572             0.25353900
      0.2221920              1.09818000             0.80066900
SP   1   1.00
      0.0778369              1.00000000             1.00000000
D    1   1.00
      0.9000000              1.0000000
D    1   1.00
      0.2250000              1.0000000
F    1   1.00
      0.3200000              1.0000000
****
P     0
S    6   1.00
  19413.3000000              0.0018516
   2909.4200000              0.0142062
    661.3640000              0.0699995
    185.7590000              0.2400790
     59.1943000              0.4847620
     20.0310000              0.3352000
SP   6   1.00
    339.4780000             -0.00278217             0.00456462
     81.0101000             -0.0360499              0.03369360
     25.8780000             -0.1166310              0.13975500
      9.4522100              0.0968328              0.33936200
      3.6656600              0.6144180              0.45092100
      1.4674600              0.4037980              0.23858600
SP   3   1.00
      2.1562300             -0.2529230             -0.01776530
      0.7489970              0.0328517              0.27405800
      0.2831450              1.0812500              0.78542100
SP   1   1.00
      0.0998317              1.0000000              1.00000000
D    1   1.00
      1.1000000              1.0000000
D    1   1.00
      0.2750000              1.0000000
F    1   1.00
      0.4500000              1.0000000
****
S     0
S    6   1.00
  21917.1000000              0.0018690
   3301.4900000              0.0142300
    754.1460000              0.0696960
    212.7110000              0.2384870
     67.9896000              0.4833070
     23.0515000              0.3380740
SP   6   1.00
    423.7350000             -0.0023767              0.0040610
    100.7100000             -0.0316930              0.0306810
     32.1599000             -0.1133170              0.1304520
     11.8079000              0.0560900              0.3272050
      4.6311000              0.5922550              0.4528510
      1.8702500              0.4550060              0.2560420
SP   3   1.00
      2.6158400             -0.2503740             -0.0145110
      0.9221670              0.0669570              0.3102630
      0.3412870              1.0545100              0.7544830
SP   1   1.00
      0.1171670              1.0000000              1.0000000
D    1   1.00
      1.3000000              1.0000000
D    1   1.00
      0.3250000              1.0000000
F    1   1.00
      0.5500000              1.0000000
****
Cl     0
S    6   1.00
  25180.1000000              0.0018330
   3780.3500000              0.0140340
    860.4740000              0.0690970
    242.1450000              0.2374520
     77.3349000              0.4830340
     26.2470000              0.3398560
SP   6   1.00
    491.7650000             -0.0022974              0.0039894
    116.9840000             -0.0307140              0.0303180
     37.4153000             -0.1125280              0.1298800
     13.7834000              0.0450160              0.3279510
      5.4521500              0.5893530              0.4535270
      2.2258800              0.4652060              0.2521540
SP   3   1.00
      3.1864900             -0.2518300             -0.0142990
      1.1442700              0.0615890              0.3235720
      0.4203770              1.0601800              0.7435070
SP   1   1.00
      0.1426570              1.0000000              1.0000000
D    1   1.00
      1.5000000              1.0000000
D    1   1.00
      0.3750000              1.0000000
F    1   1.00
      0.7000000              1.0000000
****
}

set {
reference uhf
freeze_core true
e_convergence 10
d_convergence 10
dft_spherical_points 1202
dft_radial_points 99
}

e = energy('b3lyp')

print_out('Grab this energy {0}'.format(e))
--------------------------------------------------------------------------

    Molecular point group: c1

    Geometry (in Bohr), charge = 0, multiplicity = 2:

       Center              X                  Y                   Z               Mass
    ------------   -----------------  -----------------  -----------------  -----------------
         C           -0.323334132381     0.003542518099    -0.000021403797    12.000000000000
         C            0.061169814319    -1.405663858601    -2.420429172797    12.000000000000
         C            0.060418182919     2.808219234299     0.000934713503    12.000000000000
         C            0.061709486919    -1.404369409701     2.420058169103    12.000000000000
         H            2.088107477219    -1.653110560801    -2.838202506097     1.007825032230
         H           -0.764403508281    -0.398095889701    -4.024738812797     1.007825032230
         H           -0.766128240481    -3.293280898601    -2.336983211897     1.007825032230
         H            2.086019850619     3.295810516799     0.003040150703     1.007825032230
         H           -0.763500042881     3.685817267399     1.673851157503     1.007825032230
         H           -0.769913682681     3.687622063899    -1.679540453197     1.007825032230
         H            2.086535345219    -1.650096357901     2.839065358503     1.007825032230
         H           -0.768734124981    -3.297038931001     2.334631953003     1.007825032230
         H           -0.760590694181    -0.398207974101     4.022419219503     1.007825032230

  Charge       = 0
  Multiplicity = 2
  Basis Set: ANONYMOUSE9C1B3AA
    Blend: 6-31G_2DFP_
  Basis Set: (ANONYMOUSE9C1B3AA AUX)
    Blend: DEF2-UNIVERSAL-JKFIT

    Orbital Energies [Eh]
    ---------------------

    Alpha Occupied:

       1A    -10.180342     2A    -10.167329     3A    -10.166875
       4A    -10.166841     5A     -0.797770     6A     -0.686417
       7A     -0.685957     8A     -0.530779     9A     -0.441128
      10A     -0.434995    11A     -0.434344    12A     -0.382747
      13A     -0.382450    14A     -0.363612    15A     -0.338316
      16A     -0.337678    17A     -0.168961

    Alpha Virtual:

      18A      0.076070    19A      0.133886    20A      0.134420
      21A      0.142380    22A      0.142874    23A      0.154883
      24A      0.178534    25A      0.179023    26A      0.203544
      27A      0.214808    28A      0.275786    29A      0.276187
      30A      0.398888    31A      0.399505    32A      0.403411
      33A      0.423890    34A      0.424314    35A      0.456595
      36A      0.494981    37A      0.495790    38A      0.512173
      39A      0.513987    40A      0.578538    41A      0.579070
      42A      0.591489    43A      0.591783    44A      0.602574
      45A      0.624721    46A      0.631761    47A      0.635950
      48A      0.636605    49A      0.663113    50A      0.663714
      51A      0.683550    52A      0.684176    53A      0.734993
      54A      0.824542    55A      0.826258    56A      0.853914
      57A      0.914700    58A      0.915354    59A      0.944047
      60A      0.944514    61A      0.961114    62A      0.961683
      63A      1.003473    64A      1.126912    65A      1.129333
      66A      1.142213    67A      1.162769    68A      1.163764
      69A      1.223330    70A      1.273921    71A      1.275069
      72A      1.279355    73A      1.324118    74A      1.324579
      75A      1.355989    76A      1.365263    77A      1.366786
      78A      1.392432    79A      1.403255    80A      1.404909
      81A      1.416280    82A      1.417962    83A      1.427920
      84A      1.491441    85A      1.499056    86A      1.542465
      87A      1.543216    88A      1.572594    89A      1.576414
      90A      1.669827    91A      1.738097    92A      1.740697
      93A      1.768352    94A      1.830460    95A      1.832328
      96A      1.971752    97A      2.017483    98A      2.017966
      99A      2.020903   100A      2.050079   101A      2.055316
     102A      2.738164   103A      2.738804   104A      2.790921
     105A      2.811439   106A      2.889774   107A      2.890121
     108A      2.894943   109A      2.929313   110A      2.929676
     111A      2.958950   112A      2.963512   113A      2.965317
     114A      3.034012   115A      3.070074   116A      3.072414
     117A      3.084458   118A      3.167904   119A      3.169701
     120A      3.180563   121A      3.284576   122A      3.286030
     123A      3.326145   124A      3.328192   125A      3.375674
     126A      3.489591   127A      3.490664   128A      3.514037
     129A      3.525299   130A      3.567224   131A      3.569391
     132A      3.575377   133A      3.665914   134A      3.666897
     135A      3.679645   136A      3.693618   137A      3.694616
     138A      3.775993   139A      3.777496   140A      3.789307
     141A      3.910688   142A      3.913768   143A      4.034463
     144A      4.109875   145A      4.112818   146A      4.146436
     147A      4.149684   148A      4.173337   149A      4.201157
     150A      4.202704   151A      4.204792   152A      4.211112
     153A      4.315288   154A      4.316620   155A      4.358999
     156A      4.423812   157A      4.424982   158A      4.443561
     159A      4.515511   160A      4.518197   161A      4.577199
     162A      4.579332   163A      4.617552   164A      4.709418
     165A      4.773006   166A      4.776224   167A      4.836950
     168A      4.962862   169A      5.001934   170A      5.004003
     171A      5.227562   172A      5.246948   173A      5.247113
     174A      5.354068   175A      5.356965   176A      5.479394

    Beta Occupied:

       1A    -10.168085     2A    -10.167630     3A    -10.167610
       4A    -10.166518     5A     -0.781095     6A     -0.684223
       7A     -0.683755     8A     -0.511750     9A     -0.431375
      10A     -0.430710    11A     -0.421822    12A     -0.376842
      13A     -0.376526    14A     -0.362595    15A     -0.333440
      16A     -0.332800

    Beta Virtual:

      17A     -0.025743    18A      0.077079    19A      0.134756
      20A      0.135332    21A      0.144230    22A      0.144765
      23A      0.163341    24A      0.182196    25A      0.182703
      26A      0.215038    27A      0.218927    28A      0.282124
      29A      0.282544    30A      0.400112    31A      0.400675
      32A      0.419798    33A      0.426692    34A      0.427135
      35A      0.468506    36A      0.497241    37A      0.498054
      38A      0.513909    39A      0.556328    40A      0.584119
      41A      0.584592    42A      0.597639    43A      0.597988
      44A      0.609994    45A      0.628106    46A      0.631921
      47A      0.639232    48A      0.639889    49A      0.666666
      50A      0.667287    51A      0.686155    52A      0.686842
      53A      0.757516    54A      0.829705    55A      0.831432
      56A      0.855267    57A      0.922672    58A      0.923322
      59A      0.945907    60A      0.953427    61A      0.966343
      62A      0.967062    63A      1.008710    64A      1.130951
      65A      1.133353    66A      1.155585    67A      1.167816
      68A      1.168869    69A      1.232300    70A      1.279509
      71A      1.280674    72A      1.285110    73A      1.329102
      74A      1.329573    75A      1.365404    76A      1.370432
      77A      1.372096    78A      1.393496    79A      1.406754
      80A      1.408348    81A      1.421366    82A      1.422967
      83A      1.428194    84A      1.492493    85A      1.509499
      86A      1.546763    87A      1.547733    88A      1.580616
      89A      1.584133    90A      1.674674    91A      1.743857
      92A      1.746464    93A      1.779127    94A      1.834301
      95A      1.836197    96A      1.972615    97A      2.023842
      98A      2.026998    99A      2.039666   100A      2.056893
     101A      2.061952   102A      2.746456   103A      2.747184
     104A      2.811852   105A      2.816056   106A      2.902437
     107A      2.902834   108A      2.924648   109A      2.931886
     110A      2.932070   111A      2.960034   112A      2.968069
     113A      2.969826   114A      3.041947   115A      3.079751
     116A      3.082343   117A      3.086500   118A      3.183772
     119A      3.185299   120A      3.188265   121A      3.289437
     122A      3.290773   123A      3.329930   124A      3.332017
     125A      3.383490   126A      3.492335   127A      3.493372
     128A      3.512413   129A      3.528354   130A      3.574784
     131A      3.580548   132A      3.583195   133A      3.670776
     134A      3.671523   135A      3.692953   136A      3.725346
     137A      3.726135   138A      3.780497   139A      3.782134
     140A      3.817762   141A      3.920477   142A      3.923611
     143A      4.045351   144A      4.116610   145A      4.119716
     146A      4.153637   147A      4.156921   148A      4.187370
     149A      4.207097   150A      4.210641   151A      4.210703
     152A      4.215646   153A      4.322770   154A      4.324022
     155A      4.362362   156A      4.432013   157A      4.433163
     158A      4.446495   159A      4.523353   160A      4.525926
     161A      4.587720   162A      4.590014   163A      4.624745
     164A      4.719762   165A      4.779947   166A      4.783189
     167A      4.839870   168A      4.967654   169A      5.005976
     170A      5.008040   171A      5.233166   172A      5.248746
     173A      5.248999   174A      5.360546   175A      5.363443
     176A      5.481717

    Final Occupation by Irrep:
              A
    DOCC [    16 ]
    SOCC [     1 ]

  @DF-UKS Final Energy:  -157.81305216721620

   => Energetics <=

    Nuclear Repulsion Energy =            125.3948903633281731
    One-Electron Energy =                -458.7493964881555257
    Two-Electron Energy =                 195.8486032955042901
    DFT Exchange-Correlation Energy =     -20.3071493378931116
    Empirical Dispersion Energy =           0.0000000000000000
    VV10 Nonlocal Energy =                  0.0000000000000000
    Total Energy =                       -157.8130521672161990

  UHF NO Occupations:
  HONO-2 :   15  A 1.9996009
  HONO-1 :   16  A 1.9989804
  HONO-0 :   17  A 1.0000000
  LUNO+0 :   18  A 0.0010196
  LUNO+1 :   19  A 0.0003991
  LUNO+2 :   20  A 0.0001979
  LUNO+3 :   21  A 0.0001972

Computation Completed

Properties will be evaluated at   0.000000,   0.000000,   0.000000 [a0]

Properties computed using the SCF density matrix

  Nuclear Dipole Moment: [e a0]
     X:     0.8272      Y:    -0.0102      Z:    -0.0032

  Electronic Dipole Moment: [e a0]
     X:    -0.7493      Y:     0.0110      Z:     0.0050

  Dipole Moment: [e a0]
     X:     0.0779      Y:     0.0008      Z:     0.0017     Total:     0.0779

  Dipole Moment: [D]
     X:     0.1980      Y:     0.0019      Z:     0.0044     Total:     0.1981

*** tstop() called on n065 at Fri Nov  5 14:38:51 2021
Module time:
	user time   =     540.24 seconds =       9.00 minutes
	system time =      11.81 seconds =       0.20 minutes
	total time  =        139 seconds =       2.32 minutes
Total time:
	user time   =     540.24 seconds =       9.00 minutes
	system time =      11.81 seconds =       0.20 minutes
	total time  =        139 seconds =       2.32 minutes
Grab this energy -157.8130521672162
    Psi4 stopped on: Friday, 05 November 2021 02:38PM
    Psi4 wall time for execution: 0:02:18.81

*** Psi4 exiting successfully. Buy a developer a beer!
