                               Psi4 1.4a2.dev629

  ==> Input File <==

--------------------------------------------------------------------------
import os
memory 14 GB

molecule {
 C   -0.3230394108   -0.0000020438    0.0000000179
 C    0.0610009636   -1.3995406297   -2.4208652492
 C    0.0608812932    2.7963142769   -0.0015999405
 C    0.0610007596   -1.3967693805    2.4224650190
 H    2.0866443235   -1.6402617917   -2.8420395637
 H   -0.7650433426   -0.3852582870   -4.0201862144
 H   -0.7655992746   -3.2884366153   -2.3441879806
 H    2.0865056632    3.2815072128    0.0006212874
 H   -0.7652839774    3.6741865198    1.6764185333
 H   -0.7656767387    3.6743156499   -1.6758144159
 H    2.0866442900   -1.6413379183    2.8414183277
 H   -0.7652064282   -3.2888952840    2.3437741100
 H   -0.7654359974   -0.3858460228    4.0199960691
units bohr
0 2
}

basis {

assign 6-31g_2dfp_

[ 6-31g_2dfp_ ]

spherical

!----------------------------------------------------------------------
! Basis Set Exchange
! Version v0.8.13
! https://www.basissetexchange.org
!----------------------------------------------------------------------
!   Basis set: 6-31G(2df,p)
! Description: 6-31G(2df,p)
!        Role: orbital
!     Version: 0  (Data from the original Basis Set Exchange)
!----------------------------------------------------------------------

****
H     0
S    3   1.00
     18.7311370              0.03349460
      2.8253937              0.23472695
      0.6401217              0.81375733
S    1   1.00
      0.1612778              1.00000000
P    1   1.00
      1.5000000              1.0000000
P    1   1.00
      0.3750000              1.0000000
****
B     0
S    6   1.00
   2068.8823000              0.0018663
    310.6495700              0.0142515
     70.6830330              0.0695516
     19.8610800              0.2325729
      6.2993048              0.4670787
      2.1270270              0.3634314
SP   3   1.00
      4.7279710             -0.1303938              0.0745976
      1.1903377             -0.1307889              0.3078467
      0.3594117              1.1309444              0.7434568
SP   1   1.00
      0.1267512              1.0000000              1.0000000
D    1   1.00
      0.8020000              1.0000000
D    1   1.00
      0.2005000              1.0000000
F    1   1.00
      0.5000000              1.0000000
****
C     0
S    6   1.00
   3047.5249000              0.0018347
    457.3695100              0.0140373
    103.9486900              0.0688426
     29.2101550              0.2321844
      9.2866630              0.4679413
      3.1639270              0.3623120
SP   3   1.00
      7.8682724             -0.1193324              0.0689991
      1.8812885             -0.1608542              0.3164240
      0.5442493              1.1434564              0.7443083
SP   1   1.00
      0.1687144              1.0000000              1.0000000
D    1   1.00
      1.2520000              1.0000000
D    1   1.00
      0.3130000              1.0000000
F    1   1.00
      0.8000000              1.0000000
****
N     0
S    6   1.00
   4173.5110000              0.0018348
    627.4579000              0.0139950
    142.9021000              0.0685870
     40.2343300              0.2322410
     12.8202100              0.4690700
      4.3904370              0.3604550
SP   3   1.00
     11.6263580             -0.1149610              0.0675800
      2.7162800             -0.1691180              0.3239070
      0.7722180              1.1458520              0.7408950
SP   1   1.00
      0.2120313              1.0000000              1.0000000
D    1   1.00
      1.8260000              1.0000000
D    1   1.00
      0.4565000              1.0000000
F    1   1.00
      1.0000000              1.0000000
****
O     0
S    6   1.00
   5484.6717000              0.0018311
    825.2349500              0.0139501
    188.0469600              0.0684451
     52.9645000              0.2327143
     16.8975700              0.4701930
      5.7996353              0.3585209
SP   3   1.00
     15.5396160             -0.1107775              0.0708743
      3.5999336             -0.1480263              0.3397528
      1.0137618              1.1307670              0.7271586
SP   1   1.00
      0.2700058              1.0000000              1.0000000
D    1   1.00
      2.5840000              1.0000000
D    1   1.00
      0.6460000              1.0000000
F    1   1.00
      1.4000000              1.0000000
****
F     0
S    6   1.00
   7001.7130900              0.0018196169
   1051.3660900              0.0139160796
    239.2856900              0.0684053245
     67.3974453              0.233185760
     21.5199573              0.471267439
      7.40310130             0.356618546
SP   3   1.00
     20.8479528             -0.108506975            0.0716287243
      4.80830834            -0.146451658            0.3459121030
      1.34406986             1.128688580            0.7224699570
SP   1   1.00
      0.358151393            1.0000000              1.0000000
D    1   1.00
      3.5000000              1.0000000
D    1   1.00
      0.8750000              1.0000000
F    1   1.00
      1.8500000              1.0000000
****
Al     0
S    6   1.00
  13983.1000000              0.00194267
   2098.7500000              0.0148599
    477.7050000              0.0728494
    134.3600000              0.2468300
     42.8709000              0.4872580
     14.5189000              0.3234960
SP   6   1.00
    239.6680000             -0.00292619             0.00460285
     57.4419000             -0.0374080              0.0331990
     18.2859000             -0.1144870              0.1362820
      6.5991400              0.1156350              0.3304760
      2.4904900              0.6125950              0.4491460
      0.9445400              0.3937990              0.2657040
SP   3   1.00
      1.2779000             -0.2276060             -0.0175130
      0.3975900              0.00144583             0.2445330
      0.1600950              1.0927900              0.8049340
SP   1   1.00
      0.0556577              1.0000000              1.0000000
D    1   1.00
      0.6500000              1.0000000
D    1   1.00
      0.1625000              1.0000000
F    1   1.00
      0.2500000              1.0000000
****
Si     0
S    6   1.00
  16115.9000000              0.00195948
   2425.5800000              0.01492880
    553.8670000              0.07284780
    156.3400000              0.24613000
     50.0683000              0.48591400
     17.0178000              0.32500200
SP   6   1.00
    292.7180000             -0.00278094             0.00443826
     69.8731000             -0.03571460             0.03266790
     22.3363000             -0.11498500             0.13472100
      8.1503900              0.09356340             0.32867800
      3.1345800              0.60301700             0.44964000
      1.2254300              0.41895900             0.26137200
SP   3   1.00
      1.7273800             -0.24463000            -0.01779510
      0.5729220              0.00431572             0.25353900
      0.2221920              1.09818000             0.80066900
SP   1   1.00
      0.0778369              1.00000000             1.00000000
D    1   1.00
      0.9000000              1.0000000
D    1   1.00
      0.2250000              1.0000000
F    1   1.00
      0.3200000              1.0000000
****
P     0
S    6   1.00
  19413.3000000              0.0018516
   2909.4200000              0.0142062
    661.3640000              0.0699995
    185.7590000              0.2400790
     59.1943000              0.4847620
     20.0310000              0.3352000
SP   6   1.00
    339.4780000             -0.00278217             0.00456462
     81.0101000             -0.0360499              0.03369360
     25.8780000             -0.1166310              0.13975500
      9.4522100              0.0968328              0.33936200
      3.6656600              0.6144180              0.45092100
      1.4674600              0.4037980              0.23858600
SP   3   1.00
      2.1562300             -0.2529230             -0.01776530
      0.7489970              0.0328517              0.27405800
      0.2831450              1.0812500              0.78542100
SP   1   1.00
      0.0998317              1.0000000              1.00000000
D    1   1.00
      1.1000000              1.0000000
D    1   1.00
      0.2750000              1.0000000
F    1   1.00
      0.4500000              1.0000000
****
S     0
S    6   1.00
  21917.1000000              0.0018690
   3301.4900000              0.0142300
    754.1460000              0.0696960
    212.7110000              0.2384870
     67.9896000              0.4833070
     23.0515000              0.3380740
SP   6   1.00
    423.7350000             -0.0023767              0.0040610
    100.7100000             -0.0316930              0.0306810
     32.1599000             -0.1133170              0.1304520
     11.8079000              0.0560900              0.3272050
      4.6311000              0.5922550              0.4528510
      1.8702500              0.4550060              0.2560420
SP   3   1.00
      2.6158400             -0.2503740             -0.0145110
      0.9221670              0.0669570              0.3102630
      0.3412870              1.0545100              0.7544830
SP   1   1.00
      0.1171670              1.0000000              1.0000000
D    1   1.00
      1.3000000              1.0000000
D    1   1.00
      0.3250000              1.0000000
F    1   1.00
      0.5500000              1.0000000
****
Cl     0
S    6   1.00
  25180.1000000              0.0018330
   3780.3500000              0.0140340
    860.4740000              0.0690970
    242.1450000              0.2374520
     77.3349000              0.4830340
     26.2470000              0.3398560
SP   6   1.00
    491.7650000             -0.0022974              0.0039894
    116.9840000             -0.0307140              0.0303180
     37.4153000             -0.1125280              0.1298800
     13.7834000              0.0450160              0.3279510
      5.4521500              0.5893530              0.4535270
      2.2258800              0.4652060              0.2521540
SP   3   1.00
      3.1864900             -0.2518300             -0.0142990
      1.1442700              0.0615890              0.3235720
      0.4203770              1.0601800              0.7435070
SP   1   1.00
      0.1426570              1.0000000              1.0000000
D    1   1.00
      1.5000000              1.0000000
D    1   1.00
      0.3750000              1.0000000
F    1   1.00
      0.7000000              1.0000000
****
}

set {
reference uhf
freeze_core true
e_convergence 10
d_convergence 10
dft_spherical_points 1202
dft_radial_points 99
}

e = energy('b3lyp')

print_out('Grab this energy {0}'.format(e))
--------------------------------------------------------------------------

    Molecular point group: c1

    Geometry (in Bohr), charge = 0, multiplicity = 2:

       Center              X                  Y                   Z               Mass
    ------------   -----------------  -----------------  -----------------  -----------------
         C           -0.323016989483    -0.000002042583     0.000000047329    12.000000000000
         C            0.061023384917    -1.399540628483    -2.420865219771    12.000000000000
         C            0.060903714517     2.796314278117    -0.001599911071    12.000000000000
         C            0.061023180917    -1.396769379283     2.422465048429    12.000000000000
         H            2.086666744817    -1.640261790483    -2.842039534271     1.007825032230
         H           -0.765020921283    -0.385258285783    -4.020186184971     1.007825032230
         H           -0.765576853283    -3.288436614083    -2.344187951171     1.007825032230
         H            2.086528084517     3.281507214017     0.000621316829     1.007825032230
         H           -0.765261556083     3.674186521017     1.676418562729     1.007825032230
         H           -0.765654317383     3.674315651117    -1.675814386471     1.007825032230
         H            2.086666711317    -1.641337917083     2.841418357129     1.007825032230
         H           -0.765184006883    -3.288895282783     2.343774139429     1.007825032230
         H           -0.765413576083    -0.385846021583     4.019996098529     1.007825032230

  Charge       = 0
  Multiplicity = 2
  Basis Set: ANONYMOUS3AD91C63
    Blend: 6-31G_2DFP_
  Basis Set: (ANONYMOUS3AD91C63 AUX)
    Blend: DEF2-UNIVERSAL-JKFIT

    Orbital Energies [Eh]
    ---------------------

    Alpha Occupied:

       1A    -10.179568     2A    -10.166669     3A    -10.166668
       4A    -10.166623     5A     -0.798816     6A     -0.686489
       7A     -0.686488     8A     -0.530774     9A     -0.441721
      10A     -0.435153    11A     -0.435152    12A     -0.382674
      13A     -0.382672    14A     -0.363492    15A     -0.338186
      16A     -0.338186    17A     -0.168636

    Alpha Virtual:

      18A      0.076043    19A      0.134194    20A      0.134195
      21A      0.142832    22A      0.142832    23A      0.154941
      24A      0.178954    25A      0.178954    26A      0.204639
      27A      0.215150    28A      0.276505    29A      0.276506
      30A      0.399201    31A      0.399205    32A      0.403135
      33A      0.423824    34A      0.423825    35A      0.457175
      36A      0.495618    37A      0.495619    38A      0.512490
      39A      0.514388    40A      0.579493    41A      0.579501
      42A      0.592178    43A      0.592180    44A      0.603034
      45A      0.625157    46A      0.632143    47A      0.637064
      48A      0.637067    49A      0.663885    50A      0.663886
      51A      0.684309    52A      0.684310    53A      0.734788
      54A      0.825250    55A      0.825253    56A      0.854917
      57A      0.915753    58A      0.915759    59A      0.944023
      60A      0.945467    61A      0.962247    62A      0.962263
      63A      1.004584    64A      1.128998    65A      1.129010
      66A      1.142569    67A      1.164029    68A      1.164042
      69A      1.224230    70A      1.275394    71A      1.275397
      72A      1.279866    73A      1.324689    74A      1.324691
      75A      1.356155    76A      1.367888    77A      1.367892
      78A      1.393972    79A      1.403762    80A      1.403765
      81A      1.417478    82A      1.417485    83A      1.429313
      84A      1.492673    85A      1.499709    86A      1.543559
      87A      1.543561    88A      1.575606    89A      1.575608
      90A      1.669763    91A      1.740040    92A      1.740052
      93A      1.769845    94A      1.832586    95A      1.832586
      96A      1.973117    97A      2.020168    98A      2.020172
      99A      2.020613   100A      2.057144   101A      2.057144
     102A      2.739080   103A      2.739081   104A      2.792070
     105A      2.814163   106A      2.891080   107A      2.891086
     108A      2.896453   109A      2.929680   110A      2.929689
     111A      2.959236   112A      2.964064   113A      2.964078
     114A      3.033967   115A      3.072242   116A      3.072256
     117A      3.085935   118A      3.169631   119A      3.169639
     120A      3.182485   121A      3.285809   122A      3.285810
     123A      3.327596   124A      3.327602   125A      3.374228
     126A      3.491930   127A      3.491950   128A      3.514760
     129A      3.527672   130A      3.568327   131A      3.568347
     132A      3.577287   133A      3.666334   134A      3.666342
     135A      3.681629   136A      3.695582   137A      3.695598
     138A      3.781281   139A      3.781307   140A      3.789795
     141A      3.914305   142A      3.914311   143A      4.036303
     144A      4.114196   145A      4.114199   146A      4.148897
     147A      4.148906   148A      4.174456   149A      4.204078
     150A      4.205427   151A      4.205430   152A      4.212424
     153A      4.317490   154A      4.317509   155A      4.361491
     156A      4.426525   157A      4.426527   158A      4.445859
     159A      4.519847   160A      4.519849   161A      4.581836
     162A      4.581849   163A      4.624889   164A      4.714242
     165A      4.781025   166A      4.781033   167A      4.840848
     168A      4.965931   169A      5.004556   170A      5.004569
     171A      5.229062   172A      5.248232   173A      5.248232
     174A      5.358120   175A      5.358133   176A      5.485117

    Beta Occupied:

       1A    -10.167424     2A    -10.167423     3A    -10.167394
       4A    -10.165773     5A     -0.782119     6A     -0.684271
       7A     -0.684271     8A     -0.511845     9A     -0.431504
      10A     -0.431504    11A     -0.422323    12A     -0.376722
      13A     -0.376721    14A     -0.362464    15A     -0.333314
      16A     -0.333314

    Beta Virtual:

      17A     -0.025711    18A      0.077063    19A      0.135078
      20A      0.135078    21A      0.144730    22A      0.144731
      23A      0.163445    24A      0.182652    25A      0.182652
      26A      0.215381    27A      0.219847    28A      0.282783
      29A      0.282785    30A      0.400403    31A      0.400407
      32A      0.419485    33A      0.426626    34A      0.426627
      35A      0.469439    36A      0.497892    37A      0.497893
      38A      0.514247    39A      0.556649    40A      0.585051
      41A      0.585059    42A      0.598296    43A      0.598297
      44A      0.610500    45A      0.628586    46A      0.632314
      47A      0.640423    48A      0.640427    49A      0.667406
      50A      0.667407    51A      0.687024    52A      0.687026
      53A      0.757132    54A      0.830436    55A      0.830439
      56A      0.856307    57A      0.923737    58A      0.923744
      59A      0.947305    60A      0.952861    61A      0.967578
      62A      0.967594    63A      1.009749    64A      1.133026
      65A      1.133037    66A      1.155962    67A      1.169104
      68A      1.169116    69A      1.233341    70A      1.281028
      71A      1.281032    72A      1.285553    73A      1.329677
      74A      1.329678    75A      1.365600    76A      1.373120
      77A      1.373125    78A      1.395041    79A      1.407203
      80A      1.407206    81A      1.422580    82A      1.422587
      83A      1.429615    84A      1.493741    85A      1.510194
      86A      1.547911    87A      1.547912    88A      1.583546
      89A      1.583547    90A      1.674616    91A      1.745806
      92A      1.745817    93A      1.780650    94A      1.836458
      95A      1.836459    96A      1.973981    97A      2.026584
      98A      2.026587    99A      2.042053   100A      2.063882
     101A      2.063883   102A      2.747319   103A      2.747321
     104A      2.814517   105A      2.817248   106A      2.903534
     107A      2.903540   108A      2.926226   109A      2.932335
     110A      2.932345   111A      2.960310   112A      2.968668
     113A      2.968682   114A      3.041989   115A      3.082240
     116A      3.082252   117A      3.087769   118A      3.185277
     119A      3.185281   120A      3.190106   121A      3.290784
     122A      3.290784   123A      3.331326   124A      3.331331
     125A      3.382031   126A      3.494654   127A      3.494674
     128A      3.513121   129A      3.530661   130A      3.577170
     131A      3.581668   132A      3.581689   133A      3.670980
     134A      3.670991   135A      3.694903   136A      3.727037
     137A      3.727053   138A      3.785844   139A      3.785870
     140A      3.818208   141A      3.924127   142A      3.924134
     143A      4.047125   144A      4.120730   145A      4.120731
     146A      4.156300   147A      4.156310   148A      4.188633
     149A      4.211364   150A      4.211367   151A      4.212103
     152A      4.216971   153A      4.324961   154A      4.324981
     155A      4.364832   156A      4.434848   157A      4.434851
     158A      4.448754   159A      4.527765   160A      4.527766
     161A      4.592456   162A      4.592469   163A      4.632062
     164A      4.724671   165A      4.787981   166A      4.787989
     167A      4.843763   168A      4.970749   169A      5.008634
     170A      5.008647   171A      5.234817   172A      5.250028
     173A      5.250028   174A      5.364654   175A      5.364668
     176A      5.487460

    Final Occupation by Irrep:
              A
    DOCC [    16 ]
    SOCC [     1 ]

  @DF-UKS Final Energy:  -157.81304097419567

   => Energetics <=

    Nuclear Repulsion Energy =            125.5761406783291960
    One-Electron Energy =                -459.1062490013770230
    Two-Electron Energy =                 196.0280182182340809
    DFT Exchange-Correlation Energy =     -20.3109508693819159
    Empirical Dispersion Energy =           0.0000000000000000
    VV10 Nonlocal Energy =                  0.0000000000000000
    Total Energy =                       -157.8130409741956726

  UHF NO Occupations:
  HONO-2 :   15  A 1.9995992
  HONO-1 :   16  A 1.9989874
  HONO-0 :   17  A 1.0000000
  LUNO+0 :   18  A 0.0010126
  LUNO+1 :   19  A 0.0004008
  LUNO+2 :   20  A 0.0001954
  LUNO+3 :   21  A 0.0001954

Computation Completed

Properties will be evaluated at   0.000000,   0.000000,   0.000000 [a0]

Properties computed using the SCF density matrix

  Nuclear Dipole Moment: [e a0]
     X:     0.8274      Y:    -0.0000      Z:     0.0000

  Electronic Dipole Moment: [e a0]
     X:    -0.7503      Y:     0.0000      Z:    -0.0000

  Dipole Moment: [e a0]
     X:     0.0770      Y:    -0.0000      Z:     0.0000     Total:     0.0770

  Dipole Moment: [D]
     X:     0.1958      Y:    -0.0000      Z:     0.0000     Total:     0.1958

*** tstop() called on n083 at Fri Nov  5 12:51:45 2021
Module time:
	user time   =     465.41 seconds =       7.76 minutes
	system time =       4.46 seconds =       0.07 minutes
	total time  =        118 seconds =       1.97 minutes
Total time:
	user time   =     465.41 seconds =       7.76 minutes
	system time =       4.46 seconds =       0.07 minutes
	total time  =        118 seconds =       1.97 minutes
Grab this energy -157.81304097419567
    Psi4 stopped on: Friday, 05 November 2021 12:51PM
    Psi4 wall time for execution: 0:01:58.20

*** Psi4 exiting successfully. Buy a developer a beer!
