                               Psi4 1.4a2.dev629

  ==> Input File <==

--------------------------------------------------------------------------
import os
memory 14 GB

molecule {
 C   -0.3233291428   -0.0000030879   -0.0024271083
 C    0.0606323179   -1.4006137429   -2.4271735133
 C    0.0612023534    2.8033973812   -0.0012498043
 C    0.0620130030   -1.4027826529    2.4284304014
 H    2.0847606700   -1.6456510052   -2.8467909474
 H   -0.7645746756   -0.3857425378   -4.0251446576
 H   -0.7690861093   -3.2886073777   -2.3458357561
 H    2.0868438634    3.2876046263    0.0033526585
 H   -0.7701194977    3.6768784751    1.6732535089
 H   -0.7614043949    3.6826660747   -1.6799379968
 H    2.0892116367   -1.6420449441    2.8472299550
 H   -0.7622855713   -3.2950837679    2.3512057923
 H   -0.7664723295   -0.3900417544    4.0250874677
units bohr
0 2
}

basis {

assign 6-31g_2dfp_

[ 6-31g_2dfp_ ]

spherical

!----------------------------------------------------------------------
! Basis Set Exchange
! Version v0.8.13
! https://www.basissetexchange.org
!----------------------------------------------------------------------
!   Basis set: 6-31G(2df,p)
! Description: 6-31G(2df,p)
!        Role: orbital
!     Version: 0  (Data from the original Basis Set Exchange)
!----------------------------------------------------------------------

****
H     0
S    3   1.00
     18.7311370              0.03349460
      2.8253937              0.23472695
      0.6401217              0.81375733
S    1   1.00
      0.1612778              1.00000000
P    1   1.00
      1.5000000              1.0000000
P    1   1.00
      0.3750000              1.0000000
****
B     0
S    6   1.00
   2068.8823000              0.0018663
    310.6495700              0.0142515
     70.6830330              0.0695516
     19.8610800              0.2325729
      6.2993048              0.4670787
      2.1270270              0.3634314
SP   3   1.00
      4.7279710             -0.1303938              0.0745976
      1.1903377             -0.1307889              0.3078467
      0.3594117              1.1309444              0.7434568
SP   1   1.00
      0.1267512              1.0000000              1.0000000
D    1   1.00
      0.8020000              1.0000000
D    1   1.00
      0.2005000              1.0000000
F    1   1.00
      0.5000000              1.0000000
****
C     0
S    6   1.00
   3047.5249000              0.0018347
    457.3695100              0.0140373
    103.9486900              0.0688426
     29.2101550              0.2321844
      9.2866630              0.4679413
      3.1639270              0.3623120
SP   3   1.00
      7.8682724             -0.1193324              0.0689991
      1.8812885             -0.1608542              0.3164240
      0.5442493              1.1434564              0.7443083
SP   1   1.00
      0.1687144              1.0000000              1.0000000
D    1   1.00
      1.2520000              1.0000000
D    1   1.00
      0.3130000              1.0000000
F    1   1.00
      0.8000000              1.0000000
****
N     0
S    6   1.00
   4173.5110000              0.0018348
    627.4579000              0.0139950
    142.9021000              0.0685870
     40.2343300              0.2322410
     12.8202100              0.4690700
      4.3904370              0.3604550
SP   3   1.00
     11.6263580             -0.1149610              0.0675800
      2.7162800             -0.1691180              0.3239070
      0.7722180              1.1458520              0.7408950
SP   1   1.00
      0.2120313              1.0000000              1.0000000
D    1   1.00
      1.8260000              1.0000000
D    1   1.00
      0.4565000              1.0000000
F    1   1.00
      1.0000000              1.0000000
****
O     0
S    6   1.00
   5484.6717000              0.0018311
    825.2349500              0.0139501
    188.0469600              0.0684451
     52.9645000              0.2327143
     16.8975700              0.4701930
      5.7996353              0.3585209
SP   3   1.00
     15.5396160             -0.1107775              0.0708743
      3.5999336             -0.1480263              0.3397528
      1.0137618              1.1307670              0.7271586
SP   1   1.00
      0.2700058              1.0000000              1.0000000
D    1   1.00
      2.5840000              1.0000000
D    1   1.00
      0.6460000              1.0000000
F    1   1.00
      1.4000000              1.0000000
****
F     0
S    6   1.00
   7001.7130900              0.0018196169
   1051.3660900              0.0139160796
    239.2856900              0.0684053245
     67.3974453              0.233185760
     21.5199573              0.471267439
      7.40310130             0.356618546
SP   3   1.00
     20.8479528             -0.108506975            0.0716287243
      4.80830834            -0.146451658            0.3459121030
      1.34406986             1.128688580            0.7224699570
SP   1   1.00
      0.358151393            1.0000000              1.0000000
D    1   1.00
      3.5000000              1.0000000
D    1   1.00
      0.8750000              1.0000000
F    1   1.00
      1.8500000              1.0000000
****
Al     0
S    6   1.00
  13983.1000000              0.00194267
   2098.7500000              0.0148599
    477.7050000              0.0728494
    134.3600000              0.2468300
     42.8709000              0.4872580
     14.5189000              0.3234960
SP   6   1.00
    239.6680000             -0.00292619             0.00460285
     57.4419000             -0.0374080              0.0331990
     18.2859000             -0.1144870              0.1362820
      6.5991400              0.1156350              0.3304760
      2.4904900              0.6125950              0.4491460
      0.9445400              0.3937990              0.2657040
SP   3   1.00
      1.2779000             -0.2276060             -0.0175130
      0.3975900              0.00144583             0.2445330
      0.1600950              1.0927900              0.8049340
SP   1   1.00
      0.0556577              1.0000000              1.0000000
D    1   1.00
      0.6500000              1.0000000
D    1   1.00
      0.1625000              1.0000000
F    1   1.00
      0.2500000              1.0000000
****
Si     0
S    6   1.00
  16115.9000000              0.00195948
   2425.5800000              0.01492880
    553.8670000              0.07284780
    156.3400000              0.24613000
     50.0683000              0.48591400
     17.0178000              0.32500200
SP   6   1.00
    292.7180000             -0.00278094             0.00443826
     69.8731000             -0.03571460             0.03266790
     22.3363000             -0.11498500             0.13472100
      8.1503900              0.09356340             0.32867800
      3.1345800              0.60301700             0.44964000
      1.2254300              0.41895900             0.26137200
SP   3   1.00
      1.7273800             -0.24463000            -0.01779510
      0.5729220              0.00431572             0.25353900
      0.2221920              1.09818000             0.80066900
SP   1   1.00
      0.0778369              1.00000000             1.00000000
D    1   1.00
      0.9000000              1.0000000
D    1   1.00
      0.2250000              1.0000000
F    1   1.00
      0.3200000              1.0000000
****
P     0
S    6   1.00
  19413.3000000              0.0018516
   2909.4200000              0.0142062
    661.3640000              0.0699995
    185.7590000              0.2400790
     59.1943000              0.4847620
     20.0310000              0.3352000
SP   6   1.00
    339.4780000             -0.00278217             0.00456462
     81.0101000             -0.0360499              0.03369360
     25.8780000             -0.1166310              0.13975500
      9.4522100              0.0968328              0.33936200
      3.6656600              0.6144180              0.45092100
      1.4674600              0.4037980              0.23858600
SP   3   1.00
      2.1562300             -0.2529230             -0.01776530
      0.7489970              0.0328517              0.27405800
      0.2831450              1.0812500              0.78542100
SP   1   1.00
      0.0998317              1.0000000              1.00000000
D    1   1.00
      1.1000000              1.0000000
D    1   1.00
      0.2750000              1.0000000
F    1   1.00
      0.4500000              1.0000000
****
S     0
S    6   1.00
  21917.1000000              0.0018690
   3301.4900000              0.0142300
    754.1460000              0.0696960
    212.7110000              0.2384870
     67.9896000              0.4833070
     23.0515000              0.3380740
SP   6   1.00
    423.7350000             -0.0023767              0.0040610
    100.7100000             -0.0316930              0.0306810
     32.1599000             -0.1133170              0.1304520
     11.8079000              0.0560900              0.3272050
      4.6311000              0.5922550              0.4528510
      1.8702500              0.4550060              0.2560420
SP   3   1.00
      2.6158400             -0.2503740             -0.0145110
      0.9221670              0.0669570              0.3102630
      0.3412870              1.0545100              0.7544830
SP   1   1.00
      0.1171670              1.0000000              1.0000000
D    1   1.00
      1.3000000              1.0000000
D    1   1.00
      0.3250000              1.0000000
F    1   1.00
      0.5500000              1.0000000
****
Cl     0
S    6   1.00
  25180.1000000              0.0018330
   3780.3500000              0.0140340
    860.4740000              0.0690970
    242.1450000              0.2374520
     77.3349000              0.4830340
     26.2470000              0.3398560
SP   6   1.00
    491.7650000             -0.0022974              0.0039894
    116.9840000             -0.0307140              0.0303180
     37.4153000             -0.1125280              0.1298800
     13.7834000              0.0450160              0.3279510
      5.4521500              0.5893530              0.4535270
      2.2258800              0.4652060              0.2521540
SP   3   1.00
      3.1864900             -0.2518300             -0.0142990
      1.1442700              0.0615890              0.3235720
      0.4203770              1.0601800              0.7435070
SP   1   1.00
      0.1426570              1.0000000              1.0000000
D    1   1.00
      1.5000000              1.0000000
D    1   1.00
      0.3750000              1.0000000
F    1   1.00
      0.7000000              1.0000000
****
}

set {
reference uhf
freeze_core true
e_convergence 10
d_convergence 10
dft_spherical_points 1202
dft_radial_points 99
}

e = energy('b3lyp')

print_out('Grab this energy {0}'.format(e))
--------------------------------------------------------------------------

    Molecular point group: c1

    Geometry (in Bohr), charge = 0, multiplicity = 2:

       Center              X                  Y                   Z               Mass
    ------------   -----------------  -----------------  -----------------  -----------------
         C           -0.323436717071    -0.000002253583    -0.001960994151    12.000000000000
         C            0.060524743629    -1.400612908583    -2.426707399151    12.000000000000
         C            0.061094779129     2.803398215517    -0.000783690151    12.000000000000
         C            0.061905428729    -1.402781818583     2.428896515549    12.000000000000
         H            2.084653095729    -1.645650170883    -2.846324833251     1.007825032230
         H           -0.764682249871    -0.385741703483    -4.024678543451     1.007825032230
         H           -0.769193683571    -3.288606543383    -2.345369641951     1.007825032230
         H            2.086736289129     3.287605460617     0.003818772649     1.007825032230
         H           -0.770227071971     3.676879309417     1.673719623049     1.007825032230
         H           -0.761511969171     3.682666909017    -1.679471882651     1.007825032230
         H            2.089104062429    -1.642044109783     2.847696069149     1.007825032230
         H           -0.762393145571    -3.295082933583     2.351671906449     1.007825032230
         H           -0.766579903771    -0.390040920083     4.025553581849     1.007825032230

  Charge       = 0
  Multiplicity = 2
  Basis Set: ANONYMOUS22CA7686
    Blend: 6-31G_2DFP_
  Basis Set: (ANONYMOUS22CA7686 AUX)
    Blend: DEF2-UNIVERSAL-JKFIT

    Orbital Energies [Eh]
    ---------------------

    Alpha Occupied:

       1A    -10.180393     2A    -10.167151     3A    -10.166963
       4A    -10.166773     5A     -0.797510     6A     -0.686320
       7A     -0.686035     8A     -0.530609     9A     -0.441115
      10A     -0.434677    11A     -0.434533    12A     -0.382781
      13A     -0.382692    14A     -0.363812    15A     -0.337987
      16A     -0.337689    17A     -0.168940

    Alpha Virtual:

      18A      0.076080    19A      0.134151    20A      0.134278
      21A      0.142749    22A      0.142773    23A      0.154773
      24A      0.178939    25A      0.178946    26A      0.203255
      27A      0.214926    28A      0.275408    29A      0.276080
      30A      0.399222    31A      0.399236    32A      0.403446
      33A      0.424118    34A      0.424186    35A      0.456414
      36A      0.495349    37A      0.495449    38A      0.512215
      39A      0.514036    40A      0.578663    41A      0.579046
      42A      0.591512    43A      0.591961    44A      0.602616
      45A      0.624882    46A      0.632001    47A      0.636108
      48A      0.636283    49A      0.663093    50A      0.663502
      51A      0.683846    52A      0.683887    53A      0.735126
      54A      0.825357    55A      0.825417    56A      0.853780
      57A      0.914936    58A      0.915202    59A      0.944077
      60A      0.944301    61A      0.961317    62A      0.961401
      63A      1.003623    64A      1.127985    65A      1.128062
      66A      1.141793    67A      1.163766    68A      1.164015
      69A      1.222906    70A      1.274176    71A      1.274545
      72A      1.279198    73A      1.324035    74A      1.324278
      75A      1.355661    76A      1.365614    77A      1.366207
      78A      1.392933    79A      1.404463    80A      1.405091
      81A      1.416852    82A      1.417387    83A      1.428174
      84A      1.490971    85A      1.499663    86A      1.542531
      87A      1.542802    88A      1.574124    89A      1.574565
      90A      1.670618    91A      1.738639    92A      1.739179
      93A      1.768339    94A      1.831422    95A      1.832247
      96A      1.971135    97A      2.018079    98A      2.018290
      99A      2.018725   100A      2.051274   101A      2.053181
     102A      2.738258   103A      2.738360   104A      2.790703
     105A      2.811335   106A      2.889402   107A      2.890236
     108A      2.894594   109A      2.929482   110A      2.929822
     111A      2.959043   112A      2.964141   113A      2.964668
     114A      3.033836   115A      3.071044   116A      3.071626
     117A      3.083945   118A      3.168611   119A      3.168722
     120A      3.180019   121A      3.285600   122A      3.285690
     123A      3.326471   124A      3.327354   125A      3.375706
     126A      3.489839   127A      3.490302   128A      3.513850
     129A      3.524964   130A      3.567320   131A      3.568990
     132A      3.575283   133A      3.666921   134A      3.667357
     135A      3.680252   136A      3.693886   137A      3.694607
     138A      3.775394   139A      3.778062   140A      3.789456
     141A      3.910638   142A      3.911617   143A      4.033900
     144A      4.110622   145A      4.112666   146A      4.147581
     147A      4.148684   148A      4.172569   149A      4.201557
     150A      4.202098   151A      4.202920   152A      4.210517
     153A      4.315547   154A      4.316582   155A      4.359613
     156A      4.425140   157A      4.426139   158A      4.445401
     159A      4.515747   160A      4.517263   161A      4.576874
     162A      4.578205   163A      4.617140   164A      4.708168
     165A      4.773200   166A      4.774414   167A      4.835579
     168A      4.964165   169A      5.003223   170A      5.004467
     171A      5.228554   172A      5.246975   173A      5.247215
     174A      5.354398   175A      5.356301   176A      5.478136

    Beta Occupied:

       1A    -10.167906     2A    -10.167721     3A    -10.167535
       4A    -10.166559     5A     -0.780850     6A     -0.684117
       7A     -0.683854     8A     -0.511534     9A     -0.431073
      10A     -0.430915    11A     -0.421855    12A     -0.376871
      13A     -0.376805    14A     -0.362800    15A     -0.333096
      16A     -0.332797

    Beta Virtual:

      17A     -0.025572    18A      0.077086    19A      0.135029
      20A      0.135163    21A      0.144607    22A      0.144652
      23A      0.163190    24A      0.182595    25A      0.182604
      26A      0.215154    27A      0.218687    28A      0.281786
      29A      0.282436    30A      0.400395    31A      0.400398
      32A      0.419876    33A      0.426914    34A      0.427009
      35A      0.468246    36A      0.497609    37A      0.497695
      38A      0.513941    39A      0.556412    40A      0.584204
      41A      0.584610    42A      0.597720    43A      0.598129
      44A      0.610045    45A      0.628221    46A      0.632155
      47A      0.639355    48A      0.639572    49A      0.666666
      50A      0.667053    51A      0.686482    52A      0.686500
      53A      0.757725    54A      0.830538    55A      0.830543
      56A      0.855121    57A      0.922906    58A      0.923180
      59A      0.945907    60A      0.953216    61A      0.966586
      62A      0.966727    63A      1.008872    64A      1.131969
      65A      1.132149    66A      1.155130    67A      1.168912
      68A      1.169037    69A      1.231937    70A      1.279733
      71A      1.280113    72A      1.284979    73A      1.329015
      74A      1.329233    75A      1.365066    76A      1.370956
      77A      1.371472    78A      1.393981    79A      1.407869
      80A      1.408552    81A      1.421909    82A      1.422427
      83A      1.428457    84A      1.492006    85A      1.510086
      86A      1.546947    87A      1.547157    88A      1.582057
      89A      1.582412    90A      1.675472    91A      1.744389
      92A      1.744956    93A      1.779079    94A      1.835246
      95A      1.836084    96A      1.971988    97A      2.024533
      98A      2.024722    99A      2.039886   100A      2.058064
     101A      2.059902   102A      2.746598   103A      2.746754
     104A      2.811749   105A      2.815871   106A      2.902211
     107A      2.902933   108A      2.924197   109A      2.931944
     110A      2.932280   111A      2.960108   112A      2.968671
     113A      2.969167   114A      3.041728   115A      3.080952
     116A      3.081451   117A      3.085754   118A      3.184342
     119A      3.184609   120A      3.187796   121A      3.290346
     122A      3.290443   123A      3.330288   124A      3.331156
     125A      3.383493   126A      3.492540   127A      3.493046
     128A      3.512220   129A      3.528048   130A      3.575125
     131A      3.580764   132A      3.582367   133A      3.672013
     134A      3.672169   135A      3.693530   136A      3.725561
     137A      3.725948   138A      3.779911   139A      3.782494
     140A      3.818032   141A      3.920537   142A      3.921429
     143A      4.044866   144A      4.117345   145A      4.119382
     146A      4.154907   147A      4.155878   148A      4.186576
     149A      4.207826   150A      4.208741   151A      4.209814
     152A      4.214976   153A      4.323046   154A      4.324148
     155A      4.362953   156A      4.433309   157A      4.434267
     158A      4.448287   159A      4.523484   160A      4.524979
     161A      4.587452   162A      4.588790   163A      4.624316
     164A      4.718510   165A      4.780196   166A      4.781329
     167A      4.838498   168A      4.968938   169A      5.007221
     170A      5.008502   171A      5.234252   172A      5.248738
     173A      5.249001   174A      5.360829   175A      5.362775
     176A      5.480450

    Final Occupation by Irrep:
              A
    DOCC [    16 ]
    SOCC [     1 ]

  @DF-UKS Final Energy:  -157.81304440331391

   => Energetics <=

    Nuclear Repulsion Energy =            125.3666795447457929
    One-Electron Energy =                -458.6939190021931836
    Two-Electron Energy =                 195.8214552748005133
    DFT Exchange-Correlation Energy =     -20.3072602206670467
    Empirical Dispersion Energy =           0.0000000000000000
    VV10 Nonlocal Energy =                  0.0000000000000000
    Total Energy =                       -157.8130444033139099

  UHF NO Occupations:
  HONO-2 :   15  A 1.9996025
  HONO-1 :   16  A 1.9989782
  HONO-0 :   17  A 1.0000000
  LUNO+0 :   18  A 0.0010218
  LUNO+1 :   19  A 0.0003975
  LUNO+2 :   20  A 0.0001989
  LUNO+3 :   21  A 0.0001977

Computation Completed

Properties will be evaluated at   0.000000,   0.000000,   0.000000 [a0]

Properties computed using the SCF density matrix

  Nuclear Dipole Moment: [e a0]
     X:     0.8264      Y:    -0.0000      Z:     0.0033

  Electronic Dipole Moment: [e a0]
     X:    -0.7484      Y:     0.0000      Z:    -0.0033

  Dipole Moment: [e a0]
     X:     0.0780      Y:     0.0000      Z:     0.0000     Total:     0.0780

  Dipole Moment: [D]
     X:     0.1984      Y:     0.0000      Z:     0.0001     Total:     0.1984

*** tstop() called on n082 at Fri Nov  5 13:28:23 2021
Module time:
	user time   =     493.85 seconds =       8.23 minutes
	system time =       4.62 seconds =       0.08 minutes
	total time  =        126 seconds =       2.10 minutes
Total time:
	user time   =     493.85 seconds =       8.23 minutes
	system time =       4.62 seconds =       0.08 minutes
	total time  =        126 seconds =       2.10 minutes
Grab this energy -157.8130444033139
    Psi4 stopped on: Friday, 05 November 2021 01:28PM
    Psi4 wall time for execution: 0:02:05.35

*** Psi4 exiting successfully. Buy a developer a beer!
