                               Psi4 1.4a2.dev629

  ==> Input File <==

--------------------------------------------------------------------------
import os
memory 14 GB

molecule {
 C   -0.3233405114    0.0002222568    0.0000000000
 C    0.0612236197   -1.4010827350   -2.4275719640
 C    0.0608524684    2.7994895554    0.0000000000
 C    0.0612236197   -1.4010827350    2.4275719640
 H    2.0869777887   -1.6440665364   -2.8470656596
 H   -0.7655229819   -0.3880650958   -4.0252038342
 H   -0.7655801944   -3.2919659255   -2.3486146757
 H    2.0867145415    3.2887889362   -0.0000000000
 H   -0.7655154197    3.6809177618    1.6763436551
 H   -0.7655154197    3.6809177618   -1.6763436551
 H    2.0869777887   -1.6440665364    2.8470656596
 H   -0.7655801944   -3.2919659255    2.3486146757
 H   -0.7655229819   -0.3880650958    4.0252038342
units bohr
0 2
}

basis {

assign 6-31g_2dfp_

[ 6-31g_2dfp_ ]

spherical

!----------------------------------------------------------------------
! Basis Set Exchange
! Version v0.8.13
! https://www.basissetexchange.org
!----------------------------------------------------------------------
!   Basis set: 6-31G(2df,p)
! Description: 6-31G(2df,p)
!        Role: orbital
!     Version: 0  (Data from the original Basis Set Exchange)
!----------------------------------------------------------------------

****
H     0
S    3   1.00
     18.7311370              0.03349460
      2.8253937              0.23472695
      0.6401217              0.81375733
S    1   1.00
      0.1612778              1.00000000
P    1   1.00
      1.5000000              1.0000000
P    1   1.00
      0.3750000              1.0000000
****
B     0
S    6   1.00
   2068.8823000              0.0018663
    310.6495700              0.0142515
     70.6830330              0.0695516
     19.8610800              0.2325729
      6.2993048              0.4670787
      2.1270270              0.3634314
SP   3   1.00
      4.7279710             -0.1303938              0.0745976
      1.1903377             -0.1307889              0.3078467
      0.3594117              1.1309444              0.7434568
SP   1   1.00
      0.1267512              1.0000000              1.0000000
D    1   1.00
      0.8020000              1.0000000
D    1   1.00
      0.2005000              1.0000000
F    1   1.00
      0.5000000              1.0000000
****
C     0
S    6   1.00
   3047.5249000              0.0018347
    457.3695100              0.0140373
    103.9486900              0.0688426
     29.2101550              0.2321844
      9.2866630              0.4679413
      3.1639270              0.3623120
SP   3   1.00
      7.8682724             -0.1193324              0.0689991
      1.8812885             -0.1608542              0.3164240
      0.5442493              1.1434564              0.7443083
SP   1   1.00
      0.1687144              1.0000000              1.0000000
D    1   1.00
      1.2520000              1.0000000
D    1   1.00
      0.3130000              1.0000000
F    1   1.00
      0.8000000              1.0000000
****
N     0
S    6   1.00
   4173.5110000              0.0018348
    627.4579000              0.0139950
    142.9021000              0.0685870
     40.2343300              0.2322410
     12.8202100              0.4690700
      4.3904370              0.3604550
SP   3   1.00
     11.6263580             -0.1149610              0.0675800
      2.7162800             -0.1691180              0.3239070
      0.7722180              1.1458520              0.7408950
SP   1   1.00
      0.2120313              1.0000000              1.0000000
D    1   1.00
      1.8260000              1.0000000
D    1   1.00
      0.4565000              1.0000000
F    1   1.00
      1.0000000              1.0000000
****
O     0
S    6   1.00
   5484.6717000              0.0018311
    825.2349500              0.0139501
    188.0469600              0.0684451
     52.9645000              0.2327143
     16.8975700              0.4701930
      5.7996353              0.3585209
SP   3   1.00
     15.5396160             -0.1107775              0.0708743
      3.5999336             -0.1480263              0.3397528
      1.0137618              1.1307670              0.7271586
SP   1   1.00
      0.2700058              1.0000000              1.0000000
D    1   1.00
      2.5840000              1.0000000
D    1   1.00
      0.6460000              1.0000000
F    1   1.00
      1.4000000              1.0000000
****
F     0
S    6   1.00
   7001.7130900              0.0018196169
   1051.3660900              0.0139160796
    239.2856900              0.0684053245
     67.3974453              0.233185760
     21.5199573              0.471267439
      7.40310130             0.356618546
SP   3   1.00
     20.8479528             -0.108506975            0.0716287243
      4.80830834            -0.146451658            0.3459121030
      1.34406986             1.128688580            0.7224699570
SP   1   1.00
      0.358151393            1.0000000              1.0000000
D    1   1.00
      3.5000000              1.0000000
D    1   1.00
      0.8750000              1.0000000
F    1   1.00
      1.8500000              1.0000000
****
Al     0
S    6   1.00
  13983.1000000              0.00194267
   2098.7500000              0.0148599
    477.7050000              0.0728494
    134.3600000              0.2468300
     42.8709000              0.4872580
     14.5189000              0.3234960
SP   6   1.00
    239.6680000             -0.00292619             0.00460285
     57.4419000             -0.0374080              0.0331990
     18.2859000             -0.1144870              0.1362820
      6.5991400              0.1156350              0.3304760
      2.4904900              0.6125950              0.4491460
      0.9445400              0.3937990              0.2657040
SP   3   1.00
      1.2779000             -0.2276060             -0.0175130
      0.3975900              0.00144583             0.2445330
      0.1600950              1.0927900              0.8049340
SP   1   1.00
      0.0556577              1.0000000              1.0000000
D    1   1.00
      0.6500000              1.0000000
D    1   1.00
      0.1625000              1.0000000
F    1   1.00
      0.2500000              1.0000000
****
Si     0
S    6   1.00
  16115.9000000              0.00195948
   2425.5800000              0.01492880
    553.8670000              0.07284780
    156.3400000              0.24613000
     50.0683000              0.48591400
     17.0178000              0.32500200
SP   6   1.00
    292.7180000             -0.00278094             0.00443826
     69.8731000             -0.03571460             0.03266790
     22.3363000             -0.11498500             0.13472100
      8.1503900              0.09356340             0.32867800
      3.1345800              0.60301700             0.44964000
      1.2254300              0.41895900             0.26137200
SP   3   1.00
      1.7273800             -0.24463000            -0.01779510
      0.5729220              0.00431572             0.25353900
      0.2221920              1.09818000             0.80066900
SP   1   1.00
      0.0778369              1.00000000             1.00000000
D    1   1.00
      0.9000000              1.0000000
D    1   1.00
      0.2250000              1.0000000
F    1   1.00
      0.3200000              1.0000000
****
P     0
S    6   1.00
  19413.3000000              0.0018516
   2909.4200000              0.0142062
    661.3640000              0.0699995
    185.7590000              0.2400790
     59.1943000              0.4847620
     20.0310000              0.3352000
SP   6   1.00
    339.4780000             -0.00278217             0.00456462
     81.0101000             -0.0360499              0.03369360
     25.8780000             -0.1166310              0.13975500
      9.4522100              0.0968328              0.33936200
      3.6656600              0.6144180              0.45092100
      1.4674600              0.4037980              0.23858600
SP   3   1.00
      2.1562300             -0.2529230             -0.01776530
      0.7489970              0.0328517              0.27405800
      0.2831450              1.0812500              0.78542100
SP   1   1.00
      0.0998317              1.0000000              1.00000000
D    1   1.00
      1.1000000              1.0000000
D    1   1.00
      0.2750000              1.0000000
F    1   1.00
      0.4500000              1.0000000
****
S     0
S    6   1.00
  21917.1000000              0.0018690
   3301.4900000              0.0142300
    754.1460000              0.0696960
    212.7110000              0.2384870
     67.9896000              0.4833070
     23.0515000              0.3380740
SP   6   1.00
    423.7350000             -0.0023767              0.0040610
    100.7100000             -0.0316930              0.0306810
     32.1599000             -0.1133170              0.1304520
     11.8079000              0.0560900              0.3272050
      4.6311000              0.5922550              0.4528510
      1.8702500              0.4550060              0.2560420
SP   3   1.00
      2.6158400             -0.2503740             -0.0145110
      0.9221670              0.0669570              0.3102630
      0.3412870              1.0545100              0.7544830
SP   1   1.00
      0.1171670              1.0000000              1.0000000
D    1   1.00
      1.3000000              1.0000000
D    1   1.00
      0.3250000              1.0000000
F    1   1.00
      0.5500000              1.0000000
****
Cl     0
S    6   1.00
  25180.1000000              0.0018330
   3780.3500000              0.0140340
    860.4740000              0.0690970
    242.1450000              0.2374520
     77.3349000              0.4830340
     26.2470000              0.3398560
SP   6   1.00
    491.7650000             -0.0022974              0.0039894
    116.9840000             -0.0307140              0.0303180
     37.4153000             -0.1125280              0.1298800
     13.7834000              0.0450160              0.3279510
      5.4521500              0.5893530              0.4535270
      2.2258800              0.4652060              0.2521540
SP   3   1.00
      3.1864900             -0.2518300             -0.0142990
      1.1442700              0.0615890              0.3235720
      0.4203770              1.0601800              0.7435070
SP   1   1.00
      0.1426570              1.0000000              1.0000000
D    1   1.00
      1.5000000              1.0000000
D    1   1.00
      0.3750000              1.0000000
F    1   1.00
      0.7000000              1.0000000
****
}

set {
reference uhf
freeze_core true
e_convergence 10
d_convergence 10
dft_spherical_points 1202
dft_radial_points 99
}

e = energy('b3lyp')

print_out('Grab this energy {0}'.format(e))
--------------------------------------------------------------------------

    Molecular point group: cs

    Geometry (in Bohr), charge = 0, multiplicity = 2:

       Center              X                  Y                   Z               Mass
    ------------   -----------------  -----------------  -----------------  -----------------
         C           -0.323340353702     0.000695278323     0.000000000000    12.000000000000
         C            0.061223777398    -1.400609713477    -2.427571964000    12.000000000000
         C            0.060852626098     2.799962576923     0.000000000000    12.000000000000
         C            0.061223777398    -1.400609713477     2.427571964000    12.000000000000
         H            2.086977946398    -1.643593514877    -2.847065659600     1.007825032230
         H           -0.765522824202    -0.387592074277    -4.025203834200     1.007825032230
         H           -0.765580036702    -3.291492903977    -2.348614675700     1.007825032230
         H            2.086714699198     3.289261957723     0.000000000000     1.007825032230
         H           -0.765515262002     3.681390783323     1.676343655100     1.007825032230
         H           -0.765515262002     3.681390783323    -1.676343655100     1.007825032230
         H            2.086977946398    -1.643593514877     2.847065659600     1.007825032230
         H           -0.765580036702    -3.291492903977     2.348614675700     1.007825032230
         H           -0.765522824202    -0.387592074277     4.025203834200     1.007825032230

  Charge       = 0
  Multiplicity = 2
  Basis Set: ANONYMOUSF25F4E1D
    Blend: 6-31G_2DFP_
  Basis Set: (ANONYMOUSF25F4E1D AUX)
    Blend: DEF2-UNIVERSAL-JKFIT

    Orbital Energies [Eh]
    ---------------------

    Alpha Occupied:

       1Ap   -10.180342     2Ap   -10.167063     1App  -10.167009
       3Ap   -10.166973     4Ap    -0.797766     2App   -0.686209
       5Ap    -0.686164     6Ap    -0.530776     7Ap    -0.441123
       8Ap    -0.434752     3App   -0.434589     4App   -0.382688
       9Ap    -0.382509     5App   -0.363612    10Ap    -0.338207
       6App   -0.337790    11Ap    -0.168961

    Alpha Virtual:

      12Ap     0.076073    13Ap     0.134137     7App    0.134174
       8App    0.142565    14Ap     0.142693    15Ap     0.154879
      16Ap     0.178696     9App    0.178860    17Ap     0.203545
      10App    0.214802    11App    0.275759    18Ap     0.276212
      12App    0.399221    19Ap     0.399235    20Ap     0.403346
      13App    0.424053    21Ap     0.424141    22Ap     0.456593
      14App    0.495368    23Ap     0.495410    15App    0.512160
      24Ap     0.513980    16App    0.578783    25Ap     0.578847
      26Ap     0.591575    17App    0.591695    27Ap     0.602573
      28Ap     0.624762    18App    0.631772    19App    0.636082
      29Ap     0.636414    20App    0.663350    30Ap     0.663472
      31Ap     0.683830    21App    0.683873    32Ap     0.734994
      33Ap     0.825354    22App    0.825461    23App    0.853916
      24App    0.915008    34Ap     0.915044    25App    0.944126
      35Ap     0.944614    36Ap     0.961268    26App    0.961316
      37Ap     1.003452    27App    1.128044    38Ap     1.128173
      39Ap     1.142227    28App    1.162986    40Ap     1.163552
      41Ap     1.223325    29App    1.274191    42Ap     1.274776
      43Ap     1.279372    30App    1.324292    44Ap     1.324425
      45Ap     1.355992    31App    1.365902    46Ap     1.366214
      32App    1.392451    47Ap     1.403869    33App    1.404227
      34App    1.416945    48Ap     1.417267    35App    1.427921
      36App    1.491491    49Ap     1.499078    37App    1.542756
      50Ap     1.542898    38App    1.574253    51Ap     1.574636
      52Ap     1.669820    53Ap     1.739281    39App    1.739562
      54Ap     1.768313    55Ap     1.830895    40App    1.831900
      41App    1.971728    56Ap     2.018259    42App    2.018515
      57Ap     2.019613    43App    2.051955    58Ap     2.053327
      59Ap     2.738365    44App    2.738606    60Ap     2.790923
      45App    2.811426    46App    2.889882    61Ap     2.890022
      62Ap     2.894948    47App    2.929437    63Ap     2.929552
      48App    2.958993    49App    2.964303    64Ap     2.964446
      65Ap     3.034009    66Ap     3.071155    50App    3.071412
      51App    3.084352    52App    3.168598    67Ap     3.168946
      68Ap     3.180604    53App    3.285304    69Ap     3.285325
      54App    3.326975    70Ap     3.327343    71Ap     3.375615
      55App    3.489817    72Ap     3.490498    56App    3.514015
      73Ap     3.525331    57App    3.568300    74Ap     3.568487
      58App    3.575140    75Ap     3.665674    59App    3.667080
      76Ap     3.679663    77Ap     3.694018    60App    3.694234
      61App    3.776629    78Ap     3.776970    79Ap     3.789119
      62App    3.911479    80Ap     3.912971    81Ap     4.034455
      63App    4.111216    82Ap     4.111530    64App    4.147832
      83Ap     4.148413    84Ap     4.173247    85Ap     4.202479
      65App    4.202667    86Ap     4.203657    66App    4.210858
      67App    4.315229    87Ap     4.316672    68App    4.358979
      69App    4.423437    88Ap     4.425391    70App    4.443521
      71App    4.516189    89Ap     4.517490    72App    4.578249
      90Ap     4.578293    91Ap     4.617536    92Ap     4.709451
      93Ap     4.774265    73App    4.774879    74App    4.836918
      94Ap     4.962828    95Ap     5.002283    75App    5.003658
      96Ap     5.228039    76App    5.246609    97Ap     5.247008
      77App    5.355443    98Ap     5.355561    78App    5.479347

    Beta Occupied:

       1Ap   -10.167822     1App  -10.167760     2Ap   -10.167742
       3Ap   -10.166519     4Ap    -0.781091     2App   -0.684018
       5Ap    -0.683961     6Ap    -0.511748     7Ap    -0.431125
       3App   -0.430958     8Ap    -0.421821     4App   -0.376793
       9Ap    -0.376574     5App   -0.362596    10Ap    -0.333331
       6App   -0.332913

    Beta Virtual:

      11Ap    -0.025743    12Ap     0.077082     7App    0.135043
      13Ap     0.135048     8App    0.144452    14Ap     0.144546
      15Ap     0.163339    16Ap     0.182379     9App    0.182520
      10App    0.215032    17Ap     0.218928    11App    0.282116
      18Ap     0.282552    12App    0.400393    19Ap     0.400402
      20Ap     0.419791    13App    0.426863    21Ap     0.426954
      22Ap     0.468501    14App    0.497622    23Ap     0.497678
      15App    0.513895    24Ap     0.556325    16App    0.584328
      25Ap     0.584403    26Ap     0.597755    17App    0.597874
      27Ap     0.609997    28Ap     0.628136    18App    0.631930
      19App    0.639371    29Ap     0.639696    20App    0.666909
      30Ap     0.667042    31Ap     0.686478    21App    0.686496
      32Ap     0.757517    33Ap     0.830518    22App    0.830635
      23App    0.855269    24App    0.922977    34Ap     0.923018
      25App    0.945963    35Ap     0.953543    36Ap     0.966577
      26App    0.966619    37Ap     1.008692    27App    1.132076
      38Ap     1.132201    39Ap     1.155599    28App    1.168040
      40Ap     1.168646    41Ap     1.232297    29App    1.279785
      42Ap     1.280376    43Ap     1.285126    30App    1.329295
      44Ap     1.329401    45Ap     1.365409    31App    1.371172
      46Ap     1.371429    32App    1.393509    47Ap     1.407387
      33App    1.407641    34App    1.422007    48Ap     1.422299
      35App    1.428195    36App    1.492539    49Ap     1.509521
      37App    1.547157    50Ap     1.547313    38App    1.582118
      51Ap     1.582516    52Ap     1.674667    53Ap     1.745039
      39App    1.745326    54Ap     1.779095    55Ap     1.834760
      40App    1.835745    41App    1.972587    42App    2.024911
      56Ap     2.025990    57Ap     2.039662    43App    2.058668
      58Ap     2.060049    59Ap     2.746723    44App    2.746919
      45App    2.811838    60Ap     2.816058    46App    2.902592
      61Ap     2.902694    62Ap     2.924647    47App    2.931932
      63Ap     2.932020    48App    2.960056    49App    2.968833
      64Ap     2.969005    65Ap     3.041944    66Ap     3.081071
      50App    3.081314    51App    3.086172    52App    3.184337
      67Ap     3.184658    68Ap     3.188335    69Ap     3.290097
      53App    3.290129    54App    3.330787    70Ap     3.331139
      71Ap     3.383434    55App    3.492524    72Ap     3.493250
      56App    3.512381    73Ap     3.528376    57App    3.574996
      58App    3.581626    74Ap     3.581845    75Ap     3.670397
      59App    3.671855    76Ap     3.692957    77Ap     3.725636
      60App    3.725881    61App    3.781111    78Ap     3.781537
      79Ap     3.817666    62App    3.921346    80Ap     3.922736
      81Ap     4.045342    63App    4.117929    82Ap     4.118447
      64App    4.155137    83Ap     4.155528    84Ap     4.187307
      65App    4.208594    85Ap     4.209290    86Ap     4.210761
      66App    4.215333    67App    4.322639    87Ap     4.324140
      68App    4.362342    69App    4.431659    88Ap     4.433575
      70App    4.446429    71App    4.523984    89Ap     4.525275
      72App    4.588835    90Ap     4.588911    91Ap     4.624729
      92Ap     4.719796    93Ap     4.781238    73App    4.781812
      74App    4.839836    94Ap     4.967623    95Ap     5.006337
      75App    5.007682    96Ap     5.233755    76App    5.248401
      97Ap     5.248785    77App    5.361903    98Ap     5.362062
      78App    5.481669

    Final Occupation by Irrep:
             Ap   App
    DOCC [    10,    6 ]
    SOCC [     1,    0 ]

  @DF-UKS Final Energy:  -157.81307198047364

   => Energetics <=

    Nuclear Repulsion Energy =            125.3945918176576555
    One-Electron Energy =                -458.7488548706380698
    Two-Electron Energy =                 195.8483329058064726
    DFT Exchange-Correlation Energy =     -20.3071418332997062
    Empirical Dispersion Energy =           0.0000000000000000
    VV10 Nonlocal Energy =                  0.0000000000000000
    Total Energy =                       -157.8130719804736373

  UHF NO Occupations:
  HONO-2 :    9 Ap 1.9996009
  HONO-1 :   10 Ap 1.9989805
  HONO-0 :   11 Ap 1.0000000
  LUNO+0 :   12 Ap 0.0010195
  LUNO+1 :   13 Ap 0.0003991
  LUNO+2 :    7App 0.0001979
  LUNO+3 :   14 Ap 0.0001972

Computation Completed

Properties will be evaluated at   0.000000,   0.000000,   0.000000 [a0]

Properties computed using the SCF density matrix

  Nuclear Dipole Moment: [e a0]
     X:     0.8272      Y:     0.0033      Z:     0.0000

  Electronic Dipole Moment: [e a0]
     X:    -0.7493      Y:    -0.0034      Z:     0.0000

  Dipole Moment: [e a0]
     X:     0.0779      Y:    -0.0001      Z:     0.0000     Total:     0.0779

  Dipole Moment: [D]
     X:     0.1980      Y:    -0.0002      Z:     0.0000     Total:     0.1980

*** tstop() called on n091 at Fri Nov  5 12:54:06 2021
Module time:
	user time   =     490.83 seconds =       8.18 minutes
	system time =       4.49 seconds =       0.07 minutes
	total time  =        124 seconds =       2.07 minutes
Total time:
	user time   =     490.83 seconds =       8.18 minutes
	system time =       4.49 seconds =       0.07 minutes
	total time  =        124 seconds =       2.07 minutes
Grab this energy -157.81307198047364
    Psi4 stopped on: Friday, 05 November 2021 12:54PM
    Psi4 wall time for execution: 0:02:04.59

*** Psi4 exiting successfully. Buy a developer a beer!
