                               Psi4 1.4a2.dev629

  ==> Input File <==

--------------------------------------------------------------------------
import os
memory 14 GB

molecule {
 C   -0.3233384766   -0.0002285977   -0.0053452826
 C    0.0609282368   -1.4002167239   -2.4255112559
 C    0.0611869655    2.8040246877   -0.0011060274
 C    0.0611844431   -1.4011253296    2.4248714338
 H    2.0871025722   -1.6443024254   -2.8471173024
 H   -0.7656581145   -0.3878281882   -4.0247556733
 H   -0.7650918899   -3.2924974329   -2.3487594691
 H    2.0868757223    3.2874185767    0.0009990669
 H   -0.7649401854    3.6804453112    1.6773864819
 H   -0.7666085357    3.6787331777   -1.6759187540
 H    2.0866893115   -1.6439556237    2.8485206583
 H   -0.7660227343   -3.2915651874    2.3499664506
 H   -0.7649151916   -0.3889265578    4.0267696732
units bohr
0 2
}

basis {

assign 6-31g_2dfp_

[ 6-31g_2dfp_ ]

spherical

!----------------------------------------------------------------------
! Basis Set Exchange
! Version v0.8.13
! https://www.basissetexchange.org
!----------------------------------------------------------------------
!   Basis set: 6-31G(2df,p)
! Description: 6-31G(2df,p)
!        Role: orbital
!     Version: 0  (Data from the original Basis Set Exchange)
!----------------------------------------------------------------------

****
H     0
S    3   1.00
     18.7311370              0.03349460
      2.8253937              0.23472695
      0.6401217              0.81375733
S    1   1.00
      0.1612778              1.00000000
P    1   1.00
      1.5000000              1.0000000
P    1   1.00
      0.3750000              1.0000000
****
B     0
S    6   1.00
   2068.8823000              0.0018663
    310.6495700              0.0142515
     70.6830330              0.0695516
     19.8610800              0.2325729
      6.2993048              0.4670787
      2.1270270              0.3634314
SP   3   1.00
      4.7279710             -0.1303938              0.0745976
      1.1903377             -0.1307889              0.3078467
      0.3594117              1.1309444              0.7434568
SP   1   1.00
      0.1267512              1.0000000              1.0000000
D    1   1.00
      0.8020000              1.0000000
D    1   1.00
      0.2005000              1.0000000
F    1   1.00
      0.5000000              1.0000000
****
C     0
S    6   1.00
   3047.5249000              0.0018347
    457.3695100              0.0140373
    103.9486900              0.0688426
     29.2101550              0.2321844
      9.2866630              0.4679413
      3.1639270              0.3623120
SP   3   1.00
      7.8682724             -0.1193324              0.0689991
      1.8812885             -0.1608542              0.3164240
      0.5442493              1.1434564              0.7443083
SP   1   1.00
      0.1687144              1.0000000              1.0000000
D    1   1.00
      1.2520000              1.0000000
D    1   1.00
      0.3130000              1.0000000
F    1   1.00
      0.8000000              1.0000000
****
N     0
S    6   1.00
   4173.5110000              0.0018348
    627.4579000              0.0139950
    142.9021000              0.0685870
     40.2343300              0.2322410
     12.8202100              0.4690700
      4.3904370              0.3604550
SP   3   1.00
     11.6263580             -0.1149610              0.0675800
      2.7162800             -0.1691180              0.3239070
      0.7722180              1.1458520              0.7408950
SP   1   1.00
      0.2120313              1.0000000              1.0000000
D    1   1.00
      1.8260000              1.0000000
D    1   1.00
      0.4565000              1.0000000
F    1   1.00
      1.0000000              1.0000000
****
O     0
S    6   1.00
   5484.6717000              0.0018311
    825.2349500              0.0139501
    188.0469600              0.0684451
     52.9645000              0.2327143
     16.8975700              0.4701930
      5.7996353              0.3585209
SP   3   1.00
     15.5396160             -0.1107775              0.0708743
      3.5999336             -0.1480263              0.3397528
      1.0137618              1.1307670              0.7271586
SP   1   1.00
      0.2700058              1.0000000              1.0000000
D    1   1.00
      2.5840000              1.0000000
D    1   1.00
      0.6460000              1.0000000
F    1   1.00
      1.4000000              1.0000000
****
F     0
S    6   1.00
   7001.7130900              0.0018196169
   1051.3660900              0.0139160796
    239.2856900              0.0684053245
     67.3974453              0.233185760
     21.5199573              0.471267439
      7.40310130             0.356618546
SP   3   1.00
     20.8479528             -0.108506975            0.0716287243
      4.80830834            -0.146451658            0.3459121030
      1.34406986             1.128688580            0.7224699570
SP   1   1.00
      0.358151393            1.0000000              1.0000000
D    1   1.00
      3.5000000              1.0000000
D    1   1.00
      0.8750000              1.0000000
F    1   1.00
      1.8500000              1.0000000
****
Al     0
S    6   1.00
  13983.1000000              0.00194267
   2098.7500000              0.0148599
    477.7050000              0.0728494
    134.3600000              0.2468300
     42.8709000              0.4872580
     14.5189000              0.3234960
SP   6   1.00
    239.6680000             -0.00292619             0.00460285
     57.4419000             -0.0374080              0.0331990
     18.2859000             -0.1144870              0.1362820
      6.5991400              0.1156350              0.3304760
      2.4904900              0.6125950              0.4491460
      0.9445400              0.3937990              0.2657040
SP   3   1.00
      1.2779000             -0.2276060             -0.0175130
      0.3975900              0.00144583             0.2445330
      0.1600950              1.0927900              0.8049340
SP   1   1.00
      0.0556577              1.0000000              1.0000000
D    1   1.00
      0.6500000              1.0000000
D    1   1.00
      0.1625000              1.0000000
F    1   1.00
      0.2500000              1.0000000
****
Si     0
S    6   1.00
  16115.9000000              0.00195948
   2425.5800000              0.01492880
    553.8670000              0.07284780
    156.3400000              0.24613000
     50.0683000              0.48591400
     17.0178000              0.32500200
SP   6   1.00
    292.7180000             -0.00278094             0.00443826
     69.8731000             -0.03571460             0.03266790
     22.3363000             -0.11498500             0.13472100
      8.1503900              0.09356340             0.32867800
      3.1345800              0.60301700             0.44964000
      1.2254300              0.41895900             0.26137200
SP   3   1.00
      1.7273800             -0.24463000            -0.01779510
      0.5729220              0.00431572             0.25353900
      0.2221920              1.09818000             0.80066900
SP   1   1.00
      0.0778369              1.00000000             1.00000000
D    1   1.00
      0.9000000              1.0000000
D    1   1.00
      0.2250000              1.0000000
F    1   1.00
      0.3200000              1.0000000
****
P     0
S    6   1.00
  19413.3000000              0.0018516
   2909.4200000              0.0142062
    661.3640000              0.0699995
    185.7590000              0.2400790
     59.1943000              0.4847620
     20.0310000              0.3352000
SP   6   1.00
    339.4780000             -0.00278217             0.00456462
     81.0101000             -0.0360499              0.03369360
     25.8780000             -0.1166310              0.13975500
      9.4522100              0.0968328              0.33936200
      3.6656600              0.6144180              0.45092100
      1.4674600              0.4037980              0.23858600
SP   3   1.00
      2.1562300             -0.2529230             -0.01776530
      0.7489970              0.0328517              0.27405800
      0.2831450              1.0812500              0.78542100
SP   1   1.00
      0.0998317              1.0000000              1.00000000
D    1   1.00
      1.1000000              1.0000000
D    1   1.00
      0.2750000              1.0000000
F    1   1.00
      0.4500000              1.0000000
****
S     0
S    6   1.00
  21917.1000000              0.0018690
   3301.4900000              0.0142300
    754.1460000              0.0696960
    212.7110000              0.2384870
     67.9896000              0.4833070
     23.0515000              0.3380740
SP   6   1.00
    423.7350000             -0.0023767              0.0040610
    100.7100000             -0.0316930              0.0306810
     32.1599000             -0.1133170              0.1304520
     11.8079000              0.0560900              0.3272050
      4.6311000              0.5922550              0.4528510
      1.8702500              0.4550060              0.2560420
SP   3   1.00
      2.6158400             -0.2503740             -0.0145110
      0.9221670              0.0669570              0.3102630
      0.3412870              1.0545100              0.7544830
SP   1   1.00
      0.1171670              1.0000000              1.0000000
D    1   1.00
      1.3000000              1.0000000
D    1   1.00
      0.3250000              1.0000000
F    1   1.00
      0.5500000              1.0000000
****
Cl     0
S    6   1.00
  25180.1000000              0.0018330
   3780.3500000              0.0140340
    860.4740000              0.0690970
    242.1450000              0.2374520
     77.3349000              0.4830340
     26.2470000              0.3398560
SP   6   1.00
    491.7650000             -0.0022974              0.0039894
    116.9840000             -0.0307140              0.0303180
     37.4153000             -0.1125280              0.1298800
     13.7834000              0.0450160              0.3279510
      5.4521500              0.5893530              0.4535270
      2.2258800              0.4652060              0.2521540
SP   3   1.00
      3.1864900             -0.2518300             -0.0142990
      1.1442700              0.0615890              0.3235720
      0.4203770              1.0601800              0.7435070
SP   1   1.00
      0.1426570              1.0000000              1.0000000
D    1   1.00
      1.5000000              1.0000000
D    1   1.00
      0.3750000              1.0000000
F    1   1.00
      0.7000000              1.0000000
****
}

set {
reference uhf
freeze_core true
e_convergence 10
d_convergence 10
dft_spherical_points 1202
dft_radial_points 99
}

e = energy('b3lyp')

print_out('Grab this energy {0}'.format(e))
--------------------------------------------------------------------------

    Molecular point group: c1

    Geometry (in Bohr), charge = 0, multiplicity = 2:

       Center              X                  Y                   Z               Mass
    ------------   -----------------  -----------------  -----------------  -----------------
         C           -0.323338698802    -0.000700833449    -0.003979479483    12.000000000000
         C            0.060928014598    -1.400688959649    -2.424145452783    12.000000000000
         C            0.061186743298     2.803552451951     0.000259775717    12.000000000000
         C            0.061184220898    -1.401597565349     2.426237236917    12.000000000000
         H            2.087102349998    -1.644774661149    -2.845751499283     1.007825032230
         H           -0.765658336702    -0.388300423949    -4.023389870183     1.007825032230
         H           -0.765092112102    -3.292969668649    -2.347393665983     1.007825032230
         H            2.086875500098     3.286946340951     0.002364870017     1.007825032230
         H           -0.764940407602     3.679973075451     1.678752285017     1.007825032230
         H           -0.766608757902     3.678260941951    -1.674552950883     1.007825032230
         H            2.086689089298    -1.644427859449     2.849886461417     1.007825032230
         H           -0.766022956502    -3.292037423149     2.351332253717     1.007825032230
         H           -0.764915413802    -0.389398793549     4.028135476317     1.007825032230

  Charge       = 0
  Multiplicity = 2
  Basis Set: ANONYMOUS2844995C
    Blend: 6-31G_2DFP_
  Basis Set: (ANONYMOUS2844995C AUX)
    Blend: DEF2-UNIVERSAL-JKFIT

    Orbital Energies [Eh]
    ---------------------

    Alpha Occupied:

       1A    -10.180341     2A    -10.167070     3A    -10.167011
       4A    -10.166963     5A     -0.797769     6A     -0.686377
       7A     -0.685996     8A     -0.530776     9A     -0.441131
      10A     -0.434898    11A     -0.434440    12A     -0.382749
      13A     -0.382452    14A     -0.363610    15A     -0.338556
      16A     -0.337438    17A     -0.168960

    Alpha Virtual:

      18A      0.076072    19A      0.134133    20A      0.134177
      21A      0.142441    22A      0.142814    23A      0.154880
      24A      0.178697    25A      0.178861    26A      0.203542
      27A      0.214803    28A      0.275619    29A      0.276352
      30A      0.399103    31A      0.399352    32A      0.403347
      33A      0.424054    34A      0.424141    35A      0.456593
      36A      0.495336    37A      0.495442    38A      0.512160
      39A      0.513978    40A      0.578613    41A      0.579010
      42A      0.591582    43A      0.591705    44A      0.602576
      45A      0.624751    46A      0.631771    47A      0.636024
      48A      0.636489    49A      0.663322    50A      0.663503
      51A      0.683798    52A      0.683906    53A      0.734994
      54A      0.825286    55A      0.825529    56A      0.853916
      57A      0.914910    58A      0.915134    59A      0.944126
      60A      0.944619    61A      0.961114    62A      0.961471
      63A      1.003452    64A      1.127814    65A      1.128359
      66A      1.142270    67A      1.162783    68A      1.163754
      69A      1.223328    70A      1.273930    71A      1.275037
      72A      1.279369    73A      1.324244    74A      1.324469
      75A      1.355993    76A      1.365746    77A      1.366371
      78A      1.392435    79A      1.403864    80A      1.404222
      81A      1.416763    82A      1.417460    83A      1.427937
      84A      1.491487    85A      1.499080    86A      1.542762
      87A      1.542900    88A      1.574251    89A      1.574640
      90A      1.669819    91A      1.739186    92A      1.739663
      93A      1.768311    94A      1.830827    95A      1.831963
      96A      1.971732    97A      2.018038    98A      2.018517
      99A      2.019841   100A      2.051783   101A      2.053520
     102A      2.738219   103A      2.738754   104A      2.790925
     105A      2.811423   106A      2.889381   107A      2.890514
     108A      2.894944   109A      2.929100   110A      2.929892
     111A      2.958989   112A      2.964202   113A      2.964557
     114A      3.034001   115A      3.070764   116A      3.071816
     117A      3.084350   118A      3.168542   119A      3.168946
     120A      3.180677   121A      3.285012   122A      3.285613
     123A      3.326725   124A      3.327585   125A      3.375602
     126A      3.489509   127A      3.490774   128A      3.514024
     129A      3.525337   130A      3.568145   131A      3.568637
     132A      3.575146   133A      3.665640   134A      3.667096
     135A      3.679676   136A      3.693968   137A      3.694271
     138A      3.776029   139A      3.777545   140A      3.789176
     141A      3.911342   142A      3.913112   143A      4.034433
     144A      4.111015   145A      4.111718   146A      4.147094
     147A      4.149139   148A      4.173264   149A      4.202240
     150A      4.202524   151A      4.204032   152A      4.210886
     153A      4.315036   154A      4.316881   155A      4.358984
     156A      4.423509   157A      4.425291   158A      4.443545
     159A      4.516178   160A      4.517505   161A      4.577889
     162A      4.578353   163A      4.617840   164A      4.709464
     165A      4.773944   166A      4.775235   167A      4.836909
     168A      4.962791   169A      5.002217   170A      5.003782
     171A      5.228041   172A      5.246615   173A      5.247023
     174A      5.354940   175A      5.356067   176A      5.479346

    Beta Occupied:

       1A    -10.167825     2A    -10.167771     3A    -10.167727
       4A    -10.166519     5A     -0.781094     6A     -0.684169
       7A     -0.683810     8A     -0.511747     9A     -0.431271
      10A     -0.430818    11A     -0.421818    12A     -0.376821
      13A     -0.376551    14A     -0.362593    15A     -0.333689
      16A     -0.332552

    Beta Virtual:

      17A     -0.025743    18A      0.077081    19A      0.135040
      20A      0.135049    21A      0.144327    22A      0.144670
      23A      0.163339    24A      0.182378    25A      0.182522
      26A      0.215032    27A      0.218924    28A      0.281999
      29A      0.282666    30A      0.400276    31A      0.400519
      32A      0.419792    33A      0.426862    34A      0.426955
      35A      0.468500    36A      0.497591    37A      0.497708
      38A      0.513895    39A      0.556321    40A      0.584141
      41A      0.584587    42A      0.597761    43A      0.597883
      44A      0.610001    45A      0.628124    46A      0.631929
      47A      0.639304    48A      0.639781    49A      0.666886
      50A      0.667067    51A      0.686435    52A      0.686540
      53A      0.757516    54A      0.830456    55A      0.830696
      56A      0.855269    57A      0.922854    58A      0.923131
      59A      0.945963    60A      0.953547    61A      0.966414
      62A      0.966783    63A      1.008693    64A      1.131886
      65A      1.132366    66A      1.155623    67A      1.167851
      68A      1.168834    69A      1.232300    70A      1.279565
      71A      1.280599    72A      1.285121    73A      1.329250
      74A      1.329442    75A      1.365408    76A      1.371045
      77A      1.371560    78A      1.393495    79A      1.407345
      80A      1.407668    81A      1.421827    82A      1.422487
      83A      1.428215    84A      1.492536    85A      1.509523
      86A      1.547160    87A      1.547318    88A      1.582119
      89A      1.582515    90A      1.674667    91A      1.744942
      92A      1.745430    93A      1.779092    94A      1.834685
      95A      1.835816    96A      1.972592    97A      2.024661
      98A      2.026238    99A      2.039663   100A      2.058509
     101A      2.060235   102A      2.746534   103A      2.747109
     104A      2.811835   105A      2.816060   106A      2.902161
     107A      2.903115   108A      2.924642   109A      2.931529
     110A      2.932431   111A      2.960054   112A      2.968740
     113A      2.969105   114A      3.041936   115A      3.080747
     116A      3.081649   117A      3.086170   118A      3.184238
     119A      3.184582   120A      3.188528   121A      3.289851
     122A      3.290371   123A      3.330531   124A      3.331387
     125A      3.383421   126A      3.492216   127A      3.493522
     128A      3.512395   129A      3.528383   130A      3.574993
     131A      3.581536   132A      3.581942   133A      3.670385
     134A      3.671849   135A      3.692968   136A      3.725531
     137A      3.725970   138A      3.780560   139A      3.782089
     140A      3.817688   141A      3.921203   142A      3.922890
     143A      4.045320   144A      4.117810   145A      4.118555
     146A      4.154353   147A      4.156300   148A      4.187321
     149A      4.208392   150A      4.209231   151A      4.211009
     152A      4.215366   153A      4.322412   154A      4.324383
     155A      4.362348   156A      4.431751   157A      4.433442
     158A      4.446469   159A      4.523964   160A      4.525299
     161A      4.588479   162A      4.588941   163A      4.625056
     164A      4.719811   165A      4.780873   166A      4.782212
     167A      4.839827   168A      4.967584   169A      5.006278
     170A      5.007801   171A      5.233757   172A      5.248407
     173A      5.248799   174A      5.361392   175A      5.362577
     176A      5.481667

    Final Occupation by Irrep:
              A
    DOCC [    16 ]
    SOCC [     1 ]

  @DF-UKS Final Energy:  -157.81306299859799

   => Energetics <=

    Nuclear Repulsion Energy =            125.3946725080716078
    One-Electron Energy =                -458.7489899781684244
    Two-Electron Energy =                 195.8484005072739933
    DFT Exchange-Correlation Energy =     -20.3071460357751583
    Empirical Dispersion Energy =           0.0000000000000000
    VV10 Nonlocal Energy =                  0.0000000000000000
    Total Energy =                       -157.8130629985979851

  UHF NO Occupations:
  HONO-2 :   15  A 1.9996008
  HONO-1 :   16  A 1.9989804
  HONO-0 :   17  A 1.0000000
  LUNO+0 :   18  A 0.0010196
  LUNO+1 :   19  A 0.0003992
  LUNO+2 :   20  A 0.0001987
  LUNO+3 :   21  A 0.0001964

Computation Completed

Properties will be evaluated at   0.000000,   0.000000,   0.000000 [a0]

Properties computed using the SCF density matrix

  Nuclear Dipole Moment: [e a0]
     X:     0.8272      Y:    -0.0033      Z:     0.0096

  Electronic Dipole Moment: [e a0]
     X:    -0.7493      Y:     0.0034      Z:    -0.0108

  Dipole Moment: [e a0]
     X:     0.0779      Y:     0.0001      Z:    -0.0012     Total:     0.0779

  Dipole Moment: [D]
     X:     0.1980      Y:     0.0002      Z:    -0.0031     Total:     0.1981

*** tstop() called on n023 at Fri Nov  5 12:57:01 2021
Module time:
	user time   =     636.31 seconds =      10.61 minutes
	system time =      12.21 seconds =       0.20 minutes
	total time  =        163 seconds =       2.72 minutes
Total time:
	user time   =     636.31 seconds =      10.61 minutes
	system time =      12.21 seconds =       0.20 minutes
	total time  =        163 seconds =       2.72 minutes
Grab this energy -157.81306299859799
    Psi4 stopped on: Friday, 05 November 2021 12:57PM
    Psi4 wall time for execution: 0:02:43.03

*** Psi4 exiting successfully. Buy a developer a beer!
