                               Psi4 1.4a2.dev629

  ==> Input File <==

--------------------------------------------------------------------------
import os
memory 14 GB

molecule {
 C   -0.3265078033   -0.0004370065    0.0000000000
 C    0.0599712510   -1.4019835349   -2.4258886745
 C    0.0593844274    2.8020437942    0.0000000000
 C    0.0599712510   -1.4019835349    2.4258886745
 H    2.0868151535   -1.6468542030   -2.8461584869
 H   -0.7669792211   -0.3859123371   -4.0273472528
 H   -0.7615970022   -3.2903974481   -2.3486387057
 H    2.0880417320    3.2883551170    0.0000000000
 H   -0.7649732976    3.6801544140    1.6759855424
 H   -0.7649732976    3.6801544140   -1.6759855424
 H    2.0868151535   -1.6468542030    2.8461584869
 H   -0.7615970022   -3.2903974481    2.3486387057
 H   -0.7669792211   -0.3859123371    4.0273472528
units bohr
0 2
}

basis {

assign 6-31g_2dfp_

[ 6-31g_2dfp_ ]

spherical

!----------------------------------------------------------------------
! Basis Set Exchange
! Version v0.8.13
! https://www.basissetexchange.org
!----------------------------------------------------------------------
!   Basis set: 6-31G(2df,p)
! Description: 6-31G(2df,p)
!        Role: orbital
!     Version: 0  (Data from the original Basis Set Exchange)
!----------------------------------------------------------------------

****
H     0
S    3   1.00
     18.7311370              0.03349460
      2.8253937              0.23472695
      0.6401217              0.81375733
S    1   1.00
      0.1612778              1.00000000
P    1   1.00
      1.5000000              1.0000000
P    1   1.00
      0.3750000              1.0000000
****
B     0
S    6   1.00
   2068.8823000              0.0018663
    310.6495700              0.0142515
     70.6830330              0.0695516
     19.8610800              0.2325729
      6.2993048              0.4670787
      2.1270270              0.3634314
SP   3   1.00
      4.7279710             -0.1303938              0.0745976
      1.1903377             -0.1307889              0.3078467
      0.3594117              1.1309444              0.7434568
SP   1   1.00
      0.1267512              1.0000000              1.0000000
D    1   1.00
      0.8020000              1.0000000
D    1   1.00
      0.2005000              1.0000000
F    1   1.00
      0.5000000              1.0000000
****
C     0
S    6   1.00
   3047.5249000              0.0018347
    457.3695100              0.0140373
    103.9486900              0.0688426
     29.2101550              0.2321844
      9.2866630              0.4679413
      3.1639270              0.3623120
SP   3   1.00
      7.8682724             -0.1193324              0.0689991
      1.8812885             -0.1608542              0.3164240
      0.5442493              1.1434564              0.7443083
SP   1   1.00
      0.1687144              1.0000000              1.0000000
D    1   1.00
      1.2520000              1.0000000
D    1   1.00
      0.3130000              1.0000000
F    1   1.00
      0.8000000              1.0000000
****
N     0
S    6   1.00
   4173.5110000              0.0018348
    627.4579000              0.0139950
    142.9021000              0.0685870
     40.2343300              0.2322410
     12.8202100              0.4690700
      4.3904370              0.3604550
SP   3   1.00
     11.6263580             -0.1149610              0.0675800
      2.7162800             -0.1691180              0.3239070
      0.7722180              1.1458520              0.7408950
SP   1   1.00
      0.2120313              1.0000000              1.0000000
D    1   1.00
      1.8260000              1.0000000
D    1   1.00
      0.4565000              1.0000000
F    1   1.00
      1.0000000              1.0000000
****
O     0
S    6   1.00
   5484.6717000              0.0018311
    825.2349500              0.0139501
    188.0469600              0.0684451
     52.9645000              0.2327143
     16.8975700              0.4701930
      5.7996353              0.3585209
SP   3   1.00
     15.5396160             -0.1107775              0.0708743
      3.5999336             -0.1480263              0.3397528
      1.0137618              1.1307670              0.7271586
SP   1   1.00
      0.2700058              1.0000000              1.0000000
D    1   1.00
      2.5840000              1.0000000
D    1   1.00
      0.6460000              1.0000000
F    1   1.00
      1.4000000              1.0000000
****
F     0
S    6   1.00
   7001.7130900              0.0018196169
   1051.3660900              0.0139160796
    239.2856900              0.0684053245
     67.3974453              0.233185760
     21.5199573              0.471267439
      7.40310130             0.356618546
SP   3   1.00
     20.8479528             -0.108506975            0.0716287243
      4.80830834            -0.146451658            0.3459121030
      1.34406986             1.128688580            0.7224699570
SP   1   1.00
      0.358151393            1.0000000              1.0000000
D    1   1.00
      3.5000000              1.0000000
D    1   1.00
      0.8750000              1.0000000
F    1   1.00
      1.8500000              1.0000000
****
Al     0
S    6   1.00
  13983.1000000              0.00194267
   2098.7500000              0.0148599
    477.7050000              0.0728494
    134.3600000              0.2468300
     42.8709000              0.4872580
     14.5189000              0.3234960
SP   6   1.00
    239.6680000             -0.00292619             0.00460285
     57.4419000             -0.0374080              0.0331990
     18.2859000             -0.1144870              0.1362820
      6.5991400              0.1156350              0.3304760
      2.4904900              0.6125950              0.4491460
      0.9445400              0.3937990              0.2657040
SP   3   1.00
      1.2779000             -0.2276060             -0.0175130
      0.3975900              0.00144583             0.2445330
      0.1600950              1.0927900              0.8049340
SP   1   1.00
      0.0556577              1.0000000              1.0000000
D    1   1.00
      0.6500000              1.0000000
D    1   1.00
      0.1625000              1.0000000
F    1   1.00
      0.2500000              1.0000000
****
Si     0
S    6   1.00
  16115.9000000              0.00195948
   2425.5800000              0.01492880
    553.8670000              0.07284780
    156.3400000              0.24613000
     50.0683000              0.48591400
     17.0178000              0.32500200
SP   6   1.00
    292.7180000             -0.00278094             0.00443826
     69.8731000             -0.03571460             0.03266790
     22.3363000             -0.11498500             0.13472100
      8.1503900              0.09356340             0.32867800
      3.1345800              0.60301700             0.44964000
      1.2254300              0.41895900             0.26137200
SP   3   1.00
      1.7273800             -0.24463000            -0.01779510
      0.5729220              0.00431572             0.25353900
      0.2221920              1.09818000             0.80066900
SP   1   1.00
      0.0778369              1.00000000             1.00000000
D    1   1.00
      0.9000000              1.0000000
D    1   1.00
      0.2250000              1.0000000
F    1   1.00
      0.3200000              1.0000000
****
P     0
S    6   1.00
  19413.3000000              0.0018516
   2909.4200000              0.0142062
    661.3640000              0.0699995
    185.7590000              0.2400790
     59.1943000              0.4847620
     20.0310000              0.3352000
SP   6   1.00
    339.4780000             -0.00278217             0.00456462
     81.0101000             -0.0360499              0.03369360
     25.8780000             -0.1166310              0.13975500
      9.4522100              0.0968328              0.33936200
      3.6656600              0.6144180              0.45092100
      1.4674600              0.4037980              0.23858600
SP   3   1.00
      2.1562300             -0.2529230             -0.01776530
      0.7489970              0.0328517              0.27405800
      0.2831450              1.0812500              0.78542100
SP   1   1.00
      0.0998317              1.0000000              1.00000000
D    1   1.00
      1.1000000              1.0000000
D    1   1.00
      0.2750000              1.0000000
F    1   1.00
      0.4500000              1.0000000
****
S     0
S    6   1.00
  21917.1000000              0.0018690
   3301.4900000              0.0142300
    754.1460000              0.0696960
    212.7110000              0.2384870
     67.9896000              0.4833070
     23.0515000              0.3380740
SP   6   1.00
    423.7350000             -0.0023767              0.0040610
    100.7100000             -0.0316930              0.0306810
     32.1599000             -0.1133170              0.1304520
     11.8079000              0.0560900              0.3272050
      4.6311000              0.5922550              0.4528510
      1.8702500              0.4550060              0.2560420
SP   3   1.00
      2.6158400             -0.2503740             -0.0145110
      0.9221670              0.0669570              0.3102630
      0.3412870              1.0545100              0.7544830
SP   1   1.00
      0.1171670              1.0000000              1.0000000
D    1   1.00
      1.3000000              1.0000000
D    1   1.00
      0.3250000              1.0000000
F    1   1.00
      0.5500000              1.0000000
****
Cl     0
S    6   1.00
  25180.1000000              0.0018330
   3780.3500000              0.0140340
    860.4740000              0.0690970
    242.1450000              0.2374520
     77.3349000              0.4830340
     26.2470000              0.3398560
SP   6   1.00
    491.7650000             -0.0022974              0.0039894
    116.9840000             -0.0307140              0.0303180
     37.4153000             -0.1125280              0.1298800
     13.7834000              0.0450160              0.3279510
      5.4521500              0.5893530              0.4535270
      2.2258800              0.4652060              0.2521540
SP   3   1.00
      3.1864900             -0.2518300             -0.0142990
      1.1442700              0.0615890              0.3235720
      0.4203770              1.0601800              0.7435070
SP   1   1.00
      0.1426570              1.0000000              1.0000000
D    1   1.00
      1.5000000              1.0000000
D    1   1.00
      0.3750000              1.0000000
F    1   1.00
      0.7000000              1.0000000
****
}

set {
reference uhf
freeze_core true
e_convergence 10
d_convergence 10
dft_spherical_points 1202
dft_radial_points 99
}

e = energy('b3lyp')

print_out('Grab this energy {0}'.format(e))
--------------------------------------------------------------------------

    Molecular point group: cs

    Geometry (in Bohr), charge = 0, multiplicity = 2:

       Center              X                  Y                   Z               Mass
    ------------   -----------------  -----------------  -----------------  -----------------
         C           -0.325132416635     0.000018030193     0.000000000000    12.000000000000
         C            0.061346637665    -1.401528498207    -2.425888674500    12.000000000000
         C            0.060759814065     2.802498830893     0.000000000000    12.000000000000
         C            0.061346637665    -1.401528498207     2.425888674500    12.000000000000
         H            2.088190540165    -1.646399166307    -2.846158486900     1.007825032230
         H           -0.765603834435    -0.385457300407    -4.027347252800     1.007825032230
         H           -0.760221615535    -3.289942411407    -2.348638705700     1.007825032230
         H            2.089417118665     3.288810153693     0.000000000000     1.007825032230
         H           -0.763597910935     3.680609450693     1.675985542400     1.007825032230
         H           -0.763597910935     3.680609450693    -1.675985542400     1.007825032230
         H            2.088190540165    -1.646399166307     2.846158486900     1.007825032230
         H           -0.760221615535    -3.289942411407     2.348638705700     1.007825032230
         H           -0.765603834435    -0.385457300407     4.027347252800     1.007825032230

  Charge       = 0
  Multiplicity = 2
  Basis Set: ANONYMOUSAB168776
    Blend: 6-31G_2DFP_
  Basis Set: (ANONYMOUSAB168776 AUX)
    Blend: DEF2-UNIVERSAL-JKFIT

    Orbital Energies [Eh]
    ---------------------

    Alpha Occupied:

       1Ap   -10.180455     1App  -10.167057     2Ap   -10.167051
       3Ap   -10.167008     4Ap    -0.797712     5Ap    -0.686235
       2App   -0.686116     6Ap    -0.530800     7Ap    -0.440890
       3App   -0.435005     8Ap    -0.434625     4App   -0.382374
       9Ap    -0.382329     5App   -0.363894    10Ap    -0.338210
       6App   -0.337884    11Ap    -0.169077

    Alpha Virtual:

      12Ap     0.076087     7App    0.134049    13Ap     0.134268
      14Ap     0.142509     8App    0.142912    15Ap     0.154817
      16Ap     0.178581     9App    0.178767    17Ap     0.203501
      10App    0.214936    18Ap     0.275738    11App    0.275956
      12App    0.398967    19Ap     0.399453    20Ap     0.403304
      13App    0.423928    21Ap     0.424253    22Ap     0.456589
      14App    0.495391    23Ap     0.495492    15App    0.512057
      24Ap     0.513983    25Ap     0.578844    16App    0.578970
      26Ap     0.591187    17App    0.591469    27Ap     0.602261
      28Ap     0.624858    18App    0.631911    29Ap     0.636147
      19App    0.636661    30Ap     0.663029    20App    0.663452
      21App    0.683688    31Ap     0.684080    32Ap     0.734865
      33Ap     0.824983    22App    0.825482    23App    0.853963
      24App    0.914643    34Ap     0.915078    25App    0.944022
      35Ap     0.944588    26App    0.961290    36Ap     0.961480
      37Ap     1.004335    27App    1.128058    38Ap     1.128609
      39Ap     1.141850    28App    1.163080    40Ap     1.163182
      41Ap     1.222901    42Ap     1.273957    29App    1.274448
      43Ap     1.279204    44Ap     1.324251    30App    1.324675
      45Ap     1.354962    46Ap     1.366104    31App    1.366696
      32App    1.392523    47Ap     1.403385    33App    1.403458
      34App    1.415813    48Ap     1.417205    35App    1.427722
      36App    1.491964    49Ap     1.498569    37App    1.543199
      50Ap     1.543237    51Ap     1.574337    38App    1.574757
      52Ap     1.670365    53Ap     1.738490    39App    1.739918
      54Ap     1.768112    40App    1.830928    55Ap     1.832500
      41App    1.972312    56Ap     2.017227    57Ap     2.018943
      42App    2.019330    58Ap     2.051755    43App    2.052798
      59Ap     2.737972    44App    2.738335    60Ap     2.790706
      45App    2.811700    61Ap     2.889628    46App    2.889924
      62Ap     2.894976    63Ap     2.929620    47App    2.929679
      48App    2.959127    64Ap     2.964278    49App    2.964449
      65Ap     3.033970    50App    3.070047    66Ap     3.071229
      51App    3.084492    67Ap     3.168346    52App    3.169183
      68Ap     3.180780    53App    3.285497    69Ap     3.285825
      70Ap     3.327703    54App    3.328489    71Ap     3.375328
      55App    3.489696    72Ap     3.490270    56App    3.513558
      73Ap     3.525488    57App    3.567523    74Ap     3.568409
      58App    3.574673    75Ap     3.665901    59App    3.666892
      76Ap     3.680670    60App    3.693605    77Ap     3.694088
      78Ap     3.775792    61App    3.776042    79Ap     3.787808
      62App    3.911754    80Ap     3.912899    81Ap     4.033273
      82Ap     4.111198    63App    4.112233    64App    4.148074
      83Ap     4.148546    84Ap     4.173198    65App    4.201856
      85Ap     4.202271    86Ap     4.203589    66App    4.210853
      67App    4.315111    87Ap     4.316409    68App    4.359070
      88Ap     4.423284    69App    4.424361    70App    4.444339
      89Ap     4.515933    71App    4.518027    72App    4.578368
      90Ap     4.578369    91Ap     4.616674    92Ap     4.709016
      93Ap     4.773385    73App    4.775339    74App    4.836675
      94Ap     4.962926    95Ap     5.001880    75App    5.002622
      96Ap     5.227520    76App    5.246703    97Ap     5.247346
      98Ap     5.354736    77App    5.357206    78App    5.478897

    Beta Occupied:

       1App  -10.167809     1Ap   -10.167803     2Ap   -10.167781
       3Ap   -10.166634     4Ap    -0.781053     5Ap    -0.684044
       2App   -0.683920     6Ap    -0.511776     3App   -0.431387
       7Ap    -0.431010     8Ap    -0.421578     4App   -0.376443
       9Ap    -0.376406     5App   -0.362879    10Ap    -0.333326
       6App   -0.333008

    Beta Virtual:

      11Ap    -0.025891    12Ap     0.077098     7App    0.134945
      13Ap     0.135218    14Ap     0.144341     8App    0.144801
      15Ap     0.163306    16Ap     0.182242     9App    0.182427
      10App    0.215161    17Ap     0.218862    18Ap     0.282098
      11App    0.282315    12App    0.400136    19Ap     0.400632
      20Ap     0.419809    13App    0.426736    21Ap     0.427061
      22Ap     0.468434    14App    0.497646    23Ap     0.497758
      15App    0.513797    24Ap     0.556281    25Ap     0.584387
      16App    0.584508    26Ap     0.597357    17App    0.597688
      27Ap     0.609710    28Ap     0.628204    18App    0.632068
      29Ap     0.639435    19App    0.639909    30Ap     0.666634
      20App    0.667030    21App    0.686342    31Ap     0.686691
      32Ap     0.757395    33Ap     0.830183    22App    0.830659
      23App    0.855318    24App    0.922638    34Ap     0.923034
      25App    0.945858    35Ap     0.953481    26App    0.966561
      36Ap     0.966788    37Ap     1.009624    27App    1.131986
      38Ap     1.132529    39Ap     1.155240    28App    1.168218
      40Ap     1.168312    41Ap     1.231867    42Ap     1.279552
      29App    1.280080    43Ap     1.284951    44Ap     1.329300
      30App    1.329722    45Ap     1.364361    46Ap     1.371414
      31App    1.371878    32App    1.393593    47Ap     1.406813
      33App    1.406925    34App    1.420895    48Ap     1.422192
      35App    1.427972    36App    1.493017    49Ap     1.508992
      37App    1.547688    50Ap     1.547783    51Ap     1.582102
      38App    1.582523    52Ap     1.675197    53Ap     1.744249
      39App    1.745701    54Ap     1.778896    40App    1.834772
      55Ap     1.836354    41App    1.973170    56Ap     2.024507
      42App    2.025670    57Ap     2.039438    58Ap     2.058494
      43App    2.059548    59Ap     2.746300    44App    2.746684
      45App    2.812112    60Ap     2.815790    61Ap     2.902288
      46App    2.902667    62Ap     2.924601    47App    2.932089
      63Ap     2.932117    48App    2.960203    64Ap     2.968830
      49App    2.969002    65Ap     3.041944    50App    3.079887
      66Ap     3.081164    51App    3.086410    67Ap     3.184046
      52App    3.184827    68Ap     3.188529    53App    3.290245
      69Ap     3.290590    70Ap     3.331490    54App    3.332340
      71Ap     3.383107    55App    3.492447    72Ap     3.492996
      56App    3.511924    73Ap     3.528497    57App    3.574526
      58App    3.580852    74Ap     3.581898    75Ap     3.670702
      59App    3.671445    76Ap     3.693957    60App    3.725447
      77Ap     3.725554    78Ap     3.780334    61App    3.780637
      79Ap     3.816374    62App    3.921506    80Ap     3.922783
      81Ap     4.044173    82Ap     4.117782    63App    4.119238
      64App    4.155063    83Ap     4.156021    84Ap     4.187265
      65App    4.207808    85Ap     4.209492    86Ap     4.210234
      66App    4.215371    67App    4.322584    87Ap     4.323797
      68App    4.362444    88Ap     4.431579    69App    4.432610
      70App    4.447194    89Ap     4.523718    71App    4.525828
      90Ap     4.588915    72App    4.588977    91Ap     4.623793
      92Ap     4.719449    93Ap     4.780343    73App    4.782242
      74App    4.839589    94Ap     4.967737    95Ap     5.005934
      75App    5.006671    96Ap     5.233101    76App    5.248492
      97Ap     5.249215    98Ap     5.361208    77App    5.363656
      78App    5.481219

    Final Occupation by Irrep:
             Ap   App
    DOCC [    10,    6 ]
    SOCC [     1,    0 ]

  @DF-UKS Final Energy:  -157.81305400471322

   => Energetics <=

    Nuclear Repulsion Energy =            125.3859061456774526
    One-Electron Energy =                -458.7313434581989213
    Two-Electron Energy =                 195.8392742426938185
    DFT Exchange-Correlation Energy =     -20.3068909348855655
    Empirical Dispersion Energy =           0.0000000000000000
    VV10 Nonlocal Energy =                  0.0000000000000000
    Total Energy =                       -157.8130540047132229

  UHF NO Occupations:
  HONO-2 :    9 Ap 1.9995999
  HONO-1 :   10 Ap 1.9989813
  HONO-0 :   11 Ap 1.0000000
  LUNO+0 :   12 Ap 0.0010187
  LUNO+1 :   13 Ap 0.0004001
  LUNO+2 :    7App 0.0001976
  LUNO+3 :   14 Ap 0.0001976

Computation Completed

Properties will be evaluated at   0.000000,   0.000000,   0.000000 [a0]

Properties computed using the SCF density matrix

  Nuclear Dipole Moment: [e a0]
     X:     0.8369      Y:     0.0032      Z:    -0.0000

  Electronic Dipole Moment: [e a0]
     X:    -0.7591      Y:    -0.0049      Z:     0.0000

  Dipole Moment: [e a0]
     X:     0.0778      Y:    -0.0017      Z:    -0.0000     Total:     0.0778

  Dipole Moment: [D]
     X:     0.1977      Y:    -0.0044      Z:    -0.0000     Total:     0.1978

*** tstop() called on n062 at Fri Nov  5 13:33:30 2021
Module time:
	user time   =     632.40 seconds =      10.54 minutes
	system time =      16.28 seconds =       0.27 minutes
	total time  =        163 seconds =       2.72 minutes
Total time:
	user time   =     632.40 seconds =      10.54 minutes
	system time =      16.28 seconds =       0.27 minutes
	total time  =        163 seconds =       2.72 minutes
Grab this energy -157.81305400471322
    Psi4 stopped on: Friday, 05 November 2021 01:33PM
    Psi4 wall time for execution: 0:02:43.00

*** Psi4 exiting successfully. Buy a developer a beer!
