                               Psi4 1.4a2.dev629

  ==> Input File <==

--------------------------------------------------------------------------
import os
memory 14 GB

molecule {
 C   -0.3233394667    0.0004921083    0.0000005723
 C    0.0610922968   -1.3997960246   -2.4265096676
 C    0.0611182302    2.8026171545    0.0009669395
 C    0.0610926197   -1.4014693304    2.4255443303
 H    2.0890291054   -1.6417397438   -2.8485146270
 H   -0.7642090746   -0.3879037953   -4.0248821574
 H   -0.7689422646   -3.2961182207   -2.3479878646
 H    2.0826175772    3.2885991938    0.0025986669
 H   -0.7611122836    3.6792194176    1.6706974432
 H   -0.7658328266    3.6802424638   -1.6742195858
 H    2.0890286449   -1.6462490351    2.8459121422
 H   -0.7642144282   -3.2925596409    2.3488715389
 H   -0.7689360066   -0.3853588607    4.0275222690
units bohr
0 2
}

basis {

assign 6-31g_2dfp_

[ 6-31g_2dfp_ ]

spherical

!----------------------------------------------------------------------
! Basis Set Exchange
! Version v0.8.13
! https://www.basissetexchange.org
!----------------------------------------------------------------------
!   Basis set: 6-31G(2df,p)
! Description: 6-31G(2df,p)
!        Role: orbital
!     Version: 0  (Data from the original Basis Set Exchange)
!----------------------------------------------------------------------

****
H     0
S    3   1.00
     18.7311370              0.03349460
      2.8253937              0.23472695
      0.6401217              0.81375733
S    1   1.00
      0.1612778              1.00000000
P    1   1.00
      1.5000000              1.0000000
P    1   1.00
      0.3750000              1.0000000
****
B     0
S    6   1.00
   2068.8823000              0.0018663
    310.6495700              0.0142515
     70.6830330              0.0695516
     19.8610800              0.2325729
      6.2993048              0.4670787
      2.1270270              0.3634314
SP   3   1.00
      4.7279710             -0.1303938              0.0745976
      1.1903377             -0.1307889              0.3078467
      0.3594117              1.1309444              0.7434568
SP   1   1.00
      0.1267512              1.0000000              1.0000000
D    1   1.00
      0.8020000              1.0000000
D    1   1.00
      0.2005000              1.0000000
F    1   1.00
      0.5000000              1.0000000
****
C     0
S    6   1.00
   3047.5249000              0.0018347
    457.3695100              0.0140373
    103.9486900              0.0688426
     29.2101550              0.2321844
      9.2866630              0.4679413
      3.1639270              0.3623120
SP   3   1.00
      7.8682724             -0.1193324              0.0689991
      1.8812885             -0.1608542              0.3164240
      0.5442493              1.1434564              0.7443083
SP   1   1.00
      0.1687144              1.0000000              1.0000000
D    1   1.00
      1.2520000              1.0000000
D    1   1.00
      0.3130000              1.0000000
F    1   1.00
      0.8000000              1.0000000
****
N     0
S    6   1.00
   4173.5110000              0.0018348
    627.4579000              0.0139950
    142.9021000              0.0685870
     40.2343300              0.2322410
     12.8202100              0.4690700
      4.3904370              0.3604550
SP   3   1.00
     11.6263580             -0.1149610              0.0675800
      2.7162800             -0.1691180              0.3239070
      0.7722180              1.1458520              0.7408950
SP   1   1.00
      0.2120313              1.0000000              1.0000000
D    1   1.00
      1.8260000              1.0000000
D    1   1.00
      0.4565000              1.0000000
F    1   1.00
      1.0000000              1.0000000
****
O     0
S    6   1.00
   5484.6717000              0.0018311
    825.2349500              0.0139501
    188.0469600              0.0684451
     52.9645000              0.2327143
     16.8975700              0.4701930
      5.7996353              0.3585209
SP   3   1.00
     15.5396160             -0.1107775              0.0708743
      3.5999336             -0.1480263              0.3397528
      1.0137618              1.1307670              0.7271586
SP   1   1.00
      0.2700058              1.0000000              1.0000000
D    1   1.00
      2.5840000              1.0000000
D    1   1.00
      0.6460000              1.0000000
F    1   1.00
      1.4000000              1.0000000
****
F     0
S    6   1.00
   7001.7130900              0.0018196169
   1051.3660900              0.0139160796
    239.2856900              0.0684053245
     67.3974453              0.233185760
     21.5199573              0.471267439
      7.40310130             0.356618546
SP   3   1.00
     20.8479528             -0.108506975            0.0716287243
      4.80830834            -0.146451658            0.3459121030
      1.34406986             1.128688580            0.7224699570
SP   1   1.00
      0.358151393            1.0000000              1.0000000
D    1   1.00
      3.5000000              1.0000000
D    1   1.00
      0.8750000              1.0000000
F    1   1.00
      1.8500000              1.0000000
****
Al     0
S    6   1.00
  13983.1000000              0.00194267
   2098.7500000              0.0148599
    477.7050000              0.0728494
    134.3600000              0.2468300
     42.8709000              0.4872580
     14.5189000              0.3234960
SP   6   1.00
    239.6680000             -0.00292619             0.00460285
     57.4419000             -0.0374080              0.0331990
     18.2859000             -0.1144870              0.1362820
      6.5991400              0.1156350              0.3304760
      2.4904900              0.6125950              0.4491460
      0.9445400              0.3937990              0.2657040
SP   3   1.00
      1.2779000             -0.2276060             -0.0175130
      0.3975900              0.00144583             0.2445330
      0.1600950              1.0927900              0.8049340
SP   1   1.00
      0.0556577              1.0000000              1.0000000
D    1   1.00
      0.6500000              1.0000000
D    1   1.00
      0.1625000              1.0000000
F    1   1.00
      0.2500000              1.0000000
****
Si     0
S    6   1.00
  16115.9000000              0.00195948
   2425.5800000              0.01492880
    553.8670000              0.07284780
    156.3400000              0.24613000
     50.0683000              0.48591400
     17.0178000              0.32500200
SP   6   1.00
    292.7180000             -0.00278094             0.00443826
     69.8731000             -0.03571460             0.03266790
     22.3363000             -0.11498500             0.13472100
      8.1503900              0.09356340             0.32867800
      3.1345800              0.60301700             0.44964000
      1.2254300              0.41895900             0.26137200
SP   3   1.00
      1.7273800             -0.24463000            -0.01779510
      0.5729220              0.00431572             0.25353900
      0.2221920              1.09818000             0.80066900
SP   1   1.00
      0.0778369              1.00000000             1.00000000
D    1   1.00
      0.9000000              1.0000000
D    1   1.00
      0.2250000              1.0000000
F    1   1.00
      0.3200000              1.0000000
****
P     0
S    6   1.00
  19413.3000000              0.0018516
   2909.4200000              0.0142062
    661.3640000              0.0699995
    185.7590000              0.2400790
     59.1943000              0.4847620
     20.0310000              0.3352000
SP   6   1.00
    339.4780000             -0.00278217             0.00456462
     81.0101000             -0.0360499              0.03369360
     25.8780000             -0.1166310              0.13975500
      9.4522100              0.0968328              0.33936200
      3.6656600              0.6144180              0.45092100
      1.4674600              0.4037980              0.23858600
SP   3   1.00
      2.1562300             -0.2529230             -0.01776530
      0.7489970              0.0328517              0.27405800
      0.2831450              1.0812500              0.78542100
SP   1   1.00
      0.0998317              1.0000000              1.00000000
D    1   1.00
      1.1000000              1.0000000
D    1   1.00
      0.2750000              1.0000000
F    1   1.00
      0.4500000              1.0000000
****
S     0
S    6   1.00
  21917.1000000              0.0018690
   3301.4900000              0.0142300
    754.1460000              0.0696960
    212.7110000              0.2384870
     67.9896000              0.4833070
     23.0515000              0.3380740
SP   6   1.00
    423.7350000             -0.0023767              0.0040610
    100.7100000             -0.0316930              0.0306810
     32.1599000             -0.1133170              0.1304520
     11.8079000              0.0560900              0.3272050
      4.6311000              0.5922550              0.4528510
      1.8702500              0.4550060              0.2560420
SP   3   1.00
      2.6158400             -0.2503740             -0.0145110
      0.9221670              0.0669570              0.3102630
      0.3412870              1.0545100              0.7544830
SP   1   1.00
      0.1171670              1.0000000              1.0000000
D    1   1.00
      1.3000000              1.0000000
D    1   1.00
      0.3250000              1.0000000
F    1   1.00
      0.5500000              1.0000000
****
Cl     0
S    6   1.00
  25180.1000000              0.0018330
   3780.3500000              0.0140340
    860.4740000              0.0690970
    242.1450000              0.2374520
     77.3349000              0.4830340
     26.2470000              0.3398560
SP   6   1.00
    491.7650000             -0.0022974              0.0039894
    116.9840000             -0.0307140              0.0303180
     37.4153000             -0.1125280              0.1298800
     13.7834000              0.0450160              0.3279510
      5.4521500              0.5893530              0.4535270
      2.2258800              0.4652060              0.2521540
SP   3   1.00
      3.1864900             -0.2518300             -0.0142990
      1.1442700              0.0615890              0.3235720
      0.4203770              1.0601800              0.7435070
SP   1   1.00
      0.1426570              1.0000000              1.0000000
D    1   1.00
      1.5000000              1.0000000
D    1   1.00
      0.3750000              1.0000000
F    1   1.00
      0.7000000              1.0000000
****
}

set {
reference uhf
freeze_core true
e_convergence 10
d_convergence 10
dft_spherical_points 1202
dft_radial_points 99
}

e = energy('b3lyp')

print_out('Grab this energy {0}'.format(e))
--------------------------------------------------------------------------

    Molecular point group: c1

    Geometry (in Bohr), charge = 0, multiplicity = 2:

       Center              X                  Y                   Z               Mass
    ------------   -----------------  -----------------  -----------------  -----------------
         C           -0.323340172575     0.000137387737     0.000000153477    12.000000000000
         C            0.061091590925    -1.400150745163    -2.426510086423    12.000000000000
         C            0.061117524325     2.802262433937     0.000966520677    12.000000000000
         C            0.061091913825    -1.401824050963     2.425543911477    12.000000000000
         H            2.089028399525    -1.642094464363    -2.848515045823     1.007825032230
         H           -0.764209780475    -0.388258515863    -4.024882576223     1.007825032230
         H           -0.768942970475    -3.296472941263    -2.347988283423     1.007825032230
         H            2.082616871325     3.288244473237     0.002598248077     1.007825032230
         H           -0.761112989475     3.678864697037     1.670697024377     1.007825032230
         H           -0.765833532475     3.679887743237    -1.674220004623     1.007825032230
         H            2.089027939025    -1.646603755663     2.845911723377     1.007825032230
         H           -0.764215134075    -3.292914361463     2.348871120077     1.007825032230
         H           -0.768936712475    -0.385713581263     4.027521850177     1.007825032230

  Charge       = 0
  Multiplicity = 2
  Basis Set: ANONYMOUS5D74EF30
    Blend: 6-31G_2DFP_
  Basis Set: (ANONYMOUS5D74EF30 AUX)
    Blend: DEF2-UNIVERSAL-JKFIT

    Orbital Energies [Eh]
    ---------------------

    Alpha Occupied:

       1A    -10.180342     2A    -10.167365     3A    -10.167335
       4A    -10.166344     5A     -0.797767     6A     -0.686512
       7A     -0.685866     8A     -0.530777     9A     -0.441125
      10A     -0.434760    11A     -0.434584    12A     -0.382822
      13A     -0.382376    14A     -0.363611    15A     -0.338029
      16A     -0.337967    17A     -0.168961

    Alpha Virtual:

      18A      0.076070    19A      0.134120    20A      0.134155
      21A      0.142538    22A      0.142744    23A      0.154874
      24A      0.178457    25A      0.179108    26A      0.203545
      27A      0.214807    28A      0.275941    29A      0.276030
      30A      0.399151    31A      0.399305    32A      0.403344
      33A      0.424001    34A      0.424192    35A      0.456590
      36A      0.495320    37A      0.495460    38A      0.512160
      39A      0.513979    40A      0.578698    41A      0.578931
      42A      0.591332    43A      0.591914    44A      0.602590
      45A      0.624721    46A      0.631753    47A      0.635858
      48A      0.636700    49A      0.663230    50A      0.663599
      51A      0.683553    52A      0.684189    53A      0.734994
      54A      0.825009    55A      0.825795    56A      0.853916
      57A      0.915019    58A      0.915036    59A      0.944104
      60A      0.944638    61A      0.961052    62A      0.961535
      63A      1.003458    64A      1.127792    65A      1.128431
      66A      1.142217    67A      1.163175    68A      1.163361
      69A      1.223321    70A      1.274311    71A      1.274670
      72A      1.279349    73A      1.323989    74A      1.324690
      75A      1.355973    76A      1.365785    77A      1.366322
      78A      1.392468    79A      1.403666    80A      1.404426
      81A      1.416793    82A      1.417435    83A      1.427915
      84A      1.491455    85A      1.499108    86A      1.542771
      87A      1.542882    88A      1.574173    89A      1.574738
      90A      1.669809    91A      1.739297    92A      1.739490
      93A      1.768323    94A      1.829815    95A      1.833062
      96A      1.971672    97A      2.018098    98A      2.019157
      99A      2.019162   100A      2.052614   101A      2.052734
     102A      2.738038   103A      2.738930   104A      2.790922
     105A      2.811432   106A      2.889678   107A      2.890181
     108A      2.894979   109A      2.929387   110A      2.929599
     111A      2.959004   112A      2.963876   113A      2.964907
     114A      3.034007   115A      3.071042   116A      3.071530
     117A      3.084400   118A      3.168644   119A      3.168919
     120A      3.180599   121A      3.285238   122A      3.285380
     123A      3.327132   124A      3.327215   125A      3.375608
     126A      3.489342   127A      3.490993   128A      3.514006
     129A      3.525352   130A      3.568295   131A      3.568443
     132A      3.575185   133A      3.665658   134A      3.667021
     135A      3.679672   136A      3.693639   137A      3.694645
     138A      3.776244   139A      3.777389   140A      3.789119
     141A      3.911783   142A      3.912657   143A      4.034430
     144A      4.110520   145A      4.111969   146A      4.146192
     147A      4.150046   148A      4.173191   149A      4.201093
     150A      4.202355   151A      4.205272   152A      4.211337
     153A      4.315249   154A      4.316659   155A      4.358939
     156A      4.424255   157A      4.424575   158A      4.443563
     159A      4.516608   160A      4.517048   161A      4.577834
     162A      4.578753   163A      4.617533   164A      4.709487
     165A      4.774508   166A      4.774702   167A      4.836871
     168A      4.962880   169A      5.002386   170A      5.003571
     171A      5.227818   172A      5.243092   173A      5.250364
     174A      5.352584   175A      5.358784   176A      5.479468

    Beta Occupied:

       1A    -10.168120     2A    -10.168101     3A    -10.167106
       4A    -10.166515     5A     -0.781092     6A     -0.684314
       7A     -0.683669     8A     -0.511749     9A     -0.431141
      10A     -0.430945    11A     -0.421823    12A     -0.376915
      13A     -0.376452    14A     -0.362595    15A     -0.333145
      16A     -0.333097

    Beta Virtual:

      17A     -0.025743    18A      0.077079    19A      0.134967
      20A      0.135088    21A      0.144455    22A      0.144567
      23A      0.163333    24A      0.182137    25A      0.182770
      26A      0.215030    27A      0.218935    28A      0.282287
      29A      0.282380    30A      0.400317    31A      0.400478
      32A      0.419791    33A      0.426810    34A      0.427006
      35A      0.468498    36A      0.497580    37A      0.497721
      38A      0.513897    39A      0.556323    40A      0.584240
      41A      0.584487    42A      0.597534    43A      0.598076
      44A      0.610007    45A      0.628068    46A      0.631974
      47A      0.639167    48A      0.639931    49A      0.666780
      50A      0.667178    51A      0.686222    52A      0.686789
      53A      0.757517    54A      0.830151    55A      0.830989
      56A      0.855270    57A      0.922992    58A      0.923004
      59A      0.945963    60A      0.953543    61A      0.966387
      62A      0.966812    63A      1.008698    64A      1.131804
      65A      1.132478    66A      1.155593    67A      1.168236
      68A      1.168447    69A      1.232295    70A      1.279907
      71A      1.280269    72A      1.285102    73A      1.328931
      74A      1.329725    75A      1.365381    76A      1.371041
      77A      1.371560    78A      1.393529    79A      1.407113
      80A      1.407911    81A      1.421799    82A      1.422531
      83A      1.428184    84A      1.492517    85A      1.509538
      86A      1.547134    87A      1.547336    88A      1.582053
      89A      1.582598    90A      1.674654    91A      1.745080
      92A      1.745235    93A      1.779100    94A      1.833700
      95A      1.836889    96A      1.972549    97A      2.025382
      98A      2.025494    99A      2.039697   100A      2.059276
     101A      2.059506   102A      2.746360   103A      2.747279
     104A      2.811839   105A      2.816063   106A      2.902446
     107A      2.902818   108A      2.924654   109A      2.931919
     110A      2.932031   111A      2.960069   112A      2.968378
     113A      2.969492   114A      3.041937   115A      3.080863
     116A      3.081496   117A      3.086256   118A      3.184339
     119A      3.184708   120A      3.188294   121A      3.290010
     122A      3.290205   123A      3.330958   124A      3.330999
     125A      3.383427   126A      3.492105   127A      3.493691
     128A      3.512374   129A      3.528392   130A      3.574949
     131A      3.581749   132A      3.581764   133A      3.670348
     134A      3.671839   135A      3.692987   136A      3.725279
     137A      3.726233   138A      3.780800   139A      3.781886
     140A      3.817665   141A      3.921613   142A      3.922461
     143A      4.045313   144A      4.117519   145A      4.118568
     146A      4.153631   147A      4.157073   148A      4.187197
     149A      4.208091   150A      4.208251   151A      4.212186
     152A      4.215891   153A      4.322813   154A      4.323973
     155A      4.362305   156A      4.432524   157A      4.432686
     158A      4.446495   159A      4.524459   160A      4.524779
     161A      4.588481   162A      4.589306   163A      4.624724
     164A      4.719831   165A      4.781428   166A      4.781687
     167A      4.839788   168A      4.967676   169A      5.006442
     170A      5.007592   171A      5.233522   172A      5.244897
     173A      5.252153   174A      5.359074   175A      5.365241
     176A      5.481789

    Final Occupation by Irrep:
              A
    DOCC [    16 ]
    SOCC [     1 ]

  @DF-UKS Final Energy:  -157.81304568942610

   => Energetics <=

    Nuclear Repulsion Energy =            125.3946924214384069
    One-Electron Energy =                -458.7489807935061208
    Two-Electron Energy =                 195.8483938192395897
    DFT Exchange-Correlation Energy =     -20.3071511365980086
    Empirical Dispersion Energy =           0.0000000000000000
    VV10 Nonlocal Energy =                  0.0000000000000000
    Total Energy =                       -157.8130456894261044

  UHF NO Occupations:
  HONO-2 :   15  A 1.9996009
  HONO-1 :   16  A 1.9989805
  HONO-0 :   17  A 1.0000000
  LUNO+0 :   18  A 0.0010195
  LUNO+1 :   19  A 0.0003991
  LUNO+2 :   20  A 0.0001976
  LUNO+3 :   21  A 0.0001975

Computation Completed

Properties will be evaluated at   0.000000,   0.000000,   0.000000 [a0]

Properties computed using the SCF density matrix

  Nuclear Dipole Moment: [e a0]
     X:     0.8272      Y:    -0.0025      Z:    -0.0000

  Electronic Dipole Moment: [e a0]
     X:    -0.7493      Y:     0.0050      Z:    -0.0000

  Dipole Moment: [e a0]
     X:     0.0779      Y:     0.0024      Z:    -0.0000     Total:     0.0780

  Dipole Moment: [D]
     X:     0.1980      Y:     0.0062      Z:    -0.0000     Total:     0.1981

*** tstop() called on n079 at Fri Nov  5 14:40:54 2021
Module time:
	user time   =     497.29 seconds =       8.29 minutes
	system time =       4.55 seconds =       0.08 minutes
	total time  =        126 seconds =       2.10 minutes
Total time:
	user time   =     497.29 seconds =       8.29 minutes
	system time =       4.55 seconds =       0.08 minutes
	total time  =        126 seconds =       2.10 minutes
Grab this energy -157.8130456894261
    Psi4 stopped on: Friday, 05 November 2021 02:40PM
    Psi4 wall time for execution: 0:02:06.18

*** Psi4 exiting successfully. Buy a developer a beer!
