                               Psi4 1.4a2.dev629

  ==> Input File <==

--------------------------------------------------------------------------
import os
memory 14 GB

molecule {
 C   -0.3233298716   -0.0050096407    0.0053450662
 C    0.0609647003   -1.3986245470   -2.4321709493
 C    0.0616260880    2.7938350987    0.0010988695
 C    0.0607125690   -1.3977365581    2.4328153995
 H    2.0863364978   -1.6378394189   -2.8569094374
 H   -0.7679549101   -0.3802927184   -4.0283428791
 H   -0.7641827675   -3.2897709398   -2.3627300665
 H    2.0875771315    3.2789381962   -0.0010049615
 H   -0.7654285324    3.6714678435    1.6755577784
 H   -0.7637470293    3.6731647419   -1.6770525238
 H    2.0867544877   -1.6382050486    2.8555245110
 H   -0.7632387169   -3.2907315452    2.3615453782
 H   -0.7686975231   -0.3792197773    4.0263238146
units bohr
0 2
}

basis {

assign 6-31g_2dfp_

[ 6-31g_2dfp_ ]

spherical

!----------------------------------------------------------------------
! Basis Set Exchange
! Version v0.8.13
! https://www.basissetexchange.org
!----------------------------------------------------------------------
!   Basis set: 6-31G(2df,p)
! Description: 6-31G(2df,p)
!        Role: orbital
!     Version: 0  (Data from the original Basis Set Exchange)
!----------------------------------------------------------------------

****
H     0
S    3   1.00
     18.7311370              0.03349460
      2.8253937              0.23472695
      0.6401217              0.81375733
S    1   1.00
      0.1612778              1.00000000
P    1   1.00
      1.5000000              1.0000000
P    1   1.00
      0.3750000              1.0000000
****
B     0
S    6   1.00
   2068.8823000              0.0018663
    310.6495700              0.0142515
     70.6830330              0.0695516
     19.8610800              0.2325729
      6.2993048              0.4670787
      2.1270270              0.3634314
SP   3   1.00
      4.7279710             -0.1303938              0.0745976
      1.1903377             -0.1307889              0.3078467
      0.3594117              1.1309444              0.7434568
SP   1   1.00
      0.1267512              1.0000000              1.0000000
D    1   1.00
      0.8020000              1.0000000
D    1   1.00
      0.2005000              1.0000000
F    1   1.00
      0.5000000              1.0000000
****
C     0
S    6   1.00
   3047.5249000              0.0018347
    457.3695100              0.0140373
    103.9486900              0.0688426
     29.2101550              0.2321844
      9.2866630              0.4679413
      3.1639270              0.3623120
SP   3   1.00
      7.8682724             -0.1193324              0.0689991
      1.8812885             -0.1608542              0.3164240
      0.5442493              1.1434564              0.7443083
SP   1   1.00
      0.1687144              1.0000000              1.0000000
D    1   1.00
      1.2520000              1.0000000
D    1   1.00
      0.3130000              1.0000000
F    1   1.00
      0.8000000              1.0000000
****
N     0
S    6   1.00
   4173.5110000              0.0018348
    627.4579000              0.0139950
    142.9021000              0.0685870
     40.2343300              0.2322410
     12.8202100              0.4690700
      4.3904370              0.3604550
SP   3   1.00
     11.6263580             -0.1149610              0.0675800
      2.7162800             -0.1691180              0.3239070
      0.7722180              1.1458520              0.7408950
SP   1   1.00
      0.2120313              1.0000000              1.0000000
D    1   1.00
      1.8260000              1.0000000
D    1   1.00
      0.4565000              1.0000000
F    1   1.00
      1.0000000              1.0000000
****
O     0
S    6   1.00
   5484.6717000              0.0018311
    825.2349500              0.0139501
    188.0469600              0.0684451
     52.9645000              0.2327143
     16.8975700              0.4701930
      5.7996353              0.3585209
SP   3   1.00
     15.5396160             -0.1107775              0.0708743
      3.5999336             -0.1480263              0.3397528
      1.0137618              1.1307670              0.7271586
SP   1   1.00
      0.2700058              1.0000000              1.0000000
D    1   1.00
      2.5840000              1.0000000
D    1   1.00
      0.6460000              1.0000000
F    1   1.00
      1.4000000              1.0000000
****
F     0
S    6   1.00
   7001.7130900              0.0018196169
   1051.3660900              0.0139160796
    239.2856900              0.0684053245
     67.3974453              0.233185760
     21.5199573              0.471267439
      7.40310130             0.356618546
SP   3   1.00
     20.8479528             -0.108506975            0.0716287243
      4.80830834            -0.146451658            0.3459121030
      1.34406986             1.128688580            0.7224699570
SP   1   1.00
      0.358151393            1.0000000              1.0000000
D    1   1.00
      3.5000000              1.0000000
D    1   1.00
      0.8750000              1.0000000
F    1   1.00
      1.8500000              1.0000000
****
Al     0
S    6   1.00
  13983.1000000              0.00194267
   2098.7500000              0.0148599
    477.7050000              0.0728494
    134.3600000              0.2468300
     42.8709000              0.4872580
     14.5189000              0.3234960
SP   6   1.00
    239.6680000             -0.00292619             0.00460285
     57.4419000             -0.0374080              0.0331990
     18.2859000             -0.1144870              0.1362820
      6.5991400              0.1156350              0.3304760
      2.4904900              0.6125950              0.4491460
      0.9445400              0.3937990              0.2657040
SP   3   1.00
      1.2779000             -0.2276060             -0.0175130
      0.3975900              0.00144583             0.2445330
      0.1600950              1.0927900              0.8049340
SP   1   1.00
      0.0556577              1.0000000              1.0000000
D    1   1.00
      0.6500000              1.0000000
D    1   1.00
      0.1625000              1.0000000
F    1   1.00
      0.2500000              1.0000000
****
Si     0
S    6   1.00
  16115.9000000              0.00195948
   2425.5800000              0.01492880
    553.8670000              0.07284780
    156.3400000              0.24613000
     50.0683000              0.48591400
     17.0178000              0.32500200
SP   6   1.00
    292.7180000             -0.00278094             0.00443826
     69.8731000             -0.03571460             0.03266790
     22.3363000             -0.11498500             0.13472100
      8.1503900              0.09356340             0.32867800
      3.1345800              0.60301700             0.44964000
      1.2254300              0.41895900             0.26137200
SP   3   1.00
      1.7273800             -0.24463000            -0.01779510
      0.5729220              0.00431572             0.25353900
      0.2221920              1.09818000             0.80066900
SP   1   1.00
      0.0778369              1.00000000             1.00000000
D    1   1.00
      0.9000000              1.0000000
D    1   1.00
      0.2250000              1.0000000
F    1   1.00
      0.3200000              1.0000000
****
P     0
S    6   1.00
  19413.3000000              0.0018516
   2909.4200000              0.0142062
    661.3640000              0.0699995
    185.7590000              0.2400790
     59.1943000              0.4847620
     20.0310000              0.3352000
SP   6   1.00
    339.4780000             -0.00278217             0.00456462
     81.0101000             -0.0360499              0.03369360
     25.8780000             -0.1166310              0.13975500
      9.4522100              0.0968328              0.33936200
      3.6656600              0.6144180              0.45092100
      1.4674600              0.4037980              0.23858600
SP   3   1.00
      2.1562300             -0.2529230             -0.01776530
      0.7489970              0.0328517              0.27405800
      0.2831450              1.0812500              0.78542100
SP   1   1.00
      0.0998317              1.0000000              1.00000000
D    1   1.00
      1.1000000              1.0000000
D    1   1.00
      0.2750000              1.0000000
F    1   1.00
      0.4500000              1.0000000
****
S     0
S    6   1.00
  21917.1000000              0.0018690
   3301.4900000              0.0142300
    754.1460000              0.0696960
    212.7110000              0.2384870
     67.9896000              0.4833070
     23.0515000              0.3380740
SP   6   1.00
    423.7350000             -0.0023767              0.0040610
    100.7100000             -0.0316930              0.0306810
     32.1599000             -0.1133170              0.1304520
     11.8079000              0.0560900              0.3272050
      4.6311000              0.5922550              0.4528510
      1.8702500              0.4550060              0.2560420
SP   3   1.00
      2.6158400             -0.2503740             -0.0145110
      0.9221670              0.0669570              0.3102630
      0.3412870              1.0545100              0.7544830
SP   1   1.00
      0.1171670              1.0000000              1.0000000
D    1   1.00
      1.3000000              1.0000000
D    1   1.00
      0.3250000              1.0000000
F    1   1.00
      0.5500000              1.0000000
****
Cl     0
S    6   1.00
  25180.1000000              0.0018330
   3780.3500000              0.0140340
    860.4740000              0.0690970
    242.1450000              0.2374520
     77.3349000              0.4830340
     26.2470000              0.3398560
SP   6   1.00
    491.7650000             -0.0022974              0.0039894
    116.9840000             -0.0307140              0.0303180
     37.4153000             -0.1125280              0.1298800
     13.7834000              0.0450160              0.3279510
      5.4521500              0.5893530              0.4535270
      2.2258800              0.4652060              0.2521540
SP   3   1.00
      3.1864900             -0.2518300             -0.0142990
      1.1442700              0.0615890              0.3235720
      0.4203770              1.0601800              0.7435070
SP   1   1.00
      0.1426570              1.0000000              1.0000000
D    1   1.00
      1.5000000              1.0000000
D    1   1.00
      0.3750000              1.0000000
F    1   1.00
      0.7000000              1.0000000
****
}

set {
reference uhf
freeze_core true
e_convergence 10
d_convergence 10
dft_spherical_points 1202
dft_radial_points 99
}

e = energy('b3lyp')

print_out('Grab this energy {0}'.format(e))
--------------------------------------------------------------------------

    Molecular point group: c1

    Geometry (in Bohr), charge = 0, multiplicity = 2:

       Center              X                  Y                   Z               Mass
    ------------   -----------------  -----------------  -----------------  -----------------
         C           -0.323332466126    -0.003557791429     0.003979792024    12.000000000000
         C            0.060962105774    -1.397172697729    -2.433536223476    12.000000000000
         C            0.061623493474     2.795286947971    -0.000266404676    12.000000000000
         C            0.060709974474    -1.396284708829     2.431450125324    12.000000000000
         H            2.086333903274    -1.636387569629    -2.858274711576     1.007825032230
         H           -0.767957504626    -0.378840869129    -4.029708153276     1.007825032230
         H           -0.764185362026    -3.288319090529    -2.364095340676     1.007825032230
         H            2.087574536974     3.280390045471    -0.002370235676     1.007825032230
         H           -0.765431126926     3.672919692771     1.674192504224     1.007825032230
         H           -0.763749623826     3.674616591171    -1.678417797976     1.007825032230
         H            2.086751893174    -1.636753199329     2.854159236824     1.007825032230
         H           -0.763241311426    -3.289279695929     2.360180104024     1.007825032230
         H           -0.768700117626    -0.377767928029     4.024958540424     1.007825032230

  Charge       = 0
  Multiplicity = 2
  Basis Set: ANONYMOUS91F7A710
    Blend: 6-31G_2DFP_
  Basis Set: (ANONYMOUS91F7A710 AUX)
    Blend: DEF2-UNIVERSAL-JKFIT

    Orbital Energies [Eh]
    ---------------------

    Alpha Occupied:

       1A    -10.180341     2A    -10.167203     3A    -10.167139
       4A    -10.166703     5A     -0.797773     6A     -0.686476
       7A     -0.685895     8A     -0.530776     9A     -0.441133
      10A     -0.435005    11A     -0.434332    12A     -0.382783
      13A     -0.382416    14A     -0.363608    15A     -0.338584
      16A     -0.337409    17A     -0.168961

    Alpha Virtual:

      18A      0.076072    19A      0.133916    20A      0.134394
      21A      0.142403    22A      0.142849    23A      0.154880
      24A      0.178556    25A      0.179002    26A      0.203541
      27A      0.214807    28A      0.275652    29A      0.276319
      30A      0.399030    31A      0.399360    32A      0.403417
      33A      0.423967    34A      0.424237    35A      0.456595
      36A      0.494983    37A      0.495787    38A      0.512172
      39A      0.513985    40A      0.578492    41A      0.579111
      42A      0.591628    43A      0.591665    44A      0.602577
      45A      0.624757    46A      0.631767    47A      0.635982
      48A      0.636533    49A      0.663188    50A      0.663640
      51A      0.683609    52A      0.684100    53A      0.734993
      54A      0.824570    55A      0.826230    56A      0.853915
      57A      0.914756    58A      0.915290    59A      0.944055
      60A      0.944521    61A      0.961091    62A      0.961698
      63A      1.003470    64A      1.126909    65A      1.129292
      66A      1.142255    67A      1.162650    68A      1.163880
      69A      1.223336    70A      1.273800    71A      1.275195
      72A      1.279350    73A      1.324222    74A      1.324485
      75A      1.355993    76A      1.365226    77A      1.366833
      78A      1.392414    79A      1.403302    80A      1.404867
      81A      1.416523    82A      1.417721    83A      1.427943
      84A      1.491430    85A      1.499065    86A      1.542501
      87A      1.543177    88A      1.572665    89A      1.576335
      90A      1.669818    91A      1.738350    92A      1.740456
      93A      1.768347    94A      1.830828    95A      1.831969
      96A      1.971727    97A      2.017510    98A      2.018289
      99A      2.020566   100A      2.050104   101A      2.055288
     102A      2.738129   103A      2.738842   104A      2.790923
     105A      2.811436   106A      2.889375   107A      2.890516
     108A      2.894941   109A      2.929070   110A      2.929918
     111A      2.958982   112A      2.963503   113A      2.965288
     114A      3.034004   115A      3.070147   116A      3.072410
     117A      3.084379   118A      3.167998   119A      3.169557
     120A      3.180625   121A      3.284532   122A      3.286077
     123A      3.326145   124A      3.328179   125A      3.375651
     126A      3.489425   127A      3.490790   128A      3.514047
     129A      3.525314   130A      3.567073   131A      3.569597
     132A      3.575342   133A      3.666053   134A      3.666718
     135A      3.679664   136A      3.693655   137A      3.694541
     138A      3.775646   139A      3.777841   140A      3.789344
     141A      3.910738   142A      3.913723   143A      4.034454
     144A      4.109970   145A      4.112784   146A      4.146187
     147A      4.150013   148A      4.173247   149A      4.201048
     150A      4.202910   151A      4.204804   152A      4.210970
     153A      4.315374   154A      4.316538   155A      4.359004
     156A      4.424217   157A      4.424557   158A      4.443554
     159A      4.516040   160A      4.517672   161A      4.576889
     162A      4.579353   163A      4.617834   164A      4.709456
     165A      4.773183   166A      4.776044   167A      4.836930
     168A      4.962821   169A      5.001963   170A      5.004012
     171A      5.228027   172A      5.246670   173A      5.246990
     174A      5.354606   175A      5.356398   176A      5.479330

    Beta Occupied:

       1A    -10.167956     2A    -10.167902     3A    -10.167467
       4A    -10.166518     5A     -0.781098     6A     -0.684274
       7A     -0.683703     8A     -0.511747     9A     -0.431391
      10A     -0.430699    11A     -0.421820    12A     -0.376855
      13A     -0.376516    14A     -0.362591    15A     -0.333717
      16A     -0.332522

    Beta Virtual:

      17A     -0.025743    18A      0.077081    19A      0.134795
      20A      0.135294    21A      0.144286    22A      0.144709
      23A      0.163340    24A      0.182217    25A      0.182683
      26A      0.215037    27A      0.218923    28A      0.282022
      29A      0.282644    30A      0.400229    31A      0.400559
      32A      0.419800    33A      0.426762    34A      0.427065
      35A      0.468505    36A      0.497239    37A      0.498056
      38A      0.513907    39A      0.556324    40A      0.584051
      41A      0.584657    42A      0.597793    43A      0.597854
      44A      0.609997    45A      0.628137    46A      0.631925
      47A      0.639249    48A      0.639838    49A      0.666728
      50A      0.667226    51A      0.686195    52A      0.686787
      53A      0.757515    54A      0.829728    55A      0.831409
      56A      0.855268    57A      0.922701    58A      0.923285
      59A      0.945914    60A      0.953434    61A      0.966372
      62A      0.967030    63A      1.008707    64A      1.130964
      65A      1.133313    66A      1.155610    67A      1.167699
      68A      1.168980    69A      1.232306    70A      1.279431
      71A      1.280760    72A      1.285103    73A      1.329209
      74A      1.329477    75A      1.365408    76A      1.370382
      77A      1.372159    78A      1.393477    79A      1.406797
      80A      1.408306    81A      1.421569    82A      1.422764
      83A      1.428220    84A      1.492482    85A      1.509508
      86A      1.546811    87A      1.547681    88A      1.580677
      89A      1.584067    90A      1.674665    91A      1.744114
      92A      1.746218    93A      1.779124    94A      1.834662
      95A      1.835846    96A      1.972590    97A      2.023868
      98A      2.027018    99A      2.039642   100A      2.056915
     101A      2.061919   102A      2.746410   103A      2.747233
     104A      2.811849   105A      2.816057   106A      2.902155
     107A      2.903110   108A      2.924644   109A      2.931532
     110A      2.932427   111A      2.960053   112A      2.968072
     113A      2.969799   114A      3.041939   115A      3.079898
     116A      3.082381   117A      3.086301   118A      3.183753
     119A      3.185188   120A      3.188407   121A      3.289413
     122A      3.290799   123A      3.329943   124A      3.331993
     125A      3.383468   126A      3.492151   127A      3.493511
     128A      3.512429   129A      3.528368   130A      3.574721
     131A      3.580881   132A      3.582948   133A      3.670859
     134A      3.671397   135A      3.692961   136A      3.725310
     137A      3.726146   138A      3.780202   139A      3.782441
     140A      3.817777   141A      3.920562   142A      3.923540
     143A      4.045341   144A      4.116802   145A      4.119583
     146A      4.153456   147A      4.157164   148A      4.187307
     149A      4.207074   150A      4.210622   151A      4.210884
     152A      4.215468   153A      4.322748   154A      4.324044
     155A      4.362367   156A      4.432414   157A      4.432739
     158A      4.446493   159A      4.523910   160A      4.525374
     161A      4.587390   162A      4.590033   163A      4.625048
     164A      4.719803   165A      4.780087   166A      4.783045
     167A      4.839849   168A      4.967612   169A      5.006008
     170A      5.008048   171A      5.233740   172A      5.248453
     173A      5.248778   174A      5.361057   175A      5.362909
     176A      5.481651

    Final Occupation by Irrep:
              A
    DOCC [    16 ]
    SOCC [     1 ]

  @DF-UKS Final Energy:  -157.81305638355241

   => Energetics <=

    Nuclear Repulsion Energy =            125.3949328408639019
    One-Electron Energy =                -458.7494950467511217
    Two-Electron Energy =                 195.8486547343300970
    DFT Exchange-Correlation Energy =     -20.3071489119953270
    Empirical Dispersion Energy =           0.0000000000000000
    VV10 Nonlocal Energy =                  0.0000000000000000
    Total Energy =                       -157.8130563835524072

  UHF NO Occupations:
  HONO-2 :   15  A 1.9996009
  HONO-1 :   16  A 1.9989804
  HONO-0 :   17  A 1.0000000
  LUNO+0 :   18  A 0.0010196
  LUNO+1 :   19  A 0.0003991
  LUNO+2 :   20  A 0.0001987
  LUNO+3 :   21  A 0.0001964

Computation Completed

Properties will be evaluated at   0.000000,   0.000000,   0.000000 [a0]

Properties computed using the SCF density matrix

  Nuclear Dipole Moment: [e a0]
     X:     0.8272      Y:     0.0102      Z:    -0.0096

  Electronic Dipole Moment: [e a0]
     X:    -0.7493      Y:    -0.0109      Z:     0.0108

  Dipole Moment: [e a0]
     X:     0.0779      Y:    -0.0007      Z:     0.0012     Total:     0.0779

  Dipole Moment: [D]
     X:     0.1980      Y:    -0.0019      Z:     0.0031     Total:     0.1981

*** tstop() called on n061 at Fri Nov  5 14:02:51 2021
Module time:
	user time   =     538.76 seconds =       8.98 minutes
	system time =      11.76 seconds =       0.20 minutes
	total time  =        139 seconds =       2.32 minutes
Total time:
	user time   =     538.76 seconds =       8.98 minutes
	system time =      11.76 seconds =       0.20 minutes
	total time  =        139 seconds =       2.32 minutes
Grab this energy -157.8130563835524
    Psi4 stopped on: Friday, 05 November 2021 02:02PM
    Psi4 wall time for execution: 0:02:18.46

*** Psi4 exiting successfully. Buy a developer a beer!
