                               Psi4 1.4a2.dev629

  ==> Input File <==

--------------------------------------------------------------------------
import os
memory 14 GB

molecule {
 C   -0.3233358655   -0.0000028043    0.0050878094
 C    0.0594930089   -1.4016670836   -2.4258759702
 C    0.0610203364    2.8017576660    0.0018749995
 C    0.0627881921   -1.4000852311    2.4268865999
 H    2.0869064715   -1.6438187607   -2.8481990760
 H   -0.7644113160   -0.3885357469   -4.0266108488
 H   -0.7655487583   -3.2916345460   -2.3495696705
 H    2.0867964161    3.2881022199   -0.0012354816
 H   -0.7666185334    3.6794360770    1.6756029182
 H   -0.7646732732    3.6810618319   -1.6773997812
 H    2.0869684647   -1.6443730527    2.8466879266
 H   -0.7655925453   -3.2923594271    2.3484020535
 H   -0.7664004747   -0.3879054560    4.0243485212
units bohr
0 2
}

basis {

assign 6-31g_2dfp_

[ 6-31g_2dfp_ ]

spherical

!----------------------------------------------------------------------
! Basis Set Exchange
! Version v0.8.13
! https://www.basissetexchange.org
!----------------------------------------------------------------------
!   Basis set: 6-31G(2df,p)
! Description: 6-31G(2df,p)
!        Role: orbital
!     Version: 0  (Data from the original Basis Set Exchange)
!----------------------------------------------------------------------

****
H     0
S    3   1.00
     18.7311370              0.03349460
      2.8253937              0.23472695
      0.6401217              0.81375733
S    1   1.00
      0.1612778              1.00000000
P    1   1.00
      1.5000000              1.0000000
P    1   1.00
      0.3750000              1.0000000
****
B     0
S    6   1.00
   2068.8823000              0.0018663
    310.6495700              0.0142515
     70.6830330              0.0695516
     19.8610800              0.2325729
      6.2993048              0.4670787
      2.1270270              0.3634314
SP   3   1.00
      4.7279710             -0.1303938              0.0745976
      1.1903377             -0.1307889              0.3078467
      0.3594117              1.1309444              0.7434568
SP   1   1.00
      0.1267512              1.0000000              1.0000000
D    1   1.00
      0.8020000              1.0000000
D    1   1.00
      0.2005000              1.0000000
F    1   1.00
      0.5000000              1.0000000
****
C     0
S    6   1.00
   3047.5249000              0.0018347
    457.3695100              0.0140373
    103.9486900              0.0688426
     29.2101550              0.2321844
      9.2866630              0.4679413
      3.1639270              0.3623120
SP   3   1.00
      7.8682724             -0.1193324              0.0689991
      1.8812885             -0.1608542              0.3164240
      0.5442493              1.1434564              0.7443083
SP   1   1.00
      0.1687144              1.0000000              1.0000000
D    1   1.00
      1.2520000              1.0000000
D    1   1.00
      0.3130000              1.0000000
F    1   1.00
      0.8000000              1.0000000
****
N     0
S    6   1.00
   4173.5110000              0.0018348
    627.4579000              0.0139950
    142.9021000              0.0685870
     40.2343300              0.2322410
     12.8202100              0.4690700
      4.3904370              0.3604550
SP   3   1.00
     11.6263580             -0.1149610              0.0675800
      2.7162800             -0.1691180              0.3239070
      0.7722180              1.1458520              0.7408950
SP   1   1.00
      0.2120313              1.0000000              1.0000000
D    1   1.00
      1.8260000              1.0000000
D    1   1.00
      0.4565000              1.0000000
F    1   1.00
      1.0000000              1.0000000
****
O     0
S    6   1.00
   5484.6717000              0.0018311
    825.2349500              0.0139501
    188.0469600              0.0684451
     52.9645000              0.2327143
     16.8975700              0.4701930
      5.7996353              0.3585209
SP   3   1.00
     15.5396160             -0.1107775              0.0708743
      3.5999336             -0.1480263              0.3397528
      1.0137618              1.1307670              0.7271586
SP   1   1.00
      0.2700058              1.0000000              1.0000000
D    1   1.00
      2.5840000              1.0000000
D    1   1.00
      0.6460000              1.0000000
F    1   1.00
      1.4000000              1.0000000
****
F     0
S    6   1.00
   7001.7130900              0.0018196169
   1051.3660900              0.0139160796
    239.2856900              0.0684053245
     67.3974453              0.233185760
     21.5199573              0.471267439
      7.40310130             0.356618546
SP   3   1.00
     20.8479528             -0.108506975            0.0716287243
      4.80830834            -0.146451658            0.3459121030
      1.34406986             1.128688580            0.7224699570
SP   1   1.00
      0.358151393            1.0000000              1.0000000
D    1   1.00
      3.5000000              1.0000000
D    1   1.00
      0.8750000              1.0000000
F    1   1.00
      1.8500000              1.0000000
****
Al     0
S    6   1.00
  13983.1000000              0.00194267
   2098.7500000              0.0148599
    477.7050000              0.0728494
    134.3600000              0.2468300
     42.8709000              0.4872580
     14.5189000              0.3234960
SP   6   1.00
    239.6680000             -0.00292619             0.00460285
     57.4419000             -0.0374080              0.0331990
     18.2859000             -0.1144870              0.1362820
      6.5991400              0.1156350              0.3304760
      2.4904900              0.6125950              0.4491460
      0.9445400              0.3937990              0.2657040
SP   3   1.00
      1.2779000             -0.2276060             -0.0175130
      0.3975900              0.00144583             0.2445330
      0.1600950              1.0927900              0.8049340
SP   1   1.00
      0.0556577              1.0000000              1.0000000
D    1   1.00
      0.6500000              1.0000000
D    1   1.00
      0.1625000              1.0000000
F    1   1.00
      0.2500000              1.0000000
****
Si     0
S    6   1.00
  16115.9000000              0.00195948
   2425.5800000              0.01492880
    553.8670000              0.07284780
    156.3400000              0.24613000
     50.0683000              0.48591400
     17.0178000              0.32500200
SP   6   1.00
    292.7180000             -0.00278094             0.00443826
     69.8731000             -0.03571460             0.03266790
     22.3363000             -0.11498500             0.13472100
      8.1503900              0.09356340             0.32867800
      3.1345800              0.60301700             0.44964000
      1.2254300              0.41895900             0.26137200
SP   3   1.00
      1.7273800             -0.24463000            -0.01779510
      0.5729220              0.00431572             0.25353900
      0.2221920              1.09818000             0.80066900
SP   1   1.00
      0.0778369              1.00000000             1.00000000
D    1   1.00
      0.9000000              1.0000000
D    1   1.00
      0.2250000              1.0000000
F    1   1.00
      0.3200000              1.0000000
****
P     0
S    6   1.00
  19413.3000000              0.0018516
   2909.4200000              0.0142062
    661.3640000              0.0699995
    185.7590000              0.2400790
     59.1943000              0.4847620
     20.0310000              0.3352000
SP   6   1.00
    339.4780000             -0.00278217             0.00456462
     81.0101000             -0.0360499              0.03369360
     25.8780000             -0.1166310              0.13975500
      9.4522100              0.0968328              0.33936200
      3.6656600              0.6144180              0.45092100
      1.4674600              0.4037980              0.23858600
SP   3   1.00
      2.1562300             -0.2529230             -0.01776530
      0.7489970              0.0328517              0.27405800
      0.2831450              1.0812500              0.78542100
SP   1   1.00
      0.0998317              1.0000000              1.00000000
D    1   1.00
      1.1000000              1.0000000
D    1   1.00
      0.2750000              1.0000000
F    1   1.00
      0.4500000              1.0000000
****
S     0
S    6   1.00
  21917.1000000              0.0018690
   3301.4900000              0.0142300
    754.1460000              0.0696960
    212.7110000              0.2384870
     67.9896000              0.4833070
     23.0515000              0.3380740
SP   6   1.00
    423.7350000             -0.0023767              0.0040610
    100.7100000             -0.0316930              0.0306810
     32.1599000             -0.1133170              0.1304520
     11.8079000              0.0560900              0.3272050
      4.6311000              0.5922550              0.4528510
      1.8702500              0.4550060              0.2560420
SP   3   1.00
      2.6158400             -0.2503740             -0.0145110
      0.9221670              0.0669570              0.3102630
      0.3412870              1.0545100              0.7544830
SP   1   1.00
      0.1171670              1.0000000              1.0000000
D    1   1.00
      1.3000000              1.0000000
D    1   1.00
      0.3250000              1.0000000
F    1   1.00
      0.5500000              1.0000000
****
Cl     0
S    6   1.00
  25180.1000000              0.0018330
   3780.3500000              0.0140340
    860.4740000              0.0690970
    242.1450000              0.2374520
     77.3349000              0.4830340
     26.2470000              0.3398560
SP   6   1.00
    491.7650000             -0.0022974              0.0039894
    116.9840000             -0.0307140              0.0303180
     37.4153000             -0.1125280              0.1298800
     13.7834000              0.0450160              0.3279510
      5.4521500              0.5893530              0.4535270
      2.2258800              0.4652060              0.2521540
SP   3   1.00
      3.1864900             -0.2518300             -0.0142990
      1.1442700              0.0615890              0.3235720
      0.4203770              1.0601800              0.7435070
SP   1   1.00
      0.1426570              1.0000000              1.0000000
D    1   1.00
      1.5000000              1.0000000
D    1   1.00
      0.3750000              1.0000000
F    1   1.00
      0.7000000              1.0000000
****
}

set {
reference uhf
freeze_core true
e_convergence 10
d_convergence 10
dft_spherical_points 1202
dft_radial_points 99
}

e = energy('b3lyp')

print_out('Grab this energy {0}'.format(e))
--------------------------------------------------------------------------

    Molecular point group: c1

    Geometry (in Bohr), charge = 0, multiplicity = 2:

       Center              X                  Y                   Z               Mass
    ------------   -----------------  -----------------  -----------------  -----------------
         C           -0.323336955030    -0.000002865509     0.003552067696    12.000000000000
         C            0.059491919370    -1.401667144809    -2.427411711904    12.000000000000
         C            0.061019246870     2.801757604791     0.000339257796    12.000000000000
         C            0.062787102570    -1.400085292309     2.425350858196    12.000000000000
         H            2.086905381970    -1.643818821909    -2.849734817704     1.007825032230
         H           -0.764412405530    -0.388535808109    -4.028146590504     1.007825032230
         H           -0.765549847830    -3.291634607209    -2.351105412204     1.007825032230
         H            2.086795326570     3.288102158691    -0.002771223304     1.007825032230
         H           -0.766619622930     3.679436015791     1.674067176496     1.007825032230
         H           -0.764674362730     3.681061770691    -1.678935522904     1.007825032230
         H            2.086967375170    -1.644373113909     2.845152184896     1.007825032230
         H           -0.765593634830    -3.292359488309     2.346866311796     1.007825032230
         H           -0.766401564230    -0.387905517209     4.022812779496     1.007825032230

  Charge       = 0
  Multiplicity = 2
  Basis Set: ANONYMOUSEAD89038
    Blend: 6-31G_2DFP_
  Basis Set: (ANONYMOUSEAD89038 AUX)
    Blend: DEF2-UNIVERSAL-JKFIT

    Orbital Energies [Eh]
    ---------------------

    Alpha Occupied:

       1A    -10.180342     2A    -10.167077     3A    -10.167017
       4A    -10.166951     5A     -0.797769     6A     -0.686342
       7A     -0.686031     8A     -0.530775     9A     -0.441140
      10A     -0.434777    11A     -0.434551    12A     -0.382868
      13A     -0.382334    14A     -0.363607    15A     -0.338433
      16A     -0.337563    17A     -0.168961

    Alpha Virtual:

      18A      0.076072    19A      0.134136    20A      0.134174
      21A      0.142388    22A      0.142864    23A      0.154881
      24A      0.178658    25A      0.178899    26A      0.203544
      27A      0.214803    28A      0.275751    29A      0.276218
      30A      0.399192    31A      0.399259    32A      0.403350
      33A      0.424049    34A      0.424145    35A      0.456591
      36A      0.495371    37A      0.495410    38A      0.512160
      39A      0.513978    40A      0.578537    41A      0.579099
      42A      0.591518    43A      0.591752    44A      0.602580
      45A      0.624744    46A      0.631776    47A      0.635998
      48A      0.636515    49A      0.663310    50A      0.663516
      51A      0.683654    52A      0.684051    53A      0.734993
      54A      0.825312    55A      0.825501    56A      0.853917
      57A      0.914930    58A      0.915115    59A      0.944126
      60A      0.944621    61A      0.961038    62A      0.961543
      63A      1.003456    64A      1.127743    65A      1.128443
      66A      1.142252    67A      1.162788    68A      1.163755
      69A      1.223322    70A      1.274169    71A      1.274821
      72A      1.279346    73A      1.324005    74A      1.324703
      75A      1.355987    76A      1.366018    77A      1.366090
      78A      1.392448    79A      1.403868    80A      1.404211
      81A      1.417095    82A      1.417143    83A      1.427930
      84A      1.491491    85A      1.499087    86A      1.542785
      87A      1.542878    88A      1.574271    89A      1.574622
      90A      1.669824    91A      1.738810    92A      1.740025
      93A      1.768320    94A      1.831324    95A      1.831452
      96A      1.971742    97A      2.018166    98A      2.019023
      99A      2.019191   100A      2.051750   101A      2.053559
     102A      2.738207   103A      2.738763   104A      2.790929
     105A      2.811418   106A      2.889662   107A      2.890238
     108A      2.894937   109A      2.929143   110A      2.929860
     111A      2.958992   112A      2.964332   113A      2.964430
     114A      3.033996   115A      3.070899   116A      3.071670
     117A      3.084357   118A      3.168668   119A      3.168811
     120A      3.180685   121A      3.284979   122A      3.285644
     123A      3.326931   124A      3.327388   125A      3.375613
     126A      3.489922   127A      3.490355   128A      3.514037
     129A      3.525347   130A      3.568265   131A      3.568514
     132A      3.575135   133A      3.666378   134A      3.666403
     135A      3.679668   136A      3.694069   137A      3.694150
     138A      3.776020   139A      3.777582   140A      3.789152
     141A      3.911844   142A      3.912606   143A      4.034448
     144A      4.111144   145A      4.111603   146A      4.147193
     147A      4.149036   148A      4.173256   149A      4.202323
     150A      4.202746   151A      4.203682   152A      4.210895
     153A      4.315832   154A      4.316098   155A      4.358953
     156A      4.424383   157A      4.424505   158A      4.443458
     159A      4.515655   160A      4.518024   161A      4.577764
     162A      4.578518   163A      4.617816   164A      4.709455
     165A      4.773536   166A      4.775677   167A      4.836901
     168A      4.962806   169A      5.002784   170A      5.003174
     171A      5.228040   172A      5.246775   173A      5.246876
     174A      5.355212   175A      5.355798   176A      5.479347

    Beta Occupied:

       1A    -10.167831     2A    -10.167775     3A    -10.167717
       4A    -10.166519     5A     -0.781094     6A     -0.684133
       7A     -0.683845     8A     -0.511747     9A     -0.431152
      10A     -0.430942    11A     -0.421815    12A     -0.376921
      13A     -0.376452    14A     -0.362590    15A     -0.333564
      16A     -0.332677

    Beta Virtual:

      17A     -0.025742    18A      0.077081    19A      0.135017
      20A      0.135072    21A      0.144275    22A      0.144721
      23A      0.163339    24A      0.182316    25A      0.182584
      26A      0.215032    27A      0.218927    28A      0.282131
      29A      0.282534    30A      0.400360    31A      0.400435
      32A      0.419792    33A      0.426868    34A      0.426948
      35A      0.468498    36A      0.497625    37A      0.497677
      38A      0.513895    39A      0.556322    40A      0.584070
      41A      0.584668    42A      0.597683    43A      0.597945
      44A      0.610004    45A      0.628118    46A      0.631931
      47A      0.639270    48A      0.639817    49A      0.666883
      50A      0.667070    51A      0.686285    52A      0.686690
      53A      0.757517    54A      0.830483    55A      0.830668
      56A      0.855270    57A      0.922873    58A      0.923114
      59A      0.945963    60A      0.953550    61A      0.966329
      62A      0.966863    63A      1.008696    64A      1.131766
      65A      1.132492    66A      1.155616    67A      1.167914
      68A      1.168773    69A      1.232295    70A      1.279823
      71A      1.280360    72A      1.285100    73A      1.328995
      74A      1.329690    75A      1.365401    76A      1.371216
      77A      1.371385    78A      1.393507    79A      1.407266
      80A      1.407743    81A      1.422133    82A      1.422198
      83A      1.428204    84A      1.492539    85A      1.509529
      86A      1.547222    87A      1.547258    88A      1.582223
      89A      1.582413    90A      1.674672    91A      1.744575
      92A      1.745783    93A      1.779100    94A      1.835165
      95A      1.835321    96A      1.972602    97A      2.025360
      98A      2.025514    99A      2.039678   100A      2.058508
     101A      2.060239   102A      2.746517   103A      2.747125
     104A      2.811830   105A      2.816063   106A      2.902429
     107A      2.902846   108A      2.924645   109A      2.931567
     110A      2.932398   111A      2.960057   112A      2.968872
     113A      2.968976   114A      3.041932   115A      3.080875
     116A      3.081505   117A      3.086182   118A      3.184210
     119A      3.184585   120A      3.188553   121A      3.289827
     122A      3.290392   123A      3.330748   124A      3.331182
     125A      3.383431   126A      3.492638   127A      3.493091
     128A      3.512409   129A      3.528394   130A      3.574994
     131A      3.581589   132A      3.581873   133A      3.671122
     134A      3.671144   135A      3.692958   136A      3.725728
     137A      3.725767   138A      3.780575   139A      3.782096
     140A      3.817674   141A      3.921681   142A      3.922408
     143A      4.045334   144A      4.117951   145A      4.118425
     146A      4.154473   147A      4.156177   148A      4.187314
     149A      4.208374   150A      4.209525   151A      4.210688
     152A      4.215375   153A      4.323234   154A      4.323578
     155A      4.362317   156A      4.432594   157A      4.432709
     158A      4.446356   159A      4.523402   160A      4.525855
     161A      4.588368   162A      4.589097   163A      4.625028
     164A      4.719802   165A      4.780472   166A      4.782649
     167A      4.839817   168A      4.967599   169A      5.006826
     170A      5.007211   171A      5.233755   172A      5.248565
     173A      5.248656   174A      5.361665   175A      5.362306
     176A      5.481668

    Final Occupation by Irrep:
              A
    DOCC [    16 ]
    SOCC [     1 ]

  @DF-UKS Final Energy:  -157.81306366493496

   => Energetics <=

    Nuclear Repulsion Energy =            125.3946632261161653
    One-Electron Energy =                -458.7489753961477845
    Two-Electron Energy =                 195.8483938553140433
    DFT Exchange-Correlation Energy =     -20.3071453502173931
    Empirical Dispersion Energy =           0.0000000000000000
    VV10 Nonlocal Energy =                  0.0000000000000000
    Total Energy =                       -157.8130636649349583

  UHF NO Occupations:
  HONO-2 :   15  A 1.9996009
  HONO-1 :   16  A 1.9989805
  HONO-0 :   17  A 1.0000000
  LUNO+0 :   18  A 0.0010195
  LUNO+1 :   19  A 0.0003991
  LUNO+2 :   20  A 0.0001985
  LUNO+3 :   21  A 0.0001966

Computation Completed

Properties will be evaluated at   0.000000,   0.000000,   0.000000 [a0]

Properties computed using the SCF density matrix

  Nuclear Dipole Moment: [e a0]
     X:     0.8272      Y:    -0.0000      Z:    -0.0108

  Electronic Dipole Moment: [e a0]
     X:    -0.7493      Y:     0.0000      Z:     0.0119

  Dipole Moment: [e a0]
     X:     0.0779      Y:     0.0000      Z:     0.0011     Total:     0.0779

  Dipole Moment: [D]
     X:     0.1980      Y:     0.0000      Z:     0.0028     Total:     0.1981

*** tstop() called on n067 at Fri Nov  5 12:17:07 2021
Module time:
	user time   =     542.53 seconds =       9.04 minutes
	system time =      12.00 seconds =       0.20 minutes
	total time  =        140 seconds =       2.33 minutes
Total time:
	user time   =     542.53 seconds =       9.04 minutes
	system time =      12.00 seconds =       0.20 minutes
	total time  =        140 seconds =       2.33 minutes
Grab this energy -157.81306366493496
    Psi4 stopped on: Friday, 05 November 2021 12:17PM
    Psi4 wall time for execution: 0:02:19.45

*** Psi4 exiting successfully. Buy a developer a beer!
