                               Psi4 1.4a2.dev629

  ==> Input File <==

--------------------------------------------------------------------------
import os
memory 14 GB

molecule {
 C   -0.3233292089   -0.0000024105   -0.0004972526
 C    0.0601296003   -1.4015741126   -2.4279701790
 C    0.0612030990    2.8033981923   -0.0003837941
 C    0.0625147905   -1.4018224102    2.4276326437
 H    2.0905579908   -1.6435563805   -2.8466819676
 H   -0.7665786450   -0.3902726140   -4.0235231831
 H   -0.7679403089   -3.2897715725   -2.3500357065
 H    2.0868498131    3.2876054983   -0.0001820254
 H   -0.7669640615    3.6802356668    1.6769053555
 H   -0.7645665141    3.6793083682   -1.6763009757
 H    2.0834181951   -1.6441405546    2.8473310971
 H   -0.7634339321   -3.2939244815    2.3469994818
 H   -0.7644686950   -0.3855075029    4.0267065058
units bohr
0 2
}

basis {

assign 6-31g_2dfp_

[ 6-31g_2dfp_ ]

spherical

!----------------------------------------------------------------------
! Basis Set Exchange
! Version v0.8.13
! https://www.basissetexchange.org
!----------------------------------------------------------------------
!   Basis set: 6-31G(2df,p)
! Description: 6-31G(2df,p)
!        Role: orbital
!     Version: 0  (Data from the original Basis Set Exchange)
!----------------------------------------------------------------------

****
H     0
S    3   1.00
     18.7311370              0.03349460
      2.8253937              0.23472695
      0.6401217              0.81375733
S    1   1.00
      0.1612778              1.00000000
P    1   1.00
      1.5000000              1.0000000
P    1   1.00
      0.3750000              1.0000000
****
B     0
S    6   1.00
   2068.8823000              0.0018663
    310.6495700              0.0142515
     70.6830330              0.0695516
     19.8610800              0.2325729
      6.2993048              0.4670787
      2.1270270              0.3634314
SP   3   1.00
      4.7279710             -0.1303938              0.0745976
      1.1903377             -0.1307889              0.3078467
      0.3594117              1.1309444              0.7434568
SP   1   1.00
      0.1267512              1.0000000              1.0000000
D    1   1.00
      0.8020000              1.0000000
D    1   1.00
      0.2005000              1.0000000
F    1   1.00
      0.5000000              1.0000000
****
C     0
S    6   1.00
   3047.5249000              0.0018347
    457.3695100              0.0140373
    103.9486900              0.0688426
     29.2101550              0.2321844
      9.2866630              0.4679413
      3.1639270              0.3623120
SP   3   1.00
      7.8682724             -0.1193324              0.0689991
      1.8812885             -0.1608542              0.3164240
      0.5442493              1.1434564              0.7443083
SP   1   1.00
      0.1687144              1.0000000              1.0000000
D    1   1.00
      1.2520000              1.0000000
D    1   1.00
      0.3130000              1.0000000
F    1   1.00
      0.8000000              1.0000000
****
N     0
S    6   1.00
   4173.5110000              0.0018348
    627.4579000              0.0139950
    142.9021000              0.0685870
     40.2343300              0.2322410
     12.8202100              0.4690700
      4.3904370              0.3604550
SP   3   1.00
     11.6263580             -0.1149610              0.0675800
      2.7162800             -0.1691180              0.3239070
      0.7722180              1.1458520              0.7408950
SP   1   1.00
      0.2120313              1.0000000              1.0000000
D    1   1.00
      1.8260000              1.0000000
D    1   1.00
      0.4565000              1.0000000
F    1   1.00
      1.0000000              1.0000000
****
O     0
S    6   1.00
   5484.6717000              0.0018311
    825.2349500              0.0139501
    188.0469600              0.0684451
     52.9645000              0.2327143
     16.8975700              0.4701930
      5.7996353              0.3585209
SP   3   1.00
     15.5396160             -0.1107775              0.0708743
      3.5999336             -0.1480263              0.3397528
      1.0137618              1.1307670              0.7271586
SP   1   1.00
      0.2700058              1.0000000              1.0000000
D    1   1.00
      2.5840000              1.0000000
D    1   1.00
      0.6460000              1.0000000
F    1   1.00
      1.4000000              1.0000000
****
F     0
S    6   1.00
   7001.7130900              0.0018196169
   1051.3660900              0.0139160796
    239.2856900              0.0684053245
     67.3974453              0.233185760
     21.5199573              0.471267439
      7.40310130             0.356618546
SP   3   1.00
     20.8479528             -0.108506975            0.0716287243
      4.80830834            -0.146451658            0.3459121030
      1.34406986             1.128688580            0.7224699570
SP   1   1.00
      0.358151393            1.0000000              1.0000000
D    1   1.00
      3.5000000              1.0000000
D    1   1.00
      0.8750000              1.0000000
F    1   1.00
      1.8500000              1.0000000
****
Al     0
S    6   1.00
  13983.1000000              0.00194267
   2098.7500000              0.0148599
    477.7050000              0.0728494
    134.3600000              0.2468300
     42.8709000              0.4872580
     14.5189000              0.3234960
SP   6   1.00
    239.6680000             -0.00292619             0.00460285
     57.4419000             -0.0374080              0.0331990
     18.2859000             -0.1144870              0.1362820
      6.5991400              0.1156350              0.3304760
      2.4904900              0.6125950              0.4491460
      0.9445400              0.3937990              0.2657040
SP   3   1.00
      1.2779000             -0.2276060             -0.0175130
      0.3975900              0.00144583             0.2445330
      0.1600950              1.0927900              0.8049340
SP   1   1.00
      0.0556577              1.0000000              1.0000000
D    1   1.00
      0.6500000              1.0000000
D    1   1.00
      0.1625000              1.0000000
F    1   1.00
      0.2500000              1.0000000
****
Si     0
S    6   1.00
  16115.9000000              0.00195948
   2425.5800000              0.01492880
    553.8670000              0.07284780
    156.3400000              0.24613000
     50.0683000              0.48591400
     17.0178000              0.32500200
SP   6   1.00
    292.7180000             -0.00278094             0.00443826
     69.8731000             -0.03571460             0.03266790
     22.3363000             -0.11498500             0.13472100
      8.1503900              0.09356340             0.32867800
      3.1345800              0.60301700             0.44964000
      1.2254300              0.41895900             0.26137200
SP   3   1.00
      1.7273800             -0.24463000            -0.01779510
      0.5729220              0.00431572             0.25353900
      0.2221920              1.09818000             0.80066900
SP   1   1.00
      0.0778369              1.00000000             1.00000000
D    1   1.00
      0.9000000              1.0000000
D    1   1.00
      0.2250000              1.0000000
F    1   1.00
      0.3200000              1.0000000
****
P     0
S    6   1.00
  19413.3000000              0.0018516
   2909.4200000              0.0142062
    661.3640000              0.0699995
    185.7590000              0.2400790
     59.1943000              0.4847620
     20.0310000              0.3352000
SP   6   1.00
    339.4780000             -0.00278217             0.00456462
     81.0101000             -0.0360499              0.03369360
     25.8780000             -0.1166310              0.13975500
      9.4522100              0.0968328              0.33936200
      3.6656600              0.6144180              0.45092100
      1.4674600              0.4037980              0.23858600
SP   3   1.00
      2.1562300             -0.2529230             -0.01776530
      0.7489970              0.0328517              0.27405800
      0.2831450              1.0812500              0.78542100
SP   1   1.00
      0.0998317              1.0000000              1.00000000
D    1   1.00
      1.1000000              1.0000000
D    1   1.00
      0.2750000              1.0000000
F    1   1.00
      0.4500000              1.0000000
****
S     0
S    6   1.00
  21917.1000000              0.0018690
   3301.4900000              0.0142300
    754.1460000              0.0696960
    212.7110000              0.2384870
     67.9896000              0.4833070
     23.0515000              0.3380740
SP   6   1.00
    423.7350000             -0.0023767              0.0040610
    100.7100000             -0.0316930              0.0306810
     32.1599000             -0.1133170              0.1304520
     11.8079000              0.0560900              0.3272050
      4.6311000              0.5922550              0.4528510
      1.8702500              0.4550060              0.2560420
SP   3   1.00
      2.6158400             -0.2503740             -0.0145110
      0.9221670              0.0669570              0.3102630
      0.3412870              1.0545100              0.7544830
SP   1   1.00
      0.1171670              1.0000000              1.0000000
D    1   1.00
      1.3000000              1.0000000
D    1   1.00
      0.3250000              1.0000000
F    1   1.00
      0.5500000              1.0000000
****
Cl     0
S    6   1.00
  25180.1000000              0.0018330
   3780.3500000              0.0140340
    860.4740000              0.0690970
    242.1450000              0.2374520
     77.3349000              0.4830340
     26.2470000              0.3398560
SP   6   1.00
    491.7650000             -0.0022974              0.0039894
    116.9840000             -0.0307140              0.0303180
     37.4153000             -0.1125280              0.1298800
     13.7834000              0.0450160              0.3279510
      5.4521500              0.5893530              0.4535270
      2.2258800              0.4652060              0.2521540
SP   3   1.00
      3.1864900             -0.2518300             -0.0142990
      1.1442700              0.0615890              0.3235720
      0.4203770              1.0601800              0.7435070
SP   1   1.00
      0.1426570              1.0000000              1.0000000
D    1   1.00
      1.5000000              1.0000000
D    1   1.00
      0.3750000              1.0000000
F    1   1.00
      0.7000000              1.0000000
****
}

set {
reference uhf
freeze_core true
e_convergence 10
d_convergence 10
dft_spherical_points 1202
dft_radial_points 99
}

e = energy('b3lyp')

print_out('Grab this energy {0}'.format(e))
--------------------------------------------------------------------------

    Molecular point group: c1

    Geometry (in Bohr), charge = 0, multiplicity = 2:

       Center              X                  Y                   Z               Mass
    ------------   -----------------  -----------------  -----------------  -----------------
         C           -0.323436734903    -0.000001838415    -0.000262544928    12.000000000000
         C            0.060022074297    -1.401573540515    -2.427735471328    12.000000000000
         C            0.061095572997     2.803398764385    -0.000149086428    12.000000000000
         C            0.062407264497    -1.401821838115     2.427867351372    12.000000000000
         H            2.090450464797    -1.643555808415    -2.846447259928     1.007825032230
         H           -0.766686171003    -0.390272041915    -4.023288475428     1.007825032230
         H           -0.768047834903    -3.289771000415    -2.349800998828     1.007825032230
         H            2.086742287097     3.287606070385     0.000052682272     1.007825032230
         H           -0.767071587503     3.680236238885     1.677140063172     1.007825032230
         H           -0.764674040103     3.679308940285    -1.676066268028     1.007825032230
         H            2.083310669097    -1.644139982515     2.847565804772     1.007825032230
         H           -0.763541458103    -3.293923909415     2.347234189472     1.007825032230
         H           -0.764576221003    -0.385506930815     4.026941213472     1.007825032230

  Charge       = 0
  Multiplicity = 2
  Basis Set: ANONYMOUSA94E8CA9
    Blend: 6-31G_2DFP_
  Basis Set: (ANONYMOUSA94E8CA9 AUX)
    Blend: DEF2-UNIVERSAL-JKFIT

    Orbital Energies [Eh]
    ---------------------

    Alpha Occupied:

       1A    -10.180394     2A    -10.166993     3A    -10.166969
       4A    -10.166925     5A     -0.797509     6A     -0.686179
       7A     -0.686178     8A     -0.530611     9A     -0.441116
      10A     -0.434625    11A     -0.434581    12A     -0.382759
      13A     -0.382712    14A     -0.363812    15A     -0.337871
      16A     -0.337807    17A     -0.168940

    Alpha Virtual:

      18A      0.076079    19A      0.134046    20A      0.134379
      21A      0.142698    22A      0.142821    23A      0.154775
      24A      0.178859    25A      0.179030    26A      0.203256
      27A      0.214927    28A      0.275668    29A      0.275820
      30A      0.399201    31A      0.399268    32A      0.403434
      33A      0.424067    34A      0.424235    35A      0.456412
      36A      0.495253    37A      0.495542    38A      0.512216
      39A      0.514039    40A      0.578684    41A      0.579028
      42A      0.591580    43A      0.591881    44A      0.602624
      45A      0.624882    46A      0.631985    47A      0.636097
      48A      0.636306    49A      0.662929    50A      0.663678
      51A      0.683694    52A      0.684043    53A      0.735126
      54A      0.825364    55A      0.825402    56A      0.853785
      57A      0.914853    58A      0.915281    59A      0.944079
      60A      0.944298    61A      0.961232    62A      0.961491
      63A      1.003621    64A      1.127984    65A      1.128083
      66A      1.141796    67A      1.163759    68A      1.164003
      69A      1.222906    70A      1.274202    71A      1.274505
      72A      1.279207    73A      1.324114    74A      1.324199
      75A      1.355625    76A      1.365881    77A      1.365940
      78A      1.392941    79A      1.404325    80A      1.405241
      81A      1.416587    82A      1.417660    83A      1.428167
      84A      1.490967    85A      1.499658    86A      1.542215
      87A      1.543136    88A      1.574188    89A      1.574500
      90A      1.670607    91A      1.738740    92A      1.739038
      93A      1.768377    94A      1.831036    95A      1.832640
      96A      1.971121    97A      2.017728    98A      2.018408
      99A      2.018976   100A      2.051294   101A      2.053170
     102A      2.737901   103A      2.738722   104A      2.790699
     105A      2.811338   106A      2.889818   107A      2.889849
     108A      2.894562   109A      2.929640   110A      2.929662
     111A      2.959048   112A      2.964078   113A      2.964730
     114A      3.033844   115A      3.071305   116A      3.071354
     117A      3.083963   118A      3.168456   119A      3.168899
     120A      3.180006   121A      3.285321   122A      3.285970
     123A      3.326706   124A      3.327119   125A      3.375714
     126A      3.489903   127A      3.490232   128A      3.513861
     129A      3.524975   130A      3.568037   131A      3.568261
     132A      3.575291   133A      3.666453   134A      3.667861
     135A      3.680224   136A      3.694116   137A      3.694391
     138A      3.776729   139A      3.776765   140A      3.789417
     141A      3.911021   142A      3.911231   143A      4.033887
     144A      4.111183   145A      4.112081   146A      4.147533
     147A      4.148682   148A      4.172553   149A      4.201111
     150A      4.202077   151A      4.203364   152A      4.210560
     153A      4.315252   154A      4.316938   155A      4.359613
     156A      4.425336   157A      4.425970   158A      4.445390
     159A      4.515822   160A      4.517210   161A      4.577424
     162A      4.577663   163A      4.617169   164A      4.708170
     165A      4.773329   166A      4.774245   167A      4.835563
     168A      4.964184   169A      5.003089   170A      5.004575
     171A      5.228534   172A      5.245013   173A      5.249158
     174A      5.354158   175A      5.356594   176A      5.478162

    Beta Occupied:

       1A    -10.167748     2A    -10.167722     3A    -10.167692
       4A    -10.166560     5A     -0.780849     6A     -0.683991
       7A     -0.683983     8A     -0.511536     9A     -0.431011
      10A     -0.430980    11A     -0.421852    12A     -0.376882
      13A     -0.376791    14A     -0.362800    15A     -0.332972
      16A     -0.332922

    Beta Virtual:

      17A     -0.025573    18A      0.077085    19A      0.134939
      20A      0.135251    21A      0.144592    22A      0.144664
      23A      0.163190    24A      0.182497    25A      0.182705
      26A      0.215154    27A      0.218688    28A      0.282032
      29A      0.282190    30A      0.400365    31A      0.400430
      32A      0.419874    33A      0.426877    34A      0.427045
      35A      0.468243    36A      0.497499    37A      0.497804
      38A      0.513942    39A      0.556414    40A      0.584251
      41A      0.584565    42A      0.597747    43A      0.598094
      44A      0.610051    45A      0.628221    46A      0.632147
      47A      0.639360    48A      0.639569    49A      0.666523
      50A      0.667209    51A      0.686336    52A      0.686649
      53A      0.757726    54A      0.830514    55A      0.830557
      56A      0.855127    57A      0.922841    58A      0.923241
      59A      0.945909    60A      0.953214    61A      0.966500
      62A      0.966816    63A      1.008871    64A      1.132056
      65A      1.132079    66A      1.155135    67A      1.168809
      68A      1.169123    69A      1.231936    70A      1.279754
      71A      1.280080    72A      1.284987    73A      1.329084
      74A      1.329164    75A      1.365026    76A      1.371198
      77A      1.371233    78A      1.393989    79A      1.407719
      80A      1.408717    81A      1.421621    82A      1.422726
      83A      1.428448    84A      1.492003    85A      1.510079
      86A      1.546615    87A      1.547506    88A      1.582094
      89A      1.582376    90A      1.675460    91A      1.744507
      92A      1.744805    93A      1.779110    94A      1.834859
      95A      1.836479    96A      1.971974    97A      2.024147
      98A      2.025125    99A      2.039884   100A      2.058095
     101A      2.059883   102A      2.746277   103A      2.747080
     104A      2.811751   105A      2.815868   106A      2.902515
     107A      2.902633   108A      2.924207   109A      2.932060
     110A      2.932143   111A      2.960112   112A      2.968581
     113A      2.969259   114A      3.041735   115A      3.081066
     116A      3.081302   117A      3.085796   118A      3.184185
     119A      3.184842   120A      3.187729   121A      3.290061
     122A      3.290729   123A      3.330493   124A      3.330953
     125A      3.383499   126A      3.492664   127A      3.492916
     128A      3.512229   129A      3.528057   130A      3.575127
     131A      3.581409   132A      3.581723   133A      3.671335
     134A      3.672869   135A      3.693521   136A      3.725599
     137A      3.725917   138A      3.781165   139A      3.781261
     140A      3.818012   141A      3.920853   142A      3.921107
     143A      4.044852   144A      4.117925   145A      4.118778
     146A      4.154851   147A      4.155890   148A      4.186551
     149A      4.207394   150A      4.208848   151A      4.210129
     152A      4.215014   153A      4.322780   154A      4.324471
     155A      4.362954   156A      4.433485   157A      4.434124
     158A      4.448268   159A      4.523546   160A      4.524940
     161A      4.587994   162A      4.588258   163A      4.624342
     164A      4.718513   165A      4.780284   166A      4.781201
     167A      4.838482   168A      4.968958   169A      5.007125
     170A      5.008573   171A      5.234231   172A      5.246800
     173A      5.250921   174A      5.360600   175A      5.363056
     176A      5.480476

    Final Occupation by Irrep:
              A
    DOCC [    16 ]
    SOCC [     1 ]

  @DF-UKS Final Energy:  -157.81303849744924

   => Energetics <=

    Nuclear Repulsion Energy =            125.3666801943946751
    One-Electron Energy =                -458.6938995926743701
    Two-Electron Energy =                 195.8214426477625523
    DFT Exchange-Correlation Energy =     -20.3072617469321166
    Empirical Dispersion Energy =           0.0000000000000000
    VV10 Nonlocal Energy =                  0.0000000000000000
    Total Energy =                       -157.8130384974492415

  UHF NO Occupations:
  HONO-2 :   15  A 1.9996025
  HONO-1 :   16  A 1.9989782
  HONO-0 :   17  A 1.0000000
  LUNO+0 :   18  A 0.0010218
  LUNO+1 :   19  A 0.0003975
  LUNO+2 :   20  A 0.0001983
  LUNO+3 :   21  A 0.0001983

Computation Completed

Properties will be evaluated at   0.000000,   0.000000,   0.000000 [a0]

Properties computed using the SCF density matrix

  Nuclear Dipole Moment: [e a0]
     X:     0.8264      Y:    -0.0000      Z:     0.0017

  Electronic Dipole Moment: [e a0]
     X:    -0.7484      Y:     0.0000      Z:    -0.0023

  Dipole Moment: [e a0]
     X:     0.0780      Y:     0.0000      Z:    -0.0006     Total:     0.0780

  Dipole Moment: [D]
     X:     0.1984      Y:     0.0000      Z:    -0.0016     Total:     0.1984

*** tstop() called on n059 at Fri Nov  5 13:21:04 2021
Module time:
	user time   =     649.05 seconds =      10.82 minutes
	system time =      15.14 seconds =       0.25 minutes
	total time  =        167 seconds =       2.78 minutes
Total time:
	user time   =     649.05 seconds =      10.82 minutes
	system time =      15.14 seconds =       0.25 minutes
	total time  =        167 seconds =       2.78 minutes
Grab this energy -157.81303849744924
    Psi4 stopped on: Friday, 05 November 2021 01:21PM
    Psi4 wall time for execution: 0:02:46.98

*** Psi4 exiting successfully. Buy a developer a beer!
