                               Psi4 1.4a2.dev629

  ==> Input File <==

--------------------------------------------------------------------------
import os
memory 14 GB

molecule {
 C   -0.3215382714   -0.0000018909    0.0000000000
 C    0.0617915312   -1.4010780725   -2.4267281005
 C    0.0616716623    2.8021604091    0.0000000000
 C    0.0617915312   -1.4010780725    2.4267281005
 H    2.0834499881   -1.6472884256   -2.8529677372
 H   -0.7642876570   -0.3884408181   -4.0214020880
 H   -0.7644511394   -3.2883564212   -2.3471371043
 H    2.0833109278    3.2944844980   -0.0000000000
 H   -0.7645288205    3.6768300726    1.6742706170
 H   -0.7645288205    3.6768300726   -1.6742706170
 H    2.0834499881   -1.6472884256    2.8529677372
 H   -0.7644511394   -3.2883564212    2.3471371043
 H   -0.7642876570   -0.3884408181    4.0214020880
units bohr
0 2
}

basis {

assign 6-31g_2dfp_

[ 6-31g_2dfp_ ]

spherical

!----------------------------------------------------------------------
! Basis Set Exchange
! Version v0.8.13
! https://www.basissetexchange.org
!----------------------------------------------------------------------
!   Basis set: 6-31G(2df,p)
! Description: 6-31G(2df,p)
!        Role: orbital
!     Version: 0  (Data from the original Basis Set Exchange)
!----------------------------------------------------------------------

****
H     0
S    3   1.00
     18.7311370              0.03349460
      2.8253937              0.23472695
      0.6401217              0.81375733
S    1   1.00
      0.1612778              1.00000000
P    1   1.00
      1.5000000              1.0000000
P    1   1.00
      0.3750000              1.0000000
****
B     0
S    6   1.00
   2068.8823000              0.0018663
    310.6495700              0.0142515
     70.6830330              0.0695516
     19.8610800              0.2325729
      6.2993048              0.4670787
      2.1270270              0.3634314
SP   3   1.00
      4.7279710             -0.1303938              0.0745976
      1.1903377             -0.1307889              0.3078467
      0.3594117              1.1309444              0.7434568
SP   1   1.00
      0.1267512              1.0000000              1.0000000
D    1   1.00
      0.8020000              1.0000000
D    1   1.00
      0.2005000              1.0000000
F    1   1.00
      0.5000000              1.0000000
****
C     0
S    6   1.00
   3047.5249000              0.0018347
    457.3695100              0.0140373
    103.9486900              0.0688426
     29.2101550              0.2321844
      9.2866630              0.4679413
      3.1639270              0.3623120
SP   3   1.00
      7.8682724             -0.1193324              0.0689991
      1.8812885             -0.1608542              0.3164240
      0.5442493              1.1434564              0.7443083
SP   1   1.00
      0.1687144              1.0000000              1.0000000
D    1   1.00
      1.2520000              1.0000000
D    1   1.00
      0.3130000              1.0000000
F    1   1.00
      0.8000000              1.0000000
****
N     0
S    6   1.00
   4173.5110000              0.0018348
    627.4579000              0.0139950
    142.9021000              0.0685870
     40.2343300              0.2322410
     12.8202100              0.4690700
      4.3904370              0.3604550
SP   3   1.00
     11.6263580             -0.1149610              0.0675800
      2.7162800             -0.1691180              0.3239070
      0.7722180              1.1458520              0.7408950
SP   1   1.00
      0.2120313              1.0000000              1.0000000
D    1   1.00
      1.8260000              1.0000000
D    1   1.00
      0.4565000              1.0000000
F    1   1.00
      1.0000000              1.0000000
****
O     0
S    6   1.00
   5484.6717000              0.0018311
    825.2349500              0.0139501
    188.0469600              0.0684451
     52.9645000              0.2327143
     16.8975700              0.4701930
      5.7996353              0.3585209
SP   3   1.00
     15.5396160             -0.1107775              0.0708743
      3.5999336             -0.1480263              0.3397528
      1.0137618              1.1307670              0.7271586
SP   1   1.00
      0.2700058              1.0000000              1.0000000
D    1   1.00
      2.5840000              1.0000000
D    1   1.00
      0.6460000              1.0000000
F    1   1.00
      1.4000000              1.0000000
****
F     0
S    6   1.00
   7001.7130900              0.0018196169
   1051.3660900              0.0139160796
    239.2856900              0.0684053245
     67.3974453              0.233185760
     21.5199573              0.471267439
      7.40310130             0.356618546
SP   3   1.00
     20.8479528             -0.108506975            0.0716287243
      4.80830834            -0.146451658            0.3459121030
      1.34406986             1.128688580            0.7224699570
SP   1   1.00
      0.358151393            1.0000000              1.0000000
D    1   1.00
      3.5000000              1.0000000
D    1   1.00
      0.8750000              1.0000000
F    1   1.00
      1.8500000              1.0000000
****
Al     0
S    6   1.00
  13983.1000000              0.00194267
   2098.7500000              0.0148599
    477.7050000              0.0728494
    134.3600000              0.2468300
     42.8709000              0.4872580
     14.5189000              0.3234960
SP   6   1.00
    239.6680000             -0.00292619             0.00460285
     57.4419000             -0.0374080              0.0331990
     18.2859000             -0.1144870              0.1362820
      6.5991400              0.1156350              0.3304760
      2.4904900              0.6125950              0.4491460
      0.9445400              0.3937990              0.2657040
SP   3   1.00
      1.2779000             -0.2276060             -0.0175130
      0.3975900              0.00144583             0.2445330
      0.1600950              1.0927900              0.8049340
SP   1   1.00
      0.0556577              1.0000000              1.0000000
D    1   1.00
      0.6500000              1.0000000
D    1   1.00
      0.1625000              1.0000000
F    1   1.00
      0.2500000              1.0000000
****
Si     0
S    6   1.00
  16115.9000000              0.00195948
   2425.5800000              0.01492880
    553.8670000              0.07284780
    156.3400000              0.24613000
     50.0683000              0.48591400
     17.0178000              0.32500200
SP   6   1.00
    292.7180000             -0.00278094             0.00443826
     69.8731000             -0.03571460             0.03266790
     22.3363000             -0.11498500             0.13472100
      8.1503900              0.09356340             0.32867800
      3.1345800              0.60301700             0.44964000
      1.2254300              0.41895900             0.26137200
SP   3   1.00
      1.7273800             -0.24463000            -0.01779510
      0.5729220              0.00431572             0.25353900
      0.2221920              1.09818000             0.80066900
SP   1   1.00
      0.0778369              1.00000000             1.00000000
D    1   1.00
      0.9000000              1.0000000
D    1   1.00
      0.2250000              1.0000000
F    1   1.00
      0.3200000              1.0000000
****
P     0
S    6   1.00
  19413.3000000              0.0018516
   2909.4200000              0.0142062
    661.3640000              0.0699995
    185.7590000              0.2400790
     59.1943000              0.4847620
     20.0310000              0.3352000
SP   6   1.00
    339.4780000             -0.00278217             0.00456462
     81.0101000             -0.0360499              0.03369360
     25.8780000             -0.1166310              0.13975500
      9.4522100              0.0968328              0.33936200
      3.6656600              0.6144180              0.45092100
      1.4674600              0.4037980              0.23858600
SP   3   1.00
      2.1562300             -0.2529230             -0.01776530
      0.7489970              0.0328517              0.27405800
      0.2831450              1.0812500              0.78542100
SP   1   1.00
      0.0998317              1.0000000              1.00000000
D    1   1.00
      1.1000000              1.0000000
D    1   1.00
      0.2750000              1.0000000
F    1   1.00
      0.4500000              1.0000000
****
S     0
S    6   1.00
  21917.1000000              0.0018690
   3301.4900000              0.0142300
    754.1460000              0.0696960
    212.7110000              0.2384870
     67.9896000              0.4833070
     23.0515000              0.3380740
SP   6   1.00
    423.7350000             -0.0023767              0.0040610
    100.7100000             -0.0316930              0.0306810
     32.1599000             -0.1133170              0.1304520
     11.8079000              0.0560900              0.3272050
      4.6311000              0.5922550              0.4528510
      1.8702500              0.4550060              0.2560420
SP   3   1.00
      2.6158400             -0.2503740             -0.0145110
      0.9221670              0.0669570              0.3102630
      0.3412870              1.0545100              0.7544830
SP   1   1.00
      0.1171670              1.0000000              1.0000000
D    1   1.00
      1.3000000              1.0000000
D    1   1.00
      0.3250000              1.0000000
F    1   1.00
      0.5500000              1.0000000
****
Cl     0
S    6   1.00
  25180.1000000              0.0018330
   3780.3500000              0.0140340
    860.4740000              0.0690970
    242.1450000              0.2374520
     77.3349000              0.4830340
     26.2470000              0.3398560
SP   6   1.00
    491.7650000             -0.0022974              0.0039894
    116.9840000             -0.0307140              0.0303180
     37.4153000             -0.1125280              0.1298800
     13.7834000              0.0450160              0.3279510
      5.4521500              0.5893530              0.4535270
      2.2258800              0.4652060              0.2521540
SP   3   1.00
      3.1864900             -0.2518300             -0.0142990
      1.1442700              0.0615890              0.3235720
      0.4203770              1.0601800              0.7435070
SP   1   1.00
      0.1426570              1.0000000              1.0000000
D    1   1.00
      1.5000000              1.0000000
D    1   1.00
      0.3750000              1.0000000
F    1   1.00
      0.7000000              1.0000000
****
}

set {
reference uhf
freeze_core true
e_convergence 10
d_convergence 10
dft_spherical_points 1202
dft_radial_points 99
}

e = energy('b3lyp')

print_out('Grab this energy {0}'.format(e))
--------------------------------------------------------------------------

    Molecular point group: cs

    Geometry (in Bohr), charge = 0, multiplicity = 2:

       Center              X                  Y                   Z               Mass
    ------------   -----------------  -----------------  -----------------  -----------------
         C           -0.322261788446    -0.000001918637     0.000000000000    12.000000000000
         C            0.061068014154    -1.401078100237    -2.426728100500    12.000000000000
         C            0.060948145254     2.802160381363     0.000000000000    12.000000000000
         C            0.061068014154    -1.401078100237     2.426728100500    12.000000000000
         H            2.082726471054    -1.647288453337    -2.852967737200     1.007825032230
         H           -0.765011174046    -0.388440845837    -4.021402088000     1.007825032230
         H           -0.765174656446    -3.288356448937    -2.347137104300     1.007825032230
         H            2.082587410754     3.294484470263     0.000000000000     1.007825032230
         H           -0.765252337546     3.676830044863     1.674270617000     1.007825032230
         H           -0.765252337546     3.676830044863    -1.674270617000     1.007825032230
         H            2.082726471054    -1.647288453337     2.852967737200     1.007825032230
         H           -0.765174656446    -3.288356448937     2.347137104300     1.007825032230
         H           -0.765011174046    -0.388440845837     4.021402088000     1.007825032230

  Charge       = 0
  Multiplicity = 2
  Basis Set: ANONYMOUS6100AB42
    Blend: 6-31G_2DFP_
  Basis Set: (ANONYMOUS6100AB42 AUX)
    Blend: DEF2-UNIVERSAL-JKFIT

    Orbital Energies [Eh]
    ---------------------

    Alpha Occupied:

       1Ap   -10.180262     2Ap   -10.166448     1App  -10.166448
       3Ap   -10.166402     4Ap    -0.797792     5Ap    -0.686585
       2App   -0.686584     6Ap    -0.531099     7Ap    -0.441054
       3App   -0.435022     8Ap    -0.435022     9Ap    -0.382706
       4App   -0.382705     5App   -0.364066     6App   -0.338026
      10Ap    -0.338026    11Ap    -0.168989

    Alpha Virtual:

      12Ap     0.076440    13Ap     0.134471     7App    0.134472
      14Ap     0.143106     8App    0.143107    15Ap     0.155382
      16Ap     0.179249     9App    0.179249    17Ap     0.203569
      10App    0.215479    11App    0.276047    18Ap     0.276048
      19Ap     0.399398    12App    0.399402    20Ap     0.403476
      13App    0.424218    21Ap     0.424219    22Ap     0.456961
      23Ap     0.495589    14App    0.495590    15App    0.512243
      24Ap     0.514169    25Ap     0.579298    16App    0.579306
      17App    0.592050    26Ap     0.592052    27Ap     0.602992
      28Ap     0.625806    18App    0.632733    19App    0.636900
      29Ap     0.636904    30Ap     0.664025    20App    0.664025
      31Ap     0.684322    21App    0.684323    32Ap     0.735386
      22App    0.826122    33Ap     0.826125    23App    0.854776
      24App    0.915885    34Ap     0.915891    35Ap     0.944607
      25App    0.944974    26App    0.961656    36Ap     0.961673
      37Ap     1.004276    38Ap     1.128978    27App    1.128991
      39Ap     1.142493    40Ap     1.164067    28App    1.164080
      41Ap     1.223697    42Ap     1.275002    29App    1.275005
      43Ap     1.279125    30App    1.325331    44Ap     1.325334
      45Ap     1.356434    31App    1.366877    46Ap     1.366882
      32App    1.392840    47Ap     1.404790    33App    1.404792
      34App    1.417892    48Ap     1.417898    35App    1.429276
      36App    1.492990    49Ap     1.500112    37App    1.543377
      50Ap     1.543378    51Ap     1.574037    38App    1.574039
      52Ap     1.672055    53Ap     1.740713    39App    1.740724
      54Ap     1.769705    40App    1.834170    55Ap     1.834171
      41App    1.973458    56Ap     2.019171    57Ap     2.021094
      42App    2.021098    58Ap     2.054188    43App    2.054188
      44App    2.739050    59Ap     2.739051    60Ap     2.791361
      45App    2.812462    61Ap     2.890669    46App    2.890675
      62Ap     2.895268    63Ap     2.930336    47App    2.930344
      48App    2.959684    64Ap     2.965087    49App    2.965101
      65Ap     3.035384    50App    3.071750    66Ap     3.071764
      51App    3.084930    67Ap     3.168056    52App    3.168064
      68Ap     3.181052    53App    3.284876    69Ap     3.284876
      70Ap     3.327761    54App    3.327766    71Ap     3.374616
      55App    3.488659    72Ap     3.488679    56App    3.513954
      73Ap     3.524888    57App    3.569124    74Ap     3.569144
      58App    3.574339    75Ap     3.667035    59App    3.667043
      76Ap     3.682549    60App    3.694429    77Ap     3.694444
      78Ap     3.778493    61App    3.778519    79Ap     3.788358
      80Ap     3.913273    62App    3.913279    81Ap     4.035681
      82Ap     4.113935    63App    4.113940    83Ap     4.151239
      64App    4.151246    84Ap     4.176161    85Ap     4.203711
      65App    4.205304    86Ap     4.205307    66App    4.215057
      87Ap     4.318533    67App    4.318553    68App    4.362540
      88Ap     4.426521    69App    4.426523    70App    4.446458
      71App    4.520081    89Ap     4.520082    72App    4.580734
      90Ap     4.580747    91Ap     4.618656    92Ap     4.711826
      93Ap     4.776724    73App    4.776731    74App    4.838204
      94Ap     4.964203    75App    5.003942    95Ap     5.003954
      96Ap     5.233699    76App    5.252045    97Ap     5.252046
      98Ap     5.360665    77App    5.360678    78App    5.482851

    Beta Occupied:

       1Ap   -10.167198     1App  -10.167198     2Ap   -10.167185
       3Ap   -10.166423     4Ap    -0.781148     5Ap    -0.684384
       2App   -0.684383     6Ap    -0.512008     3App   -0.431393
       7Ap    -0.431393     8Ap    -0.421793     9Ap    -0.376790
       4App   -0.376788     5App   -0.363047     6App   -0.333144
      10Ap    -0.333144

    Beta Virtual:

      11Ap    -0.025676    12Ap     0.077441    13Ap     0.135384
       7App    0.135385    14Ap     0.144960     8App    0.144960
      15Ap     0.163829    16Ap     0.182904     9App    0.182905
      10App    0.215708    17Ap     0.218932    11App    0.282393
      18Ap     0.282395    19Ap     0.400567    12App    0.400572
      20Ap     0.419960    13App    0.427026    21Ap     0.427026
      22Ap     0.468929    23Ap     0.497863    14App    0.497864
      15App    0.513978    24Ap     0.556487    25Ap     0.584887
      16App    0.584895    17App    0.598223    26Ap     0.598224
      27Ap     0.610422    28Ap     0.629174    18App    0.632887
      19App    0.640157    29Ap     0.640161    30Ap     0.667617
      20App    0.667618    31Ap     0.686903    21App    0.686904
      32Ap     0.757899    22App    0.831304    33Ap     0.831307
      23App    0.856108    24App    0.923888    34Ap     0.923894
      25App    0.946809    35Ap     0.953640    26App    0.966927
      36Ap     0.966943    37Ap     1.009557    38Ap     1.132996
      27App    1.133008    39Ap     1.155647    40Ap     1.169161
      28App    1.169173    41Ap     1.232753    42Ap     1.280605
      29App    1.280609    43Ap     1.284935    30App    1.330387
      44Ap     1.330389    45Ap     1.365816    31App    1.372111
      46Ap     1.372116    32App    1.393906    47Ap     1.408267
      33App    1.408269    34App    1.422890    48Ap     1.422896
      35App    1.429536    36App    1.494032    49Ap     1.510534
      50Ap     1.547646    37App    1.547647    38App    1.582029
      51Ap     1.582030    52Ap     1.676981    53Ap     1.746482
      39App    1.746494    54Ap     1.780442    40App    1.837993
      55Ap     1.837994    41App    1.974321    56Ap     2.027511
      42App    2.027514    57Ap     2.040541    58Ap     2.060885
      43App    2.060886    44App    2.747409    59Ap     2.747410
      45App    2.812881    60Ap     2.816526    61Ap     2.903333
      46App    2.903339    62Ap     2.925006    63Ap     2.932779
      47App    2.932788    48App    2.960754    64Ap     2.969711
      49App    2.969725    65Ap     3.043231    50App    3.081709
      66Ap     3.081720    51App    3.086752    67Ap     3.183757
      52App    3.183761    68Ap     3.188800    69Ap     3.289598
      53App    3.289598    70Ap     3.331548    54App    3.331553
      71Ap     3.382432    55App    3.491501    72Ap     3.491522
      56App    3.512332    73Ap     3.527911    57App    3.574182
      58App    3.582423    74Ap     3.582445    75Ap     3.671965
      59App    3.671976    76Ap     3.695849    60App    3.726065
      77Ap     3.726081    78Ap     3.783067    61App    3.783093
      79Ap     3.816956    80Ap     3.923027    62App    3.923034
      81Ap     4.046746    82Ap     4.120920    63App    4.120922
      83Ap     4.158331    64App    4.158339    84Ap     4.190039
      65App    4.211203    85Ap     4.211207    86Ap     4.211655
      66App    4.219533    87Ap     4.325908    67App    4.325928
      68App    4.365914    88Ap     4.434715    69App    4.434717
      70App    4.449297    71App    4.527847    89Ap     4.527849
      72App    4.591325    90Ap     4.591337    91Ap     4.625766
      92Ap     4.722270    93Ap     4.783660    73App    4.783668
      74App    4.841129    94Ap     4.968967    75App    5.007977
      95Ap     5.007990    96Ap     5.239376    76App    5.253827
      97Ap     5.253828    98Ap     5.367120    77App    5.367133
      78App    5.485166

    Final Occupation by Irrep:
             Ap   App
    DOCC [    10,    6 ]
    SOCC [     1,    0 ]

  @DF-UKS Final Energy:  -157.81302741146848

   => Energetics <=

    Nuclear Repulsion Energy =            125.4436491414446664
    One-Electron Energy =                -458.8424786588011557
    Two-Electron Energy =                 195.8973182753992432
    DFT Exchange-Correlation Energy =     -20.3115161695112292
    Empirical Dispersion Energy =           0.0000000000000000
    VV10 Nonlocal Energy =                  0.0000000000000000
    Total Energy =                       -157.8130274114684823

  UHF NO Occupations:
  HONO-2 :    9 Ap 1.9996021
  HONO-1 :   10 Ap 1.9989818
  HONO-0 :   11 Ap 1.0000000
  LUNO+0 :   12 Ap 0.0010182
  LUNO+1 :   13 Ap 0.0003979
  LUNO+2 :    7App 0.0001976
  LUNO+3 :   14 Ap 0.0001976

Computation Completed

Properties will be evaluated at   0.000000,   0.000000,   0.000000 [a0]

Properties computed using the SCF density matrix

  Nuclear Dipole Moment: [e a0]
     X:     0.8221      Y:    -0.0000      Z:     0.0000

  Electronic Dipole Moment: [e a0]
     X:    -0.7440      Y:     0.0000      Z:     0.0000

  Dipole Moment: [e a0]
     X:     0.0781      Y:    -0.0000      Z:     0.0000     Total:     0.0781

  Dipole Moment: [D]
     X:     0.1986      Y:    -0.0000      Z:     0.0000     Total:     0.1986

*** tstop() called on n021 at Fri Nov  5 14:59:25 2021
Module time:
	user time   =     593.71 seconds =       9.90 minutes
	system time =      11.47 seconds =       0.19 minutes
	total time  =        152 seconds =       2.53 minutes
Total time:
	user time   =     593.71 seconds =       9.90 minutes
	system time =      11.47 seconds =       0.19 minutes
	total time  =        152 seconds =       2.53 minutes
Grab this energy -157.81302741146848
    Psi4 stopped on: Friday, 05 November 2021 02:59PM
    Psi4 wall time for execution: 0:02:32.24

*** Psi4 exiting successfully. Buy a developer a beer!
