                               Psi4 1.4a2.dev629

  ==> Input File <==

--------------------------------------------------------------------------
import os
memory 14 GB

molecule {
 C   -0.3265001118   -0.0050056494   -0.0000000000
 C    0.0595120363   -1.3982733847   -2.4326455073
 C    0.0603037302    2.7940202863    0.0000000000
 C    0.0595120363   -1.3982733847    2.4326455073
 H    2.0868769309   -1.6381492256   -2.8564472676
 H   -0.7673107681   -0.3792945574   -4.0273190751
 H   -0.7626811028   -3.2904815440   -2.3617166061
 H    2.0879148582    3.2792014438    0.0000000000
 H   -0.7635602730    3.6720785146    1.6767056647
 H   -0.7635602730    3.6720785146   -1.6767056647
 H    2.0868769309   -1.6381492256    2.8564472676
 H   -0.7626811028   -3.2904815440    2.3617166061
 H   -0.7673107681   -0.3792945574    4.0273190751
units bohr
0 2
}

basis {

assign 6-31g_2dfp_

[ 6-31g_2dfp_ ]

spherical

!----------------------------------------------------------------------
! Basis Set Exchange
! Version v0.8.13
! https://www.basissetexchange.org
!----------------------------------------------------------------------
!   Basis set: 6-31G(2df,p)
! Description: 6-31G(2df,p)
!        Role: orbital
!     Version: 0  (Data from the original Basis Set Exchange)
!----------------------------------------------------------------------

****
H     0
S    3   1.00
     18.7311370              0.03349460
      2.8253937              0.23472695
      0.6401217              0.81375733
S    1   1.00
      0.1612778              1.00000000
P    1   1.00
      1.5000000              1.0000000
P    1   1.00
      0.3750000              1.0000000
****
B     0
S    6   1.00
   2068.8823000              0.0018663
    310.6495700              0.0142515
     70.6830330              0.0695516
     19.8610800              0.2325729
      6.2993048              0.4670787
      2.1270270              0.3634314
SP   3   1.00
      4.7279710             -0.1303938              0.0745976
      1.1903377             -0.1307889              0.3078467
      0.3594117              1.1309444              0.7434568
SP   1   1.00
      0.1267512              1.0000000              1.0000000
D    1   1.00
      0.8020000              1.0000000
D    1   1.00
      0.2005000              1.0000000
F    1   1.00
      0.5000000              1.0000000
****
C     0
S    6   1.00
   3047.5249000              0.0018347
    457.3695100              0.0140373
    103.9486900              0.0688426
     29.2101550              0.2321844
      9.2866630              0.4679413
      3.1639270              0.3623120
SP   3   1.00
      7.8682724             -0.1193324              0.0689991
      1.8812885             -0.1608542              0.3164240
      0.5442493              1.1434564              0.7443083
SP   1   1.00
      0.1687144              1.0000000              1.0000000
D    1   1.00
      1.2520000              1.0000000
D    1   1.00
      0.3130000              1.0000000
F    1   1.00
      0.8000000              1.0000000
****
N     0
S    6   1.00
   4173.5110000              0.0018348
    627.4579000              0.0139950
    142.9021000              0.0685870
     40.2343300              0.2322410
     12.8202100              0.4690700
      4.3904370              0.3604550
SP   3   1.00
     11.6263580             -0.1149610              0.0675800
      2.7162800             -0.1691180              0.3239070
      0.7722180              1.1458520              0.7408950
SP   1   1.00
      0.2120313              1.0000000              1.0000000
D    1   1.00
      1.8260000              1.0000000
D    1   1.00
      0.4565000              1.0000000
F    1   1.00
      1.0000000              1.0000000
****
O     0
S    6   1.00
   5484.6717000              0.0018311
    825.2349500              0.0139501
    188.0469600              0.0684451
     52.9645000              0.2327143
     16.8975700              0.4701930
      5.7996353              0.3585209
SP   3   1.00
     15.5396160             -0.1107775              0.0708743
      3.5999336             -0.1480263              0.3397528
      1.0137618              1.1307670              0.7271586
SP   1   1.00
      0.2700058              1.0000000              1.0000000
D    1   1.00
      2.5840000              1.0000000
D    1   1.00
      0.6460000              1.0000000
F    1   1.00
      1.4000000              1.0000000
****
F     0
S    6   1.00
   7001.7130900              0.0018196169
   1051.3660900              0.0139160796
    239.2856900              0.0684053245
     67.3974453              0.233185760
     21.5199573              0.471267439
      7.40310130             0.356618546
SP   3   1.00
     20.8479528             -0.108506975            0.0716287243
      4.80830834            -0.146451658            0.3459121030
      1.34406986             1.128688580            0.7224699570
SP   1   1.00
      0.358151393            1.0000000              1.0000000
D    1   1.00
      3.5000000              1.0000000
D    1   1.00
      0.8750000              1.0000000
F    1   1.00
      1.8500000              1.0000000
****
Al     0
S    6   1.00
  13983.1000000              0.00194267
   2098.7500000              0.0148599
    477.7050000              0.0728494
    134.3600000              0.2468300
     42.8709000              0.4872580
     14.5189000              0.3234960
SP   6   1.00
    239.6680000             -0.00292619             0.00460285
     57.4419000             -0.0374080              0.0331990
     18.2859000             -0.1144870              0.1362820
      6.5991400              0.1156350              0.3304760
      2.4904900              0.6125950              0.4491460
      0.9445400              0.3937990              0.2657040
SP   3   1.00
      1.2779000             -0.2276060             -0.0175130
      0.3975900              0.00144583             0.2445330
      0.1600950              1.0927900              0.8049340
SP   1   1.00
      0.0556577              1.0000000              1.0000000
D    1   1.00
      0.6500000              1.0000000
D    1   1.00
      0.1625000              1.0000000
F    1   1.00
      0.2500000              1.0000000
****
Si     0
S    6   1.00
  16115.9000000              0.00195948
   2425.5800000              0.01492880
    553.8670000              0.07284780
    156.3400000              0.24613000
     50.0683000              0.48591400
     17.0178000              0.32500200
SP   6   1.00
    292.7180000             -0.00278094             0.00443826
     69.8731000             -0.03571460             0.03266790
     22.3363000             -0.11498500             0.13472100
      8.1503900              0.09356340             0.32867800
      3.1345800              0.60301700             0.44964000
      1.2254300              0.41895900             0.26137200
SP   3   1.00
      1.7273800             -0.24463000            -0.01779510
      0.5729220              0.00431572             0.25353900
      0.2221920              1.09818000             0.80066900
SP   1   1.00
      0.0778369              1.00000000             1.00000000
D    1   1.00
      0.9000000              1.0000000
D    1   1.00
      0.2250000              1.0000000
F    1   1.00
      0.3200000              1.0000000
****
P     0
S    6   1.00
  19413.3000000              0.0018516
   2909.4200000              0.0142062
    661.3640000              0.0699995
    185.7590000              0.2400790
     59.1943000              0.4847620
     20.0310000              0.3352000
SP   6   1.00
    339.4780000             -0.00278217             0.00456462
     81.0101000             -0.0360499              0.03369360
     25.8780000             -0.1166310              0.13975500
      9.4522100              0.0968328              0.33936200
      3.6656600              0.6144180              0.45092100
      1.4674600              0.4037980              0.23858600
SP   3   1.00
      2.1562300             -0.2529230             -0.01776530
      0.7489970              0.0328517              0.27405800
      0.2831450              1.0812500              0.78542100
SP   1   1.00
      0.0998317              1.0000000              1.00000000
D    1   1.00
      1.1000000              1.0000000
D    1   1.00
      0.2750000              1.0000000
F    1   1.00
      0.4500000              1.0000000
****
S     0
S    6   1.00
  21917.1000000              0.0018690
   3301.4900000              0.0142300
    754.1460000              0.0696960
    212.7110000              0.2384870
     67.9896000              0.4833070
     23.0515000              0.3380740
SP   6   1.00
    423.7350000             -0.0023767              0.0040610
    100.7100000             -0.0316930              0.0306810
     32.1599000             -0.1133170              0.1304520
     11.8079000              0.0560900              0.3272050
      4.6311000              0.5922550              0.4528510
      1.8702500              0.4550060              0.2560420
SP   3   1.00
      2.6158400             -0.2503740             -0.0145110
      0.9221670              0.0669570              0.3102630
      0.3412870              1.0545100              0.7544830
SP   1   1.00
      0.1171670              1.0000000              1.0000000
D    1   1.00
      1.3000000              1.0000000
D    1   1.00
      0.3250000              1.0000000
F    1   1.00
      0.5500000              1.0000000
****
Cl     0
S    6   1.00
  25180.1000000              0.0018330
   3780.3500000              0.0140340
    860.4740000              0.0690970
    242.1450000              0.2374520
     77.3349000              0.4830340
     26.2470000              0.3398560
SP   6   1.00
    491.7650000             -0.0022974              0.0039894
    116.9840000             -0.0307140              0.0303180
     37.4153000             -0.1125280              0.1298800
     13.7834000              0.0450160              0.3279510
      5.4521500              0.5893530              0.4535270
      2.2258800              0.4652060              0.2521540
SP   3   1.00
      3.1864900             -0.2518300             -0.0142990
      1.1442700              0.0615890              0.3235720
      0.4203770              1.0601800              0.7435070
SP   1   1.00
      0.1426570              1.0000000              1.0000000
D    1   1.00
      1.5000000              1.0000000
D    1   1.00
      0.3750000              1.0000000
F    1   1.00
      0.7000000              1.0000000
****
}

set {
reference uhf
freeze_core true
e_convergence 10
d_convergence 10
dft_spherical_points 1202
dft_radial_points 99
}

e = energy('b3lyp')

print_out('Grab this energy {0}'.format(e))
--------------------------------------------------------------------------

    Molecular point group: cs

    Geometry (in Bohr), charge = 0, multiplicity = 2:

       Center              X                  Y                   Z               Mass
    ------------   -----------------  -----------------  -----------------  -----------------
         C           -0.325126374794    -0.003554477069     0.000000000000    12.000000000000
         C            0.060885773306    -1.396822212369    -2.432645507300    12.000000000000
         C            0.061677467206     2.795471458631     0.000000000000    12.000000000000
         C            0.060885773306    -1.396822212369     2.432645507300    12.000000000000
         H            2.088250667906    -1.636698053269    -2.856447267600     1.007825032230
         H           -0.765937031094    -0.377843385069    -4.027319075100     1.007825032230
         H           -0.761307365794    -3.289030371669    -2.361716606100     1.007825032230
         H            2.089288595206     3.280652616131     0.000000000000     1.007825032230
         H           -0.762186535994     3.673529686931     1.676705664700     1.007825032230
         H           -0.762186535994     3.673529686931    -1.676705664700     1.007825032230
         H            2.088250667906    -1.636698053269     2.856447267600     1.007825032230
         H           -0.761307365794    -3.289030371669     2.361716606100     1.007825032230
         H           -0.765937031094    -0.377843385069     4.027319075100     1.007825032230

  Charge       = 0
  Multiplicity = 2
  Basis Set: ANONYMOUS0370F658
    Blend: 6-31G_2DFP_
  Basis Set: (ANONYMOUS0370F658 AUX)
    Blend: DEF2-UNIVERSAL-JKFIT

    Orbital Energies [Eh]
    ---------------------

    Alpha Occupied:

       1Ap   -10.180454     1App  -10.167210     2Ap   -10.167181
       3Ap   -10.166726     4Ap    -0.797715     2App   -0.686393
       5Ap    -0.685954     6Ap    -0.530798     7Ap    -0.440891
       3App   -0.435082     8Ap    -0.434552     4App   -0.382494
       9Ap    -0.382207     5App   -0.363892     6App   -0.338317
      10Ap    -0.337776    11Ap    -0.169077

    Alpha Virtual:

      12Ap     0.076089     7App    0.133923    13Ap     0.134398
       8App    0.142572    14Ap     0.142849    15Ap     0.154815
       9App    0.178453    16Ap     0.178898    17Ap     0.203498
      10App    0.214939    11App    0.275677    18Ap     0.276017
      12App    0.399075    19Ap     0.399279    20Ap     0.403376
      13App    0.423960    21Ap     0.424231    22Ap     0.456591
      14App    0.495039    23Ap     0.495834    15App    0.512068
      24Ap     0.513990    16App    0.578649    25Ap     0.579140
      17App    0.591319    26Ap     0.591348    27Ap     0.602264
      28Ap     0.624910    18App    0.631910    29Ap     0.636162
      19App    0.636599    20App    0.663023    30Ap     0.663460
      21App    0.683641    31Ap     0.684115    32Ap     0.734864
      22App    0.824404    33Ap     0.826049    23App    0.853962
      24App    0.914626    34Ap     0.915099    25App    0.943953
      35Ap     0.944496    36Ap     0.961233    26App    0.961738
      37Ap     1.004349    27App    1.127200    38Ap     1.129482
      39Ap     1.141844    28App    1.162640    40Ap     1.163616
      41Ap     1.222911    29App    1.273688    42Ap     1.274732
      43Ap     1.279203    44Ap     1.324382    30App    1.324550
      45Ap     1.354964    31App    1.365616    46Ap     1.367133
      32App    1.392495    33App    1.402669    47Ap     1.404265
      34App    1.416019    48Ap     1.417013    35App    1.427748
      36App    1.491900    49Ap     1.498562    37App    1.542905
      50Ap     1.543531    38App    1.572739    51Ap     1.576456
      52Ap     1.670354    39App    1.738154    53Ap     1.740223
      54Ap     1.768140    40App    1.831218    55Ap     1.832238
      41App    1.972281    42App    2.017314    56Ap     2.018000
      57Ap     2.020163    43App    2.049790    58Ap     2.054842
      44App    2.737889    59Ap     2.738419    60Ap     2.790703
      45App    2.811713    61Ap     2.889667    46App    2.889876
      62Ap     2.894981    47App    2.929474    63Ap     2.929817
      48App    2.959152    49App    2.963483    64Ap     2.965237
      65Ap     3.033971    50App    3.069638    66Ap     3.071671
      51App    3.084441    52App    3.168032    67Ap     3.169539
      68Ap     3.180750    69Ap     3.284948    53App    3.286366
      54App    3.327154    70Ap     3.329045    71Ap     3.375366
      55App    3.489437    72Ap     3.490447    56App    3.513576
      73Ap     3.525466    57App    3.566678    74Ap     3.569149
      58App    3.574887    59App    3.666276    75Ap     3.666492
      76Ap     3.680687    77Ap     3.693361    60App    3.694274
      78Ap     3.774990    61App    3.776780    79Ap     3.787964
      62App    3.910916    80Ap     3.913747    81Ap     4.033304
      63App    4.110396    82Ap     4.113127    64App    4.146690
      83Ap     4.149972    84Ap     4.173090    65App    4.201018
      85Ap     4.202265    86Ap     4.204469    66App    4.210833
      87Ap     4.315716    67App    4.315768    68App    4.359092
      69App    4.423594    88Ap     4.423937    70App    4.444421
      71App    4.516169    89Ap     4.517822    72App    4.577307
      90Ap     4.579425    91Ap     4.616661    92Ap     4.709029
      73App    4.773037    93Ap     4.775672    74App    4.836707
      94Ap     4.962922    75App    5.001250    95Ap     5.003253
      96Ap     5.227961    97Ap     5.246683    76App    5.246983
      77App    5.355256    98Ap     5.356652    78App    5.478814

    Beta Occupied:

       1App  -10.167961     1Ap   -10.167944     2Ap   -10.167491
       3Ap   -10.166633     4Ap    -0.781057     2App   -0.684203
       5Ap    -0.683756     6Ap    -0.511774     3App   -0.431472
       7Ap    -0.430927     8Ap    -0.421581     4App   -0.376577
       9Ap    -0.376270     5App   -0.362878     6App   -0.333441
      10Ap    -0.332892

    Beta Virtual:

      11Ap    -0.025892    12Ap     0.077099     7App    0.134835
      13Ap     0.135332     8App    0.144439    14Ap     0.144704
      15Ap     0.163306     9App    0.182103    16Ap     0.182568
      10App    0.215165    17Ap     0.218859    11App    0.282025
      18Ap     0.282389    12App    0.400272    19Ap     0.400489
      20Ap     0.419818    13App    0.426751    21Ap     0.427056
      22Ap     0.468439    14App    0.497296    23Ap     0.498103
      15App    0.513808    24Ap     0.556285    16App    0.584219
      25Ap     0.584653    17App    0.597501    26Ap     0.597556
      27Ap     0.609709    28Ap     0.628259    18App    0.632068
      29Ap     0.639415    19App    0.639883    20App    0.666587
      30Ap     0.667076    21App    0.686224    31Ap     0.686800
      32Ap     0.757393    22App    0.829581    33Ap     0.831248
      23App    0.855318    24App    0.922589    34Ap     0.923084
      25App    0.945811    35Ap     0.953375    36Ap     0.966491
      26App    0.967055    37Ap     1.009635    27App    1.131132
      38Ap     1.133399    39Ap     1.155227    28App    1.167739
      40Ap     1.168790    41Ap     1.231874    29App    1.279298
      42Ap     1.280351    43Ap     1.284948    44Ap     1.329413
      30App    1.329615    45Ap     1.364364    31App    1.370753
      46Ap     1.372483    32App    1.393569    33App    1.406154
      47Ap     1.407681    34App    1.421045    48Ap     1.422048
      35App    1.428003    36App    1.492955    49Ap     1.508985
      37App    1.547323    50Ap     1.548141    38App    1.580645
      51Ap     1.584086    52Ap     1.675185    39App    1.743928
      53Ap     1.745991    54Ap     1.778924    40App    1.835049
      55Ap     1.836105    41App    1.973142    42App    2.023615
      56Ap     2.026587    57Ap     2.039395    43App    2.056615
      58Ap     2.061496    44App    2.746182    59Ap     2.746803
      45App    2.812125    60Ap     2.815787    61Ap     2.902405
      46App    2.902542    62Ap     2.924602    47App    2.932019
      63Ap     2.932186    48App    2.960221    49App    2.968067
      64Ap     2.969764    65Ap     3.041946    50App    3.079381
      66Ap     3.081713    51App    3.086356    52App    3.183814
      67Ap     3.185091    68Ap     3.188495    69Ap     3.289776
      53App    3.291054    54App    3.330967    70Ap     3.332874
      71Ap     3.383144    55App    3.492173    72Ap     3.493180
      56App    3.511954    73Ap     3.528483    57App    3.574272
      58App    3.580555    74Ap     3.582550    59App    3.670931
      75Ap     3.671189    76Ap     3.693964    77Ap     3.725063
      60App    3.725883    78Ap     3.779607    61App    3.781365
      79Ap     3.816463    62App    3.920736    80Ap     3.923566
      81Ap     4.044203    63App    4.117193    82Ap     4.119912
      64App    4.153970    83Ap     4.157144    84Ap     4.187181
      65App    4.206913    85Ap     4.210093    86Ap     4.210555
      66App    4.215356    87Ap     4.323126    67App    4.323215
      68App    4.362467    69App    4.431856    88Ap     4.432185
      70App    4.447315    71App    4.524056    89Ap     4.525515
      72App    4.587805    90Ap     4.590084    91Ap     4.623781
      92Ap     4.719464    73App    4.779927    93Ap     4.782639
      74App    4.839623    94Ap     4.967732    75App    5.005302
      95Ap     5.007305    96Ap     5.233643    97Ap     5.248455
      76App    5.248762    77App    5.361701    98Ap     5.363133
      78App    5.481134

    Final Occupation by Irrep:
             Ap   App
    DOCC [    10,    6 ]
    SOCC [     1,    0 ]

  @DF-UKS Final Energy:  -157.81305791625667

   => Energetics <=

    Nuclear Repulsion Energy =            125.3861133185583441
    One-Electron Energy =                -458.7317739705524673
    Two-Electron Energy =                 195.8394930899722510
    DFT Exchange-Correlation Energy =     -20.3068903542347705
    Empirical Dispersion Energy =           0.0000000000000000
    VV10 Nonlocal Energy =                  0.0000000000000000
    Total Energy =                       -157.8130579162566676

  UHF NO Occupations:
  HONO-2 :    9 Ap 1.9995999
  HONO-1 :   10 Ap 1.9989813
  HONO-0 :   11 Ap 1.0000000
  LUNO+0 :   12 Ap 0.0010187
  LUNO+1 :   13 Ap 0.0004001
  LUNO+2 :   14 Ap 0.0001980
  LUNO+3 :    7App 0.0001973

Computation Completed

Properties will be evaluated at   0.000000,   0.000000,   0.000000 [a0]

Properties computed using the SCF density matrix

  Nuclear Dipole Moment: [e a0]
     X:     0.8369      Y:     0.0102      Z:     0.0000

  Electronic Dipole Moment: [e a0]
     X:    -0.7591      Y:    -0.0109      Z:     0.0000

  Dipole Moment: [e a0]
     X:     0.0778      Y:    -0.0007      Z:     0.0000     Total:     0.0778

  Dipole Moment: [D]
     X:     0.1977      Y:    -0.0019      Z:     0.0000     Total:     0.1977

*** tstop() called on n071 at Fri Nov  5 13:41:51 2021
Module time:
	user time   =     580.43 seconds =       9.67 minutes
	system time =      13.48 seconds =       0.22 minutes
	total time  =        149 seconds =       2.48 minutes
Total time:
	user time   =     580.43 seconds =       9.67 minutes
	system time =      13.48 seconds =       0.22 minutes
	total time  =        149 seconds =       2.48 minutes
Grab this energy -157.81305791625667
    Psi4 stopped on: Friday, 05 November 2021 01:41PM
    Psi4 wall time for execution: 0:02:29.70

*** Psi4 exiting successfully. Buy a developer a beer!
