                               Psi4 1.4a2.dev629

  ==> Input File <==

--------------------------------------------------------------------------
import os
memory 14 GB

molecule {
 C   -0.3230161183   -0.0000020687   -0.0000000000
 C    0.0610948780   -1.3984845940   -2.4222359897
 C    0.0609752737    2.7969733913   -0.0000000000
 C    0.0610948780   -1.3984845940    2.4222359897
 H    2.0834923767   -1.6409811881   -2.8420433664
 H   -0.7637147090   -0.3878682230   -4.0185240205
 H   -0.7638776470   -3.2861508522   -2.3452031541
 H    2.0833540050    3.2818700022   -0.0000000000
 H   -0.7639554174    3.6740520382    1.6733274834
 H   -0.7639554174    3.6740520382   -1.6733274834
 H    2.0834923767   -1.6409811881    2.8420433664
 H   -0.7638776470   -3.2861508522    2.3452031541
 H   -0.7637147090   -0.3878682230    4.0185240205
units bohr
0 2
}

basis {

assign 6-31g_2dfp_

[ 6-31g_2dfp_ ]

spherical

!----------------------------------------------------------------------
! Basis Set Exchange
! Version v0.8.13
! https://www.basissetexchange.org
!----------------------------------------------------------------------
!   Basis set: 6-31G(2df,p)
! Description: 6-31G(2df,p)
!        Role: orbital
!     Version: 0  (Data from the original Basis Set Exchange)
!----------------------------------------------------------------------

****
H     0
S    3   1.00
     18.7311370              0.03349460
      2.8253937              0.23472695
      0.6401217              0.81375733
S    1   1.00
      0.1612778              1.00000000
P    1   1.00
      1.5000000              1.0000000
P    1   1.00
      0.3750000              1.0000000
****
B     0
S    6   1.00
   2068.8823000              0.0018663
    310.6495700              0.0142515
     70.6830330              0.0695516
     19.8610800              0.2325729
      6.2993048              0.4670787
      2.1270270              0.3634314
SP   3   1.00
      4.7279710             -0.1303938              0.0745976
      1.1903377             -0.1307889              0.3078467
      0.3594117              1.1309444              0.7434568
SP   1   1.00
      0.1267512              1.0000000              1.0000000
D    1   1.00
      0.8020000              1.0000000
D    1   1.00
      0.2005000              1.0000000
F    1   1.00
      0.5000000              1.0000000
****
C     0
S    6   1.00
   3047.5249000              0.0018347
    457.3695100              0.0140373
    103.9486900              0.0688426
     29.2101550              0.2321844
      9.2866630              0.4679413
      3.1639270              0.3623120
SP   3   1.00
      7.8682724             -0.1193324              0.0689991
      1.8812885             -0.1608542              0.3164240
      0.5442493              1.1434564              0.7443083
SP   1   1.00
      0.1687144              1.0000000              1.0000000
D    1   1.00
      1.2520000              1.0000000
D    1   1.00
      0.3130000              1.0000000
F    1   1.00
      0.8000000              1.0000000
****
N     0
S    6   1.00
   4173.5110000              0.0018348
    627.4579000              0.0139950
    142.9021000              0.0685870
     40.2343300              0.2322410
     12.8202100              0.4690700
      4.3904370              0.3604550
SP   3   1.00
     11.6263580             -0.1149610              0.0675800
      2.7162800             -0.1691180              0.3239070
      0.7722180              1.1458520              0.7408950
SP   1   1.00
      0.2120313              1.0000000              1.0000000
D    1   1.00
      1.8260000              1.0000000
D    1   1.00
      0.4565000              1.0000000
F    1   1.00
      1.0000000              1.0000000
****
O     0
S    6   1.00
   5484.6717000              0.0018311
    825.2349500              0.0139501
    188.0469600              0.0684451
     52.9645000              0.2327143
     16.8975700              0.4701930
      5.7996353              0.3585209
SP   3   1.00
     15.5396160             -0.1107775              0.0708743
      3.5999336             -0.1480263              0.3397528
      1.0137618              1.1307670              0.7271586
SP   1   1.00
      0.2700058              1.0000000              1.0000000
D    1   1.00
      2.5840000              1.0000000
D    1   1.00
      0.6460000              1.0000000
F    1   1.00
      1.4000000              1.0000000
****
F     0
S    6   1.00
   7001.7130900              0.0018196169
   1051.3660900              0.0139160796
    239.2856900              0.0684053245
     67.3974453              0.233185760
     21.5199573              0.471267439
      7.40310130             0.356618546
SP   3   1.00
     20.8479528             -0.108506975            0.0716287243
      4.80830834            -0.146451658            0.3459121030
      1.34406986             1.128688580            0.7224699570
SP   1   1.00
      0.358151393            1.0000000              1.0000000
D    1   1.00
      3.5000000              1.0000000
D    1   1.00
      0.8750000              1.0000000
F    1   1.00
      1.8500000              1.0000000
****
Al     0
S    6   1.00
  13983.1000000              0.00194267
   2098.7500000              0.0148599
    477.7050000              0.0728494
    134.3600000              0.2468300
     42.8709000              0.4872580
     14.5189000              0.3234960
SP   6   1.00
    239.6680000             -0.00292619             0.00460285
     57.4419000             -0.0374080              0.0331990
     18.2859000             -0.1144870              0.1362820
      6.5991400              0.1156350              0.3304760
      2.4904900              0.6125950              0.4491460
      0.9445400              0.3937990              0.2657040
SP   3   1.00
      1.2779000             -0.2276060             -0.0175130
      0.3975900              0.00144583             0.2445330
      0.1600950              1.0927900              0.8049340
SP   1   1.00
      0.0556577              1.0000000              1.0000000
D    1   1.00
      0.6500000              1.0000000
D    1   1.00
      0.1625000              1.0000000
F    1   1.00
      0.2500000              1.0000000
****
Si     0
S    6   1.00
  16115.9000000              0.00195948
   2425.5800000              0.01492880
    553.8670000              0.07284780
    156.3400000              0.24613000
     50.0683000              0.48591400
     17.0178000              0.32500200
SP   6   1.00
    292.7180000             -0.00278094             0.00443826
     69.8731000             -0.03571460             0.03266790
     22.3363000             -0.11498500             0.13472100
      8.1503900              0.09356340             0.32867800
      3.1345800              0.60301700             0.44964000
      1.2254300              0.41895900             0.26137200
SP   3   1.00
      1.7273800             -0.24463000            -0.01779510
      0.5729220              0.00431572             0.25353900
      0.2221920              1.09818000             0.80066900
SP   1   1.00
      0.0778369              1.00000000             1.00000000
D    1   1.00
      0.9000000              1.0000000
D    1   1.00
      0.2250000              1.0000000
F    1   1.00
      0.3200000              1.0000000
****
P     0
S    6   1.00
  19413.3000000              0.0018516
   2909.4200000              0.0142062
    661.3640000              0.0699995
    185.7590000              0.2400790
     59.1943000              0.4847620
     20.0310000              0.3352000
SP   6   1.00
    339.4780000             -0.00278217             0.00456462
     81.0101000             -0.0360499              0.03369360
     25.8780000             -0.1166310              0.13975500
      9.4522100              0.0968328              0.33936200
      3.6656600              0.6144180              0.45092100
      1.4674600              0.4037980              0.23858600
SP   3   1.00
      2.1562300             -0.2529230             -0.01776530
      0.7489970              0.0328517              0.27405800
      0.2831450              1.0812500              0.78542100
SP   1   1.00
      0.0998317              1.0000000              1.00000000
D    1   1.00
      1.1000000              1.0000000
D    1   1.00
      0.2750000              1.0000000
F    1   1.00
      0.4500000              1.0000000
****
S     0
S    6   1.00
  21917.1000000              0.0018690
   3301.4900000              0.0142300
    754.1460000              0.0696960
    212.7110000              0.2384870
     67.9896000              0.4833070
     23.0515000              0.3380740
SP   6   1.00
    423.7350000             -0.0023767              0.0040610
    100.7100000             -0.0316930              0.0306810
     32.1599000             -0.1133170              0.1304520
     11.8079000              0.0560900              0.3272050
      4.6311000              0.5922550              0.4528510
      1.8702500              0.4550060              0.2560420
SP   3   1.00
      2.6158400             -0.2503740             -0.0145110
      0.9221670              0.0669570              0.3102630
      0.3412870              1.0545100              0.7544830
SP   1   1.00
      0.1171670              1.0000000              1.0000000
D    1   1.00
      1.3000000              1.0000000
D    1   1.00
      0.3250000              1.0000000
F    1   1.00
      0.5500000              1.0000000
****
Cl     0
S    6   1.00
  25180.1000000              0.0018330
   3780.3500000              0.0140340
    860.4740000              0.0690970
    242.1450000              0.2374520
     77.3349000              0.4830340
     26.2470000              0.3398560
SP   6   1.00
    491.7650000             -0.0022974              0.0039894
    116.9840000             -0.0307140              0.0303180
     37.4153000             -0.1125280              0.1298800
     13.7834000              0.0450160              0.3279510
      5.4521500              0.5893530              0.4535270
      2.2258800              0.4652060              0.2521540
SP   3   1.00
      3.1864900             -0.2518300             -0.0142990
      1.1442700              0.0615890              0.3235720
      0.4203770              1.0601800              0.7435070
SP   1   1.00
      0.1426570              1.0000000              1.0000000
D    1   1.00
      1.5000000              1.0000000
D    1   1.00
      0.3750000              1.0000000
F    1   1.00
      0.7000000              1.0000000
****
}

set {
reference uhf
freeze_core true
e_convergence 10
d_convergence 10
dft_spherical_points 1202
dft_radial_points 99
}

e = energy('b3lyp')

print_out('Grab this energy {0}'.format(e))
--------------------------------------------------------------------------

    Molecular point group: cs

    Geometry (in Bohr), charge = 0, multiplicity = 2:

       Center              X                  Y                   Z               Mass
    ------------   -----------------  -----------------  -----------------  -----------------
         C           -0.323052501072    -0.000002050481     0.000000000000    12.000000000000
         C            0.061058495228    -1.398484575781    -2.422235989700    12.000000000000
         C            0.060938890928     2.796973409519     0.000000000000    12.000000000000
         C            0.061058495228    -1.398484575781     2.422235989700    12.000000000000
         H            2.083455993928    -1.640981169881    -2.842043366400     1.007825032230
         H           -0.763751091772    -0.387868204781    -4.018524020500     1.007825032230
         H           -0.763914029772    -3.286150833981    -2.345203154100     1.007825032230
         H            2.083317622228     3.281870020419     0.000000000000     1.007825032230
         H           -0.763991800172     3.674052056419     1.673327483400     1.007825032230
         H           -0.763991800172     3.674052056419    -1.673327483400     1.007825032230
         H            2.083455993928    -1.640981169881     2.842043366400     1.007825032230
         H           -0.763914029772    -3.286150833981     2.345203154100     1.007825032230
         H           -0.763751091772    -0.387868204781     4.018524020500     1.007825032230

  Charge       = 0
  Multiplicity = 2
  Basis Set: ANONYMOUS1FD6267D
    Blend: 6-31G_2DFP_
  Basis Set: (ANONYMOUS1FD6267D AUX)
    Blend: DEF2-UNIVERSAL-JKFIT

    Orbital Energies [Eh]
    ---------------------

    Alpha Occupied:

       1Ap   -10.179500     2Ap   -10.166132     1App  -10.166132
       3Ap   -10.166086     4Ap    -0.798775     5Ap    -0.686848
       2App   -0.686847     6Ap    -0.531085     7Ap    -0.441820
       3App   -0.435291     8Ap    -0.435291     9Ap    -0.382933
       4App   -0.382932     5App   -0.363808     6App   -0.338192
      10Ap    -0.338192    11Ap    -0.168573

    Alpha Virtual:

      12Ap     0.076374    13Ap     0.134562     7App    0.134563
      14Ap     0.143240     8App    0.143240    15Ap     0.155239
      16Ap     0.179460     9App    0.179461    17Ap     0.204531
      10App    0.215603    11App    0.276529    18Ap     0.276531
      19Ap     0.399147    12App    0.399151    20Ap     0.403343
      13App    0.424098    21Ap     0.424098    22Ap     0.457309
      23Ap     0.495843    14App    0.495844    15App    0.512769
      24Ap     0.514512    25Ap     0.579835    16App    0.579843
      17App    0.592785    26Ap     0.592787    27Ap     0.603685
      28Ap     0.626150    18App    0.632835    19App    0.637620
      29Ap     0.637624    30Ap     0.664225    20App    0.664225
      31Ap     0.684855    21App    0.684856    32Ap     0.735098
      22App    0.826068    33Ap     0.826071    23App    0.855437
      24App    0.916466    34Ap     0.916472    35Ap     0.944819
      25App    0.946088    26App    0.962902    36Ap     0.962918
      37Ap     1.004686    38Ap     1.129417    27App    1.129429
      39Ap     1.143442    40Ap     1.164286    28App    1.164299
      41Ap     1.224669    42Ap     1.275931    29App    1.275934
      43Ap     1.279411    30App    1.325400    44Ap     1.325402
      45Ap     1.357025    31App    1.368382    46Ap     1.368386
      32App    1.394553    47Ap     1.404787    33App    1.404789
      34App    1.418414    48Ap     1.418421    35App    1.430081
      36App    1.493590    49Ap     1.501017    37App    1.544043
      50Ap     1.544044    51Ap     1.575815    38App    1.575816
      52Ap     1.671928    53Ap     1.741475    39App    1.741487
      54Ap     1.771368    40App    1.835080    55Ap     1.835080
      41App    1.974743    56Ap     2.021360    42App    2.021363
      57Ap     2.021695    58Ap     2.058222    43App    2.058223
      44App    2.740059    59Ap     2.740060    60Ap     2.792287
      45App    2.814676    61Ap     2.891661    46App    2.891667
      62Ap     2.896529    63Ap     2.930047    47App    2.930056
      48App    2.959862    64Ap     2.964718    49App    2.964732
      65Ap     3.034881    50App    3.073197    66Ap     3.073211
      51App    3.086863    67Ap     3.168971    52App    3.168979
      68Ap     3.182782    69Ap     3.285779    53App    3.285779
      70Ap     3.327087    54App    3.327092    71Ap     3.373517
      55App    3.490955    72Ap     3.490976    56App    3.514500
      73Ap     3.527060    57App    3.568507    74Ap     3.568528
      58App    3.575614    75Ap     3.667047    59App    3.667055
      76Ap     3.683439    60App    3.696414    77Ap     3.696430
      78Ap     3.781840    61App    3.781865    79Ap     3.790364
      80Ap     3.915274    62App    3.915280    81Ap     4.038645
      82Ap     4.116702    63App    4.116706    83Ap     4.152204
      64App    4.152212    84Ap     4.177430    85Ap     4.205520
      65App    4.206852    86Ap     4.206855    66App    4.216139
      87Ap     4.319742    67App    4.319761    68App    4.363912
      88Ap     4.429110    69App    4.429112    70App    4.447880
      71App    4.522265    89Ap     4.522267    72App    4.583309
      90Ap     4.583322    91Ap     4.625580    92Ap     4.716264
      93Ap     4.782802    73App    4.782810    74App    4.843184
      94Ap     4.966720    75App    5.005671    95Ap     5.005684
      96Ap     5.234352    76App    5.253523    97Ap     5.253524
      98Ap     5.362707    77App    5.362720    78App    5.488331

    Beta Occupied:

       1Ap   -10.166884     1App  -10.166884     2Ap   -10.166860
       3Ap   -10.165689     4Ap    -0.782105     5Ap    -0.684629
       2App   -0.684628     6Ap    -0.512099     3App   -0.431652
       7Ap    -0.431651     8Ap    -0.422457     9Ap    -0.376990
       4App   -0.376988     5App   -0.362784     6App   -0.333311
      10Ap    -0.333310

    Beta Virtual:

      11Ap    -0.025477    12Ap     0.077391    13Ap     0.135453
       7App    0.135454    14Ap     0.145111     8App    0.145112
      15Ap     0.163680    16Ap     0.183148     9App    0.183149
      10App    0.215837    17Ap     0.219753    11App    0.282817
      18Ap     0.282819    19Ap     0.400344    12App    0.400348
      20Ap     0.419708    13App    0.426902    21Ap     0.426902
      22Ap     0.469554    23Ap     0.498116    14App    0.498117
      15App    0.514514    24Ap     0.556837    25Ap     0.585410
      16App    0.585418    17App    0.598923    26Ap     0.598924
      27Ap     0.611140    28Ap     0.629573    18App    0.632993
      19App    0.640958    29Ap     0.640962    30Ap     0.667752
      20App    0.667753    31Ap     0.687534    21App    0.687536
      32Ap     0.757468    22App    0.831252    33Ap     0.831255
      23App    0.856803    24App    0.924436    34Ap     0.924443
      25App    0.947927    35Ap     0.953678    26App    0.968225
      36Ap     0.968241    37Ap     1.009863    38Ap     1.133431
      27App    1.133443    39Ap     1.156824    40Ap     1.169390
      28App    1.169403    41Ap     1.233764    42Ap     1.281553
      29App    1.281557    43Ap     1.285086    30App    1.330414
      44Ap     1.330415    45Ap     1.366497    31App    1.373613
      46Ap     1.373618    32App    1.395612    47Ap     1.408224
      33App    1.408227    34App    1.423516    48Ap     1.423522
      35App    1.430371    36App    1.494643    49Ap     1.511526
      50Ap     1.548268    37App    1.548270    38App    1.583857
      51Ap     1.583858    52Ap     1.676856    53Ap     1.747247
      39App    1.747258    54Ap     1.782116    40App    1.838922
      55Ap     1.838923    41App    1.975602    56Ap     2.027759
      42App    2.027762    57Ap     2.043115    58Ap     2.064960
      43App    2.064960    44App    2.748310    59Ap     2.748311
      45App    2.815095    60Ap     2.817429    61Ap     2.904166
      46App    2.904171    62Ap     2.926342    63Ap     2.932646
      47App    2.932655    48App    2.960941    64Ap     2.969363
      49App    2.969377    65Ap     3.042823    50App    3.083256
      66Ap     3.083267    51App    3.088701    67Ap     3.184570
      52App    3.184575    68Ap     3.190458    69Ap     3.290698
      53App    3.290698    70Ap     3.330824    54App    3.330829
      71Ap     3.381343    55App    3.493722    72Ap     3.493743
      56App    3.512860    73Ap     3.530073    57App    3.575491
      58App    3.581872    74Ap     3.581894    75Ap     3.671957
      59App    3.671969    76Ap     3.696772    60App    3.727719
      77Ap     3.727735    78Ap     3.786390    61App    3.786416
      79Ap     3.818806    80Ap     3.925080    62App    3.925087
      81Ap     4.049593    82Ap     4.123315    63App    4.123317
      83Ap     4.159567    64App    4.159577    84Ap     4.191463
      65App    4.212786    85Ap     4.212789    86Ap     4.213477
      66App    4.220658    87Ap     4.327131    67App    4.327151
      68App    4.367243    88Ap     4.437404    69App    4.437407
      70App    4.450756    71App    4.530173    89Ap     4.530174
      72App    4.593897    90Ap     4.593909    91Ap     4.632746
      92Ap     4.726688    93Ap     4.789755    73App    4.789763
      74App    4.846104    94Ap     4.971511    75App    5.009730
      95Ap     5.009743    96Ap     5.240082    76App    5.255313
      97Ap     5.255314    98Ap     5.369214    77App    5.369227
      78App    5.490663

    Final Occupation by Irrep:
             Ap   App
    DOCC [    10,    6 ]
    SOCC [     1,    0 ]

  @DF-UKS Final Energy:  -157.81298943633303

   => Energetics <=

    Nuclear Repulsion Energy =            125.6135675186990284
    One-Electron Energy =                -459.1771753593675385
    Two-Electron Energy =                 196.0655993388626825
    DFT Exchange-Correlation Energy =     -20.3149809345272097
    Empirical Dispersion Energy =           0.0000000000000000
    VV10 Nonlocal Energy =                  0.0000000000000000
    Total Energy =                       -157.8129894363330266

  UHF NO Occupations:
  HONO-2 :    9 Ap 1.9996017
  HONO-1 :   10 Ap 1.9989868
  HONO-0 :   11 Ap 1.0000000
  LUNO+0 :   12 Ap 0.0010132
  LUNO+1 :   13 Ap 0.0003983
  LUNO+2 :    7App 0.0001957
  LUNO+3 :   14 Ap 0.0001957

Computation Completed

Properties will be evaluated at   0.000000,   0.000000,   0.000000 [a0]

Properties computed using the SCF density matrix

  Nuclear Dipole Moment: [e a0]
     X:     0.8269      Y:    -0.0000      Z:     0.0000

  Electronic Dipole Moment: [e a0]
     X:    -0.7493      Y:     0.0000      Z:     0.0000

  Dipole Moment: [e a0]
     X:     0.0777      Y:    -0.0000      Z:     0.0000     Total:     0.0777

  Dipole Moment: [D]
     X:     0.1974      Y:    -0.0000      Z:     0.0000     Total:     0.1974

*** tstop() called on n054 at Fri Nov  5 15:00:44 2021
Module time:
	user time   =     510.94 seconds =       8.52 minutes
	system time =      11.32 seconds =       0.19 minutes
	total time  =        132 seconds =       2.20 minutes
Total time:
	user time   =     510.94 seconds =       8.52 minutes
	system time =      11.32 seconds =       0.19 minutes
	total time  =        132 seconds =       2.20 minutes
Grab this energy -157.81298943633303
    Psi4 stopped on: Friday, 05 November 2021 03:00PM
    Psi4 wall time for execution: 0:02:11.39

*** Psi4 exiting successfully. Buy a developer a beer!
