                               Psi4 1.4a2.dev629

  ==> Input File <==

--------------------------------------------------------------------------
import os
memory 14 GB

molecule {
 C   -0.3222929688   -0.0000020396   -0.0000000000
 C    0.0622935586   -1.4011300590   -2.4268181376
 C    0.0621737924    2.8022644904    0.0000000000
 C    0.0622935586   -1.4011300590    2.4268181376
 H    2.0804737507   -1.6440650140   -2.8473855080
 H   -0.7629247006   -0.3886277708   -4.0253083843
 H   -0.7630884293   -3.2916471055   -2.3492529632
 H    2.0803349168    3.2880383076    0.0000000000
 H   -0.7631659880    3.6803074133    1.6760623355
 H   -0.7631659880    3.6803074133   -1.6760623355
 H    2.0804737507   -1.6440650140    2.8473855080
 H   -0.7630884293   -3.2916471055    2.3492529632
 H   -0.7629247006   -0.3886277708    4.0253083843
units bohr
0 2
}

basis {

assign 6-31g_2dfp_

[ 6-31g_2dfp_ ]

spherical

!----------------------------------------------------------------------
! Basis Set Exchange
! Version v0.8.13
! https://www.basissetexchange.org
!----------------------------------------------------------------------
!   Basis set: 6-31G(2df,p)
! Description: 6-31G(2df,p)
!        Role: orbital
!     Version: 0  (Data from the original Basis Set Exchange)
!----------------------------------------------------------------------

****
H     0
S    3   1.00
     18.7311370              0.03349460
      2.8253937              0.23472695
      0.6401217              0.81375733
S    1   1.00
      0.1612778              1.00000000
P    1   1.00
      1.5000000              1.0000000
P    1   1.00
      0.3750000              1.0000000
****
B     0
S    6   1.00
   2068.8823000              0.0018663
    310.6495700              0.0142515
     70.6830330              0.0695516
     19.8610800              0.2325729
      6.2993048              0.4670787
      2.1270270              0.3634314
SP   3   1.00
      4.7279710             -0.1303938              0.0745976
      1.1903377             -0.1307889              0.3078467
      0.3594117              1.1309444              0.7434568
SP   1   1.00
      0.1267512              1.0000000              1.0000000
D    1   1.00
      0.8020000              1.0000000
D    1   1.00
      0.2005000              1.0000000
F    1   1.00
      0.5000000              1.0000000
****
C     0
S    6   1.00
   3047.5249000              0.0018347
    457.3695100              0.0140373
    103.9486900              0.0688426
     29.2101550              0.2321844
      9.2866630              0.4679413
      3.1639270              0.3623120
SP   3   1.00
      7.8682724             -0.1193324              0.0689991
      1.8812885             -0.1608542              0.3164240
      0.5442493              1.1434564              0.7443083
SP   1   1.00
      0.1687144              1.0000000              1.0000000
D    1   1.00
      1.2520000              1.0000000
D    1   1.00
      0.3130000              1.0000000
F    1   1.00
      0.8000000              1.0000000
****
N     0
S    6   1.00
   4173.5110000              0.0018348
    627.4579000              0.0139950
    142.9021000              0.0685870
     40.2343300              0.2322410
     12.8202100              0.4690700
      4.3904370              0.3604550
SP   3   1.00
     11.6263580             -0.1149610              0.0675800
      2.7162800             -0.1691180              0.3239070
      0.7722180              1.1458520              0.7408950
SP   1   1.00
      0.2120313              1.0000000              1.0000000
D    1   1.00
      1.8260000              1.0000000
D    1   1.00
      0.4565000              1.0000000
F    1   1.00
      1.0000000              1.0000000
****
O     0
S    6   1.00
   5484.6717000              0.0018311
    825.2349500              0.0139501
    188.0469600              0.0684451
     52.9645000              0.2327143
     16.8975700              0.4701930
      5.7996353              0.3585209
SP   3   1.00
     15.5396160             -0.1107775              0.0708743
      3.5999336             -0.1480263              0.3397528
      1.0137618              1.1307670              0.7271586
SP   1   1.00
      0.2700058              1.0000000              1.0000000
D    1   1.00
      2.5840000              1.0000000
D    1   1.00
      0.6460000              1.0000000
F    1   1.00
      1.4000000              1.0000000
****
F     0
S    6   1.00
   7001.7130900              0.0018196169
   1051.3660900              0.0139160796
    239.2856900              0.0684053245
     67.3974453              0.233185760
     21.5199573              0.471267439
      7.40310130             0.356618546
SP   3   1.00
     20.8479528             -0.108506975            0.0716287243
      4.80830834            -0.146451658            0.3459121030
      1.34406986             1.128688580            0.7224699570
SP   1   1.00
      0.358151393            1.0000000              1.0000000
D    1   1.00
      3.5000000              1.0000000
D    1   1.00
      0.8750000              1.0000000
F    1   1.00
      1.8500000              1.0000000
****
Al     0
S    6   1.00
  13983.1000000              0.00194267
   2098.7500000              0.0148599
    477.7050000              0.0728494
    134.3600000              0.2468300
     42.8709000              0.4872580
     14.5189000              0.3234960
SP   6   1.00
    239.6680000             -0.00292619             0.00460285
     57.4419000             -0.0374080              0.0331990
     18.2859000             -0.1144870              0.1362820
      6.5991400              0.1156350              0.3304760
      2.4904900              0.6125950              0.4491460
      0.9445400              0.3937990              0.2657040
SP   3   1.00
      1.2779000             -0.2276060             -0.0175130
      0.3975900              0.00144583             0.2445330
      0.1600950              1.0927900              0.8049340
SP   1   1.00
      0.0556577              1.0000000              1.0000000
D    1   1.00
      0.6500000              1.0000000
D    1   1.00
      0.1625000              1.0000000
F    1   1.00
      0.2500000              1.0000000
****
Si     0
S    6   1.00
  16115.9000000              0.00195948
   2425.5800000              0.01492880
    553.8670000              0.07284780
    156.3400000              0.24613000
     50.0683000              0.48591400
     17.0178000              0.32500200
SP   6   1.00
    292.7180000             -0.00278094             0.00443826
     69.8731000             -0.03571460             0.03266790
     22.3363000             -0.11498500             0.13472100
      8.1503900              0.09356340             0.32867800
      3.1345800              0.60301700             0.44964000
      1.2254300              0.41895900             0.26137200
SP   3   1.00
      1.7273800             -0.24463000            -0.01779510
      0.5729220              0.00431572             0.25353900
      0.2221920              1.09818000             0.80066900
SP   1   1.00
      0.0778369              1.00000000             1.00000000
D    1   1.00
      0.9000000              1.0000000
D    1   1.00
      0.2250000              1.0000000
F    1   1.00
      0.3200000              1.0000000
****
P     0
S    6   1.00
  19413.3000000              0.0018516
   2909.4200000              0.0142062
    661.3640000              0.0699995
    185.7590000              0.2400790
     59.1943000              0.4847620
     20.0310000              0.3352000
SP   6   1.00
    339.4780000             -0.00278217             0.00456462
     81.0101000             -0.0360499              0.03369360
     25.8780000             -0.1166310              0.13975500
      9.4522100              0.0968328              0.33936200
      3.6656600              0.6144180              0.45092100
      1.4674600              0.4037980              0.23858600
SP   3   1.00
      2.1562300             -0.2529230             -0.01776530
      0.7489970              0.0328517              0.27405800
      0.2831450              1.0812500              0.78542100
SP   1   1.00
      0.0998317              1.0000000              1.00000000
D    1   1.00
      1.1000000              1.0000000
D    1   1.00
      0.2750000              1.0000000
F    1   1.00
      0.4500000              1.0000000
****
S     0
S    6   1.00
  21917.1000000              0.0018690
   3301.4900000              0.0142300
    754.1460000              0.0696960
    212.7110000              0.2384870
     67.9896000              0.4833070
     23.0515000              0.3380740
SP   6   1.00
    423.7350000             -0.0023767              0.0040610
    100.7100000             -0.0316930              0.0306810
     32.1599000             -0.1133170              0.1304520
     11.8079000              0.0560900              0.3272050
      4.6311000              0.5922550              0.4528510
      1.8702500              0.4550060              0.2560420
SP   3   1.00
      2.6158400             -0.2503740             -0.0145110
      0.9221670              0.0669570              0.3102630
      0.3412870              1.0545100              0.7544830
SP   1   1.00
      0.1171670              1.0000000              1.0000000
D    1   1.00
      1.3000000              1.0000000
D    1   1.00
      0.3250000              1.0000000
F    1   1.00
      0.5500000              1.0000000
****
Cl     0
S    6   1.00
  25180.1000000              0.0018330
   3780.3500000              0.0140340
    860.4740000              0.0690970
    242.1450000              0.2374520
     77.3349000              0.4830340
     26.2470000              0.3398560
SP   6   1.00
    491.7650000             -0.0022974              0.0039894
    116.9840000             -0.0307140              0.0303180
     37.4153000             -0.1125280              0.1298800
     13.7834000              0.0450160              0.3279510
      5.4521500              0.5893530              0.4535270
      2.2258800              0.4652060              0.2521540
SP   3   1.00
      3.1864900             -0.2518300             -0.0142990
      1.1442700              0.0615890              0.3235720
      0.4203770              1.0601800              0.7435070
SP   1   1.00
      0.1426570              1.0000000              1.0000000
D    1   1.00
      1.5000000              1.0000000
D    1   1.00
      0.3750000              1.0000000
F    1   1.00
      0.7000000              1.0000000
****
}

set {
reference uhf
freeze_core true
e_convergence 10
d_convergence 10
dft_spherical_points 1202
dft_radial_points 99
}

e = energy('b3lyp')

print_out('Grab this energy {0}'.format(e))
--------------------------------------------------------------------------

    Molecular point group: cs

    Geometry (in Bohr), charge = 0, multiplicity = 2:

       Center              X                  Y                   Z               Mass
    ------------   -----------------  -----------------  -----------------  -----------------
         C           -0.323161227746    -0.000002059552     0.000000000000    12.000000000000
         C            0.061425299654    -1.401130078952    -2.426818137600    12.000000000000
         C            0.061305533454     2.802264470448     0.000000000000    12.000000000000
         C            0.061425299654    -1.401130078952     2.426818137600    12.000000000000
         H            2.079605491754    -1.644065033952    -2.847385508000     1.007825032230
         H           -0.763792959546    -0.388627790752    -4.025308384300     1.007825032230
         H           -0.763956688246    -3.291647125452    -2.349252963200     1.007825032230
         H            2.079466657854     3.288038287648     0.000000000000     1.007825032230
         H           -0.764034246946     3.680307393348     1.676062335500     1.007825032230
         H           -0.764034246946     3.680307393348    -1.676062335500     1.007825032230
         H            2.079605491754    -1.644065033952     2.847385508000     1.007825032230
         H           -0.763956688246    -3.291647125452     2.349252963200     1.007825032230
         H           -0.763792959546    -0.388627790752     4.025308384300     1.007825032230

  Charge       = 0
  Multiplicity = 2
  Basis Set: ANONYMOUS32987E4D
    Blend: 6-31G_2DFP_
  Basis Set: (ANONYMOUS32987E4D AUX)
    Blend: DEF2-UNIVERSAL-JKFIT

    Orbital Energies [Eh]
    ---------------------

    Alpha Occupied:

       1Ap   -10.180217     2Ap   -10.166491     1App  -10.166491
       3Ap   -10.166445     4Ap    -0.797765     5Ap    -0.686554
       2App   -0.686554     6Ap    -0.531098     7Ap    -0.441320
       3App   -0.434767     8Ap    -0.434767     9Ap    -0.382994
       4App   -0.382993     5App   -0.363749     6App   -0.337951
      10Ap    -0.337951    11Ap    -0.168863

    Alpha Virtual:

      12Ap     0.076318    13Ap     0.134517     7App    0.134518
      14Ap     0.142967     8App    0.142968    15Ap     0.155343
      16Ap     0.179465     9App    0.179465    17Ap     0.203479
      10App    0.214984    11App    0.276033    18Ap     0.276034
      19Ap     0.399291    12App    0.399295    20Ap     0.403633
      13App    0.424182    21Ap     0.424182    22Ap     0.456800
      23Ap     0.495434    14App    0.495435    15App    0.512551
      24Ap     0.514267    25Ap     0.579313    16App    0.579321
      17App    0.592505    26Ap     0.592506    27Ap     0.603982
      28Ap     0.625238    18App    0.632090    19App    0.636432
      29Ap     0.636436    30Ap     0.664254    20App    0.664254
      31Ap     0.684152    21App    0.684153    32Ap     0.735243
      22App    0.826256    33Ap     0.826259    23App    0.854708
      24App    0.915959    34Ap     0.915965    25App    0.944468
      35Ap     0.945263    26App    0.962040    36Ap     0.962056
      37Ap     1.003737    38Ap     1.128273    27App    1.128286
      39Ap     1.143814    40Ap     1.163253    28App    1.163265
      41Ap     1.223352    42Ap     1.275268    29App    1.275271
      43Ap     1.279058    30App    1.325274    44Ap     1.325276
      45Ap     1.356310    31App    1.366610    46Ap     1.366614
      32App    1.393082    47Ap     1.406095    33App    1.406097
      34App    1.417066    48Ap     1.417073    35App    1.428873
      36App    1.492414    49Ap     1.501379    37App    1.543692
      50Ap     1.543693    51Ap     1.574273    38App    1.574274
      52Ap     1.670724    53Ap     1.741697    39App    1.741708
      54Ap     1.771704    55Ap     1.832488    40App    1.832488
      41App    1.972337    56Ap     2.019477    57Ap     2.020136
      42App    2.020140    43App    2.055100    58Ap     2.055101
      44App    2.739149    59Ap     2.739149    60Ap     2.791533
      45App    2.811482    61Ap     2.890884    46App    2.890890
      62Ap     2.895347    63Ap     2.929676    47App    2.929684
      48App    2.959763    64Ap     2.965460    49App    2.965474
      65Ap     3.035632    50App    3.072262    66Ap     3.072276
      51App    3.083876    67Ap     3.168250    52App    3.168258
      68Ap     3.180944    53App    3.285374    69Ap     3.285375
      70Ap     3.326032    54App    3.326038    71Ap     3.374745
      55App    3.489393    72Ap     3.489413    56App    3.514934
      73Ap     3.523524    57App    3.568963    74Ap     3.568984
      58App    3.574309    75Ap     3.667428    59App    3.667435
      76Ap     3.680844    60App    3.694824    77Ap     3.694839
      78Ap     3.776908    61App    3.776934    79Ap     3.790464
      80Ap     3.912606    62App    3.912613    81Ap     4.036347
      82Ap     4.113880    63App    4.113884    83Ap     4.151998
      64App    4.152006    84Ap     4.177881    65App    4.203701
      85Ap     4.203705    86Ap     4.204215    66App    4.215693
      87Ap     4.318661    67App    4.318681    68App    4.360183
      88Ap     4.427753    69App    4.427755    70App    4.445213
      71App    4.519940    89Ap     4.519942    72App    4.579065
      90Ap     4.579078    91Ap     4.618314    92Ap     4.712034
      93Ap     4.776251    73App    4.776259    74App    4.837868
      94Ap     4.963369    75App    5.005345    95Ap     5.005357
      96Ap     5.236085    76App    5.249110    97Ap     5.249111
      98Ap     5.362095    77App    5.362108    78App    5.480635

    Beta Occupied:

       1Ap   -10.167239     1App  -10.167239     2Ap   -10.167222
       3Ap   -10.166369     4Ap    -0.781111     5Ap    -0.684343
       2App   -0.684343     6Ap    -0.511962     3App   -0.431122
       7Ap    -0.431122     8Ap    -0.422112     9Ap    -0.377113
       4App   -0.377112     5App   -0.362727     6App   -0.333069
      10Ap    -0.333068

    Beta Virtual:

      11Ap    -0.025383    12Ap     0.077308    13Ap     0.135347
       7App    0.135348    14Ap     0.144833     8App    0.144833
      15Ap     0.163720    16Ap     0.183154     9App    0.183155
      10App    0.215218    17Ap     0.218883    11App    0.282385
      18Ap     0.282387    19Ap     0.400453    12App    0.400458
      20Ap     0.420000    13App    0.426995    21Ap     0.426996
      22Ap     0.468789    23Ap     0.497685    14App    0.497685
      15App    0.514273    24Ap     0.556709    25Ap     0.584852
      16App    0.584860    17App    0.598715    26Ap     0.598715
      27Ap     0.611255    28Ap     0.628742    18App    0.632240
      19App    0.639734    29Ap     0.639738    30Ap     0.667793
      20App    0.667793    31Ap     0.686763    21App    0.686765
      32Ap     0.757795    22App    0.831401    33Ap     0.831404
      23App    0.856029    24App    0.923898    34Ap     0.923904
      25App    0.946311    35Ap     0.954165    26App    0.967372
      36Ap     0.967388    37Ap     1.009029    38Ap     1.132251
      27App    1.132263    39Ap     1.157104    40Ap     1.168379
      28App    1.168392    41Ap     1.232325    42Ap     1.280875
      29App    1.280879    43Ap     1.284855    30App    1.330242
      44Ap     1.330244    45Ap     1.365771    31App    1.371785
      46Ap     1.371790    32App    1.394117    47Ap     1.409604
      33App    1.409607    34App    1.422155    48Ap     1.422162
      35App    1.429122    36App    1.493494    49Ap     1.511816
      50Ap     1.547935    37App    1.547936    38App    1.582272
      51Ap     1.582273    52Ap     1.675594    53Ap     1.747470
      39App    1.747481    54Ap     1.782440    40App    1.836311
      55Ap     1.836311    41App    1.973206    56Ap     2.026663
      42App    2.026667    57Ap     2.040836    43App    2.061691
      58Ap     2.061691    44App    2.747488    59Ap     2.747489
      45App    2.811894    60Ap     2.816733    61Ap     2.903644
      46App    2.903650    62Ap     2.925293    63Ap     2.932100
      47App    2.932109    48App    2.960833    64Ap     2.970082
      49App    2.970096    65Ap     3.043276    50App    3.082246
      66Ap     3.082257    51App    3.085697    67Ap     3.183942
      52App    3.183946    68Ap     3.188687    53App    3.290089
      69Ap     3.290089    70Ap     3.329880    54App    3.329886
      71Ap     3.382612    55App    3.492208    72Ap     3.492229
      56App    3.513305    73Ap     3.526598    57App    3.574171
      58App    3.582145    74Ap     3.582167    75Ap     3.672582
      59App    3.672594    76Ap     3.694226    60App    3.726263
      77Ap     3.726279    78Ap     3.781483    61App    3.781509
      79Ap     3.819012    80Ap     3.922352    62App    3.922360
      81Ap     4.047295    82Ap     4.120769    63App    4.120771
      83Ap     4.159182    64App    4.159191    84Ap     4.191757
      65App    4.209517    85Ap     4.209520    86Ap     4.212193
      66App    4.220016    87Ap     4.326081    67App    4.326102
      68App    4.363580    88Ap     4.435941    69App    4.435943
      70App    4.448124    71App    4.527685    89Ap     4.527686
      72App    4.589676    90Ap     4.589688    91Ap     4.625590
      92Ap     4.722257    93Ap     4.783251    73App    4.783259
      74App    4.840801    94Ap     4.968127    75App    5.009339
      95Ap     5.009352    96Ap     5.241810    76App    5.250902
      97Ap     5.250903    98Ap     5.368574    77App    5.368587
      78App    5.482957

    Final Occupation by Irrep:
             Ap   App
    DOCC [    10,    6 ]
    SOCC [     1,    0 ]

  @DF-UKS Final Energy:  -157.81300988267932

   => Energetics <=

    Nuclear Repulsion Energy =            125.4374370561580463
    One-Electron Energy =                -458.8305917788217130
    Two-Electron Energy =                 195.8914319811184441
    DFT Exchange-Correlation Energy =     -20.3112871411341018
    Empirical Dispersion Energy =           0.0000000000000000
    VV10 Nonlocal Energy =                  0.0000000000000000
    Total Energy =                       -157.8130098826793244

  UHF NO Occupations:
  HONO-2 :    9 Ap 1.9996058
  HONO-1 :   10 Ap 1.9989806
  HONO-0 :   11 Ap 1.0000000
  LUNO+0 :   12 Ap 0.0010194
  LUNO+1 :   13 Ap 0.0003942
  LUNO+2 :    7App 0.0001979
  LUNO+3 :   14 Ap 0.0001979

Computation Completed

Properties will be evaluated at   0.000000,   0.000000,   0.000000 [a0]

Properties computed using the SCF density matrix

  Nuclear Dipole Moment: [e a0]
     X:     0.8211      Y:    -0.0000      Z:     0.0000

  Electronic Dipole Moment: [e a0]
     X:    -0.7394      Y:     0.0000      Z:     0.0000

  Dipole Moment: [e a0]
     X:     0.0817      Y:     0.0000      Z:     0.0000     Total:     0.0817

  Dipole Moment: [D]
     X:     0.2077      Y:     0.0000      Z:     0.0000     Total:     0.2077

*** tstop() called on n054 at Fri Nov  5 14:47:54 2021
Module time:
	user time   =     550.56 seconds =       9.18 minutes
	system time =      12.46 seconds =       0.21 minutes
	total time  =        142 seconds =       2.37 minutes
Total time:
	user time   =     550.56 seconds =       9.18 minutes
	system time =      12.46 seconds =       0.21 minutes
	total time  =        142 seconds =       2.37 minutes
Grab this energy -157.81300988267932
    Psi4 stopped on: Friday, 05 November 2021 02:47PM
    Psi4 wall time for execution: 0:02:21.71

*** Psi4 exiting successfully. Buy a developer a beer!
