                               Psi4 1.4a2.dev629

  ==> Input File <==

--------------------------------------------------------------------------
import os
memory 14 GB

molecule {
 C   -0.3236396885   -0.0004347680    0.0000000000
 C    0.0614350659   -1.4046163735   -2.4304478770
 C    0.0608491888    2.8073113924    0.0000000000
 C    0.0614350659   -1.4046163735    2.4304478770
 H    2.0867737425   -1.6500194435   -2.8516416526
 H   -0.7681734693   -0.3890531672   -4.0327471619
 H   -0.7627837821   -3.2935096777   -2.3540551281
 H    2.0880019191    3.2946877936    0.0000000000
 H   -0.7661612050    3.6864042961    1.6759686376
 H   -0.7661612050    3.6864042961   -1.6759686376
 H    2.0867737425   -1.6500194435    2.8516416526
 H   -0.7627837821   -3.2935096777    2.3540551281
 H   -0.7681734693   -0.3890531672    4.0327471619
units bohr
0 2
}

basis {

assign 6-31g_2dfp_

[ 6-31g_2dfp_ ]

spherical

!----------------------------------------------------------------------
! Basis Set Exchange
! Version v0.8.13
! https://www.basissetexchange.org
!----------------------------------------------------------------------
!   Basis set: 6-31G(2df,p)
! Description: 6-31G(2df,p)
!        Role: orbital
!     Version: 0  (Data from the original Basis Set Exchange)
!----------------------------------------------------------------------

****
H     0
S    3   1.00
     18.7311370              0.03349460
      2.8253937              0.23472695
      0.6401217              0.81375733
S    1   1.00
      0.1612778              1.00000000
P    1   1.00
      1.5000000              1.0000000
P    1   1.00
      0.3750000              1.0000000
****
B     0
S    6   1.00
   2068.8823000              0.0018663
    310.6495700              0.0142515
     70.6830330              0.0695516
     19.8610800              0.2325729
      6.2993048              0.4670787
      2.1270270              0.3634314
SP   3   1.00
      4.7279710             -0.1303938              0.0745976
      1.1903377             -0.1307889              0.3078467
      0.3594117              1.1309444              0.7434568
SP   1   1.00
      0.1267512              1.0000000              1.0000000
D    1   1.00
      0.8020000              1.0000000
D    1   1.00
      0.2005000              1.0000000
F    1   1.00
      0.5000000              1.0000000
****
C     0
S    6   1.00
   3047.5249000              0.0018347
    457.3695100              0.0140373
    103.9486900              0.0688426
     29.2101550              0.2321844
      9.2866630              0.4679413
      3.1639270              0.3623120
SP   3   1.00
      7.8682724             -0.1193324              0.0689991
      1.8812885             -0.1608542              0.3164240
      0.5442493              1.1434564              0.7443083
SP   1   1.00
      0.1687144              1.0000000              1.0000000
D    1   1.00
      1.2520000              1.0000000
D    1   1.00
      0.3130000              1.0000000
F    1   1.00
      0.8000000              1.0000000
****
N     0
S    6   1.00
   4173.5110000              0.0018348
    627.4579000              0.0139950
    142.9021000              0.0685870
     40.2343300              0.2322410
     12.8202100              0.4690700
      4.3904370              0.3604550
SP   3   1.00
     11.6263580             -0.1149610              0.0675800
      2.7162800             -0.1691180              0.3239070
      0.7722180              1.1458520              0.7408950
SP   1   1.00
      0.2120313              1.0000000              1.0000000
D    1   1.00
      1.8260000              1.0000000
D    1   1.00
      0.4565000              1.0000000
F    1   1.00
      1.0000000              1.0000000
****
O     0
S    6   1.00
   5484.6717000              0.0018311
    825.2349500              0.0139501
    188.0469600              0.0684451
     52.9645000              0.2327143
     16.8975700              0.4701930
      5.7996353              0.3585209
SP   3   1.00
     15.5396160             -0.1107775              0.0708743
      3.5999336             -0.1480263              0.3397528
      1.0137618              1.1307670              0.7271586
SP   1   1.00
      0.2700058              1.0000000              1.0000000
D    1   1.00
      2.5840000              1.0000000
D    1   1.00
      0.6460000              1.0000000
F    1   1.00
      1.4000000              1.0000000
****
F     0
S    6   1.00
   7001.7130900              0.0018196169
   1051.3660900              0.0139160796
    239.2856900              0.0684053245
     67.3974453              0.233185760
     21.5199573              0.471267439
      7.40310130             0.356618546
SP   3   1.00
     20.8479528             -0.108506975            0.0716287243
      4.80830834            -0.146451658            0.3459121030
      1.34406986             1.128688580            0.7224699570
SP   1   1.00
      0.358151393            1.0000000              1.0000000
D    1   1.00
      3.5000000              1.0000000
D    1   1.00
      0.8750000              1.0000000
F    1   1.00
      1.8500000              1.0000000
****
Al     0
S    6   1.00
  13983.1000000              0.00194267
   2098.7500000              0.0148599
    477.7050000              0.0728494
    134.3600000              0.2468300
     42.8709000              0.4872580
     14.5189000              0.3234960
SP   6   1.00
    239.6680000             -0.00292619             0.00460285
     57.4419000             -0.0374080              0.0331990
     18.2859000             -0.1144870              0.1362820
      6.5991400              0.1156350              0.3304760
      2.4904900              0.6125950              0.4491460
      0.9445400              0.3937990              0.2657040
SP   3   1.00
      1.2779000             -0.2276060             -0.0175130
      0.3975900              0.00144583             0.2445330
      0.1600950              1.0927900              0.8049340
SP   1   1.00
      0.0556577              1.0000000              1.0000000
D    1   1.00
      0.6500000              1.0000000
D    1   1.00
      0.1625000              1.0000000
F    1   1.00
      0.2500000              1.0000000
****
Si     0
S    6   1.00
  16115.9000000              0.00195948
   2425.5800000              0.01492880
    553.8670000              0.07284780
    156.3400000              0.24613000
     50.0683000              0.48591400
     17.0178000              0.32500200
SP   6   1.00
    292.7180000             -0.00278094             0.00443826
     69.8731000             -0.03571460             0.03266790
     22.3363000             -0.11498500             0.13472100
      8.1503900              0.09356340             0.32867800
      3.1345800              0.60301700             0.44964000
      1.2254300              0.41895900             0.26137200
SP   3   1.00
      1.7273800             -0.24463000            -0.01779510
      0.5729220              0.00431572             0.25353900
      0.2221920              1.09818000             0.80066900
SP   1   1.00
      0.0778369              1.00000000             1.00000000
D    1   1.00
      0.9000000              1.0000000
D    1   1.00
      0.2250000              1.0000000
F    1   1.00
      0.3200000              1.0000000
****
P     0
S    6   1.00
  19413.3000000              0.0018516
   2909.4200000              0.0142062
    661.3640000              0.0699995
    185.7590000              0.2400790
     59.1943000              0.4847620
     20.0310000              0.3352000
SP   6   1.00
    339.4780000             -0.00278217             0.00456462
     81.0101000             -0.0360499              0.03369360
     25.8780000             -0.1166310              0.13975500
      9.4522100              0.0968328              0.33936200
      3.6656600              0.6144180              0.45092100
      1.4674600              0.4037980              0.23858600
SP   3   1.00
      2.1562300             -0.2529230             -0.01776530
      0.7489970              0.0328517              0.27405800
      0.2831450              1.0812500              0.78542100
SP   1   1.00
      0.0998317              1.0000000              1.00000000
D    1   1.00
      1.1000000              1.0000000
D    1   1.00
      0.2750000              1.0000000
F    1   1.00
      0.4500000              1.0000000
****
S     0
S    6   1.00
  21917.1000000              0.0018690
   3301.4900000              0.0142300
    754.1460000              0.0696960
    212.7110000              0.2384870
     67.9896000              0.4833070
     23.0515000              0.3380740
SP   6   1.00
    423.7350000             -0.0023767              0.0040610
    100.7100000             -0.0316930              0.0306810
     32.1599000             -0.1133170              0.1304520
     11.8079000              0.0560900              0.3272050
      4.6311000              0.5922550              0.4528510
      1.8702500              0.4550060              0.2560420
SP   3   1.00
      2.6158400             -0.2503740             -0.0145110
      0.9221670              0.0669570              0.3102630
      0.3412870              1.0545100              0.7544830
SP   1   1.00
      0.1171670              1.0000000              1.0000000
D    1   1.00
      1.3000000              1.0000000
D    1   1.00
      0.3250000              1.0000000
F    1   1.00
      0.5500000              1.0000000
****
Cl     0
S    6   1.00
  25180.1000000              0.0018330
   3780.3500000              0.0140340
    860.4740000              0.0690970
    242.1450000              0.2374520
     77.3349000              0.4830340
     26.2470000              0.3398560
SP   6   1.00
    491.7650000             -0.0022974              0.0039894
    116.9840000             -0.0307140              0.0303180
     37.4153000             -0.1125280              0.1298800
     13.7834000              0.0450160              0.3279510
      5.4521500              0.5893530              0.4535270
      2.2258800              0.4652060              0.2521540
SP   3   1.00
      3.1864900             -0.2518300             -0.0142990
      1.1442700              0.0615890              0.3235720
      0.4203770              1.0601800              0.7435070
SP   1   1.00
      0.1426570              1.0000000              1.0000000
D    1   1.00
      1.5000000              1.0000000
D    1   1.00
      0.3750000              1.0000000
F    1   1.00
      0.7000000              1.0000000
****
}

set {
reference uhf
freeze_core true
e_convergence 10
d_convergence 10
dft_spherical_points 1202
dft_radial_points 99
}

e = energy('b3lyp')

print_out('Grab this energy {0}'.format(e))
--------------------------------------------------------------------------

    Molecular point group: cs

    Geometry (in Bohr), charge = 0, multiplicity = 2:

       Center              X                  Y                   Z               Mass
    ------------   -----------------  -----------------  -----------------  -----------------
         C           -0.323662727587     0.000019467545     0.000000000000    12.000000000000
         C            0.061412026813    -1.404162137955    -2.430447877000    12.000000000000
         C            0.060826149713     2.807765627945     0.000000000000    12.000000000000
         C            0.061412026813    -1.404162137955     2.430447877000    12.000000000000
         H            2.086750703413    -1.649565207955    -2.851641652600     1.007825032230
         H           -0.768196508387    -0.388598931655    -4.032747161900     1.007825032230
         H           -0.762806821187    -3.293055442155    -2.354055128100     1.007825032230
         H            2.087978880013     3.295142029145     0.000000000000     1.007825032230
         H           -0.766184244087     3.686858531645     1.675968637600     1.007825032230
         H           -0.766184244087     3.686858531645    -1.675968637600     1.007825032230
         H            2.086750703413    -1.649565207955     2.851641652600     1.007825032230
         H           -0.762806821187    -3.293055442155     2.354055128100     1.007825032230
         H           -0.768196508387    -0.388598931655     4.032747161900     1.007825032230

  Charge       = 0
  Multiplicity = 2
  Basis Set: ANONYMOUS540B1B1C
    Blend: 6-31G_2DFP_
  Basis Set: (ANONYMOUS540B1B1C AUX)
    Blend: DEF2-UNIVERSAL-JKFIT

    Orbital Energies [Eh]
    ---------------------

    Alpha Occupied:

       1Ap   -10.181113     1App  -10.167394     2Ap   -10.167389
       3Ap   -10.167345     4Ap    -0.796721     5Ap    -0.685947
       2App   -0.685829     6Ap    -0.530780     7Ap    -0.440533
       3App   -0.434379     8Ap    -0.434002     4App   -0.382547
       9Ap    -0.382503     5App   -0.363729    10Ap    -0.337973
       6App   -0.337648    11Ap    -0.169286

    Alpha Virtual:

      12Ap     0.076100     7App    0.134001    13Ap     0.134224
      14Ap     0.142221     8App    0.142629    15Ap     0.154821
      16Ap     0.178511     9App    0.178694    17Ap     0.202437
      10App    0.214459    18Ap     0.275345    11App    0.275563
      12App    0.399002    19Ap     0.399492    20Ap     0.403549
      13App    0.424223    21Ap     0.424542    22Ap     0.456031
      14App    0.495115    23Ap     0.495213    15App    0.511827
      24Ap     0.513570    25Ap     0.578063    16App    0.578177
      26Ap     0.590945    17App    0.591232    27Ap     0.602123
      28Ap     0.624307    18App    0.631416    29Ap     0.635219
      19App    0.635737    30Ap     0.662718    20App    0.663147
      21App    0.683220    31Ap     0.683620    32Ap     0.735194
      33Ap     0.825310    22App    0.825812    23App    0.852910
      24App    0.914082    34Ap     0.914518    25App    0.942801
      35Ap     0.945177    26App    0.960247    36Ap     0.960428
      37Ap     1.002337    27App    1.126943    38Ap     1.127499
      39Ap     1.141881    28App    1.162436    40Ap     1.162543
      41Ap     1.222433    42Ap     1.273335    29App    1.273829
      43Ap     1.278837    44Ap     1.323808    30App    1.324222
      45Ap     1.355818    46Ap     1.363935    31App    1.364527
      32App    1.390932    47Ap     1.404257    33App    1.404380
      34App    1.416045    48Ap     1.417467    35App    1.426473
      36App    1.490302    49Ap     1.498501    37App    1.542078
      50Ap     1.542117    51Ap     1.573073    38App    1.573494
      52Ap     1.669903    53Ap     1.738069    39App    1.739489
      54Ap     1.766812    40App    1.829412    55Ap     1.830964
      41App    1.970385    56Ap     2.015570    57Ap     2.017771
      42App    2.018525    58Ap     2.047688    43App    2.048704
      59Ap     2.737702    44App    2.738060    60Ap     2.789762
      45App    2.808704    61Ap     2.888649    46App    2.888924
      62Ap     2.893416    63Ap     2.929294    47App    2.929364
      48App    2.958728    64Ap     2.964613    49App    2.964778
      65Ap     3.034038    50App    3.069727    66Ap     3.070906
      51App    3.082866    67Ap     3.167518    52App    3.168348
      68Ap     3.178735    53App    3.284616    69Ap     3.284952
      70Ap     3.326342    54App    3.327146    71Ap     3.376984
      55App    3.488061    72Ap     3.488661    56App    3.513235
      73Ap     3.522978    57App    3.568031    74Ap     3.568905
      58App    3.573007    75Ap     3.665935    59App    3.666960
      76Ap     3.677717    60App    3.692448    77Ap     3.692968
      78Ap     3.772206    61App    3.772451    79Ap     3.788422
      62App    3.909560    80Ap     3.910711    81Ap     4.032609
      82Ap     4.107978    63App    4.108908    64App    4.147218
      83Ap     4.147552    84Ap     4.172124    65App    4.199845
      85Ap     4.201225    86Ap     4.201598    66App    4.209342
      67App    4.313775    87Ap     4.315088    68App    4.356484
      88Ap     4.421861    69App    4.422947    70App    4.441037
      89Ap     4.512813    71App    4.514914    90Ap     4.574713
      72App    4.574724    91Ap     4.610257    92Ap     4.704663
      93Ap     4.767211    73App    4.769150    74App    4.832953
      94Ap     4.959848    95Ap     5.000976    75App    5.001717
      96Ap     5.226564    76App    5.245256    97Ap     5.245957
      98Ap     5.351664    77App    5.354178    78App    5.473715

    Beta Occupied:

       1App  -10.168145     1Ap   -10.168140     2Ap   -10.168123
       3Ap   -10.167260     4Ap    -0.780069     5Ap    -0.683772
       2App   -0.683650     6Ap    -0.511651     3App   -0.430769
       7Ap    -0.430394     8Ap    -0.421324     4App   -0.376665
       9Ap    -0.376629     5App   -0.362725    10Ap    -0.333087
       6App   -0.332770

    Beta Virtual:

      11Ap    -0.025775    12Ap     0.077097     7App    0.134872
      13Ap     0.135148    14Ap     0.144035     8App    0.144499
      15Ap     0.163235    16Ap     0.182156     9App    0.182339
      10App    0.214681    17Ap     0.218000    18Ap     0.281763
      11App    0.281980    12App    0.400135    19Ap     0.400635
      20Ap     0.420091    13App    0.427043    21Ap     0.427363
      22Ap     0.467584    14App    0.497356    23Ap     0.497465
      15App    0.513547    24Ap     0.555986    25Ap     0.583609
      16App    0.583719    26Ap     0.597159    17App    0.597493
      27Ap     0.609511    28Ap     0.627626    18App    0.631563
      29Ap     0.638451    19App    0.638928    30Ap     0.666334
      20App    0.666738    21App    0.685797    31Ap     0.686155
      32Ap     0.757895    33Ap     0.830473    22App    0.830952
      23App    0.854227    24App    0.922060    34Ap     0.922457
      25App    0.944634    35Ap     0.954194    26App    0.965510
      36Ap     0.965729    37Ap     1.007655    27App    1.130975
      38Ap     1.131524    39Ap     1.155247    28App    1.167511
      40Ap     1.167609    41Ap     1.231265    42Ap     1.278875
      29App    1.279406    43Ap     1.284657    44Ap     1.328801
      30App    1.329213    45Ap     1.365205    46Ap     1.369247
      31App    1.369716    32App    1.391982    47Ap     1.407740
      33App    1.407894    34App    1.421088    48Ap     1.422411
      35App    1.426708    36App    1.491352    49Ap     1.508881
      37App    1.546516    50Ap     1.546610    51Ap     1.580875
      38App    1.581294    52Ap     1.674742    53Ap     1.743817
      39App    1.745262    54Ap     1.777567    40App    1.833243
      55Ap     1.834807    41App    1.971242    56Ap     2.023719
      42App    2.024893    57Ap     2.037334    58Ap     2.054375
      43App    2.055402    59Ap     2.746122    44App    2.746502
      45App    2.809111    60Ap     2.814917    61Ap     2.901514
      46App    2.901868    62Ap     2.923061    47App    2.931644
      63Ap     2.931656    48App    2.959789    64Ap     2.969093
      49App    2.969261    65Ap     3.041885    50App    3.079427
      66Ap     3.080731    51App    3.084789    67Ap     3.183395
      52App    3.184176    68Ap     3.186481    53App    3.289230
      69Ap     3.289587    70Ap     3.330189    54App    3.331059
      71Ap     3.384820    55App    3.490824    72Ap     3.491394
      56App    3.511608    73Ap     3.526075    57App    3.572846
      58App    3.581270    74Ap     3.582309    75Ap     3.670924
      59App    3.671670    76Ap     3.691039    60App    3.724459
      77Ap     3.724573    78Ap     3.776666    61App    3.776965
      79Ap     3.817097    62App    3.919304    80Ap     3.920585
      81Ap     4.043566    82Ap     4.114860    63App    4.116204
      64App    4.154009    83Ap     4.154828    84Ap     4.186046
      65App    4.205803    85Ap     4.207505    86Ap     4.209138
      66App    4.213751    67App    4.321228    87Ap     4.322458
      68App    4.359867    88Ap     4.429991    69App    4.431033
      70App    4.443907    89Ap     4.520469    71App    4.522583
      90Ap     4.585262    72App    4.585338    91Ap     4.617465
      92Ap     4.714925    93Ap     4.774189    73App    4.776073
      74App    4.835871    94Ap     4.964620    95Ap     5.004979
      75App    5.005715    96Ap     5.232133    76App    5.247044
      97Ap     5.247826    98Ap     5.358100    77App    5.360589
      78App    5.476015

    Final Occupation by Irrep:
             Ap   App
    DOCC [    10,    6 ]
    SOCC [     1,    0 ]

  @DF-UKS Final Energy:  -157.81306123128488

   => Energetics <=

    Nuclear Repulsion Energy =            125.2136864059439887
    One-Electron Energy =                -458.3926150529161987
    Two-Electron Energy =                 195.6692215064886682
    DFT Exchange-Correlation Energy =     -20.3033540908013137
    Empirical Dispersion Energy =           0.0000000000000000
    VV10 Nonlocal Energy =                  0.0000000000000000
    Total Energy =                       -157.8130612312848768

  UHF NO Occupations:
  HONO-2 :    9 Ap 1.9996026
  HONO-1 :   10 Ap 1.9989734
  HONO-0 :   11 Ap 1.0000000
  LUNO+0 :   12 Ap 0.0010266
  LUNO+1 :   13 Ap 0.0003974
  LUNO+2 :    7App 0.0001997
  LUNO+3 :   14 Ap 0.0001997

Computation Completed

Properties will be evaluated at   0.000000,   0.000000,   0.000000 [a0]

Properties computed using the SCF density matrix

  Nuclear Dipole Moment: [e a0]
     X:     0.8270      Y:     0.0032      Z:     0.0000

  Electronic Dipole Moment: [e a0]
     X:    -0.7483      Y:    -0.0049      Z:     0.0000

  Dipole Moment: [e a0]
     X:     0.0788      Y:    -0.0017      Z:     0.0000     Total:     0.0788

  Dipole Moment: [D]
     X:     0.2002      Y:    -0.0044      Z:     0.0000     Total:     0.2003

*** tstop() called on n079 at Fri Nov  5 14:29:30 2021
Module time:
	user time   =     464.82 seconds =       7.75 minutes
	system time =       4.40 seconds =       0.07 minutes
	total time  =        118 seconds =       1.97 minutes
Total time:
	user time   =     464.82 seconds =       7.75 minutes
	system time =       4.40 seconds =       0.07 minutes
	total time  =        118 seconds =       1.97 minutes
Grab this energy -157.81306123128488
    Psi4 stopped on: Friday, 05 November 2021 02:29PM
    Psi4 wall time for execution: 0:01:58.04

*** Psi4 exiting successfully. Buy a developer a beer!
