                               Psi4 1.4a2.dev629

  ==> Input File <==

--------------------------------------------------------------------------
import os
memory 14 GB

molecule {
 C   -0.3251191401   -0.0004961711   -0.0000000000
 C    0.0606326168   -1.4012507614   -2.4269573472
 C    0.0603639993    2.8011598768   -0.0000000000
 C    0.0606326168   -1.4012507614    2.4269573472
 H    2.0851651205   -1.6411856624   -2.8424482231
 H   -0.7638235302   -0.3919080820   -4.0272701433
 H   -0.7641417624   -3.2907870109   -2.3526169546
 H    2.0912970119    3.2815602001    0.0000000000
 H   -0.7674073186    3.6840074070    1.6799794431
 H   -0.7674073186    3.6840074070   -1.6799794431
 H    2.0851651205   -1.6411856624    2.8424482231
 H   -0.7641417624   -3.2907870109    2.3526169546
 H   -0.7638235302   -0.3919080820    4.0272701433
units bohr
0 2
}

basis {

assign 6-31g_2dfp_

[ 6-31g_2dfp_ ]

spherical

!----------------------------------------------------------------------
! Basis Set Exchange
! Version v0.8.13
! https://www.basissetexchange.org
!----------------------------------------------------------------------
!   Basis set: 6-31G(2df,p)
! Description: 6-31G(2df,p)
!        Role: orbital
!     Version: 0  (Data from the original Basis Set Exchange)
!----------------------------------------------------------------------

****
H     0
S    3   1.00
     18.7311370              0.03349460
      2.8253937              0.23472695
      0.6401217              0.81375733
S    1   1.00
      0.1612778              1.00000000
P    1   1.00
      1.5000000              1.0000000
P    1   1.00
      0.3750000              1.0000000
****
B     0
S    6   1.00
   2068.8823000              0.0018663
    310.6495700              0.0142515
     70.6830330              0.0695516
     19.8610800              0.2325729
      6.2993048              0.4670787
      2.1270270              0.3634314
SP   3   1.00
      4.7279710             -0.1303938              0.0745976
      1.1903377             -0.1307889              0.3078467
      0.3594117              1.1309444              0.7434568
SP   1   1.00
      0.1267512              1.0000000              1.0000000
D    1   1.00
      0.8020000              1.0000000
D    1   1.00
      0.2005000              1.0000000
F    1   1.00
      0.5000000              1.0000000
****
C     0
S    6   1.00
   3047.5249000              0.0018347
    457.3695100              0.0140373
    103.9486900              0.0688426
     29.2101550              0.2321844
      9.2866630              0.4679413
      3.1639270              0.3623120
SP   3   1.00
      7.8682724             -0.1193324              0.0689991
      1.8812885             -0.1608542              0.3164240
      0.5442493              1.1434564              0.7443083
SP   1   1.00
      0.1687144              1.0000000              1.0000000
D    1   1.00
      1.2520000              1.0000000
D    1   1.00
      0.3130000              1.0000000
F    1   1.00
      0.8000000              1.0000000
****
N     0
S    6   1.00
   4173.5110000              0.0018348
    627.4579000              0.0139950
    142.9021000              0.0685870
     40.2343300              0.2322410
     12.8202100              0.4690700
      4.3904370              0.3604550
SP   3   1.00
     11.6263580             -0.1149610              0.0675800
      2.7162800             -0.1691180              0.3239070
      0.7722180              1.1458520              0.7408950
SP   1   1.00
      0.2120313              1.0000000              1.0000000
D    1   1.00
      1.8260000              1.0000000
D    1   1.00
      0.4565000              1.0000000
F    1   1.00
      1.0000000              1.0000000
****
O     0
S    6   1.00
   5484.6717000              0.0018311
    825.2349500              0.0139501
    188.0469600              0.0684451
     52.9645000              0.2327143
     16.8975700              0.4701930
      5.7996353              0.3585209
SP   3   1.00
     15.5396160             -0.1107775              0.0708743
      3.5999336             -0.1480263              0.3397528
      1.0137618              1.1307670              0.7271586
SP   1   1.00
      0.2700058              1.0000000              1.0000000
D    1   1.00
      2.5840000              1.0000000
D    1   1.00
      0.6460000              1.0000000
F    1   1.00
      1.4000000              1.0000000
****
F     0
S    6   1.00
   7001.7130900              0.0018196169
   1051.3660900              0.0139160796
    239.2856900              0.0684053245
     67.3974453              0.233185760
     21.5199573              0.471267439
      7.40310130             0.356618546
SP   3   1.00
     20.8479528             -0.108506975            0.0716287243
      4.80830834            -0.146451658            0.3459121030
      1.34406986             1.128688580            0.7224699570
SP   1   1.00
      0.358151393            1.0000000              1.0000000
D    1   1.00
      3.5000000              1.0000000
D    1   1.00
      0.8750000              1.0000000
F    1   1.00
      1.8500000              1.0000000
****
Al     0
S    6   1.00
  13983.1000000              0.00194267
   2098.7500000              0.0148599
    477.7050000              0.0728494
    134.3600000              0.2468300
     42.8709000              0.4872580
     14.5189000              0.3234960
SP   6   1.00
    239.6680000             -0.00292619             0.00460285
     57.4419000             -0.0374080              0.0331990
     18.2859000             -0.1144870              0.1362820
      6.5991400              0.1156350              0.3304760
      2.4904900              0.6125950              0.4491460
      0.9445400              0.3937990              0.2657040
SP   3   1.00
      1.2779000             -0.2276060             -0.0175130
      0.3975900              0.00144583             0.2445330
      0.1600950              1.0927900              0.8049340
SP   1   1.00
      0.0556577              1.0000000              1.0000000
D    1   1.00
      0.6500000              1.0000000
D    1   1.00
      0.1625000              1.0000000
F    1   1.00
      0.2500000              1.0000000
****
Si     0
S    6   1.00
  16115.9000000              0.00195948
   2425.5800000              0.01492880
    553.8670000              0.07284780
    156.3400000              0.24613000
     50.0683000              0.48591400
     17.0178000              0.32500200
SP   6   1.00
    292.7180000             -0.00278094             0.00443826
     69.8731000             -0.03571460             0.03266790
     22.3363000             -0.11498500             0.13472100
      8.1503900              0.09356340             0.32867800
      3.1345800              0.60301700             0.44964000
      1.2254300              0.41895900             0.26137200
SP   3   1.00
      1.7273800             -0.24463000            -0.01779510
      0.5729220              0.00431572             0.25353900
      0.2221920              1.09818000             0.80066900
SP   1   1.00
      0.0778369              1.00000000             1.00000000
D    1   1.00
      0.9000000              1.0000000
D    1   1.00
      0.2250000              1.0000000
F    1   1.00
      0.3200000              1.0000000
****
P     0
S    6   1.00
  19413.3000000              0.0018516
   2909.4200000              0.0142062
    661.3640000              0.0699995
    185.7590000              0.2400790
     59.1943000              0.4847620
     20.0310000              0.3352000
SP   6   1.00
    339.4780000             -0.00278217             0.00456462
     81.0101000             -0.0360499              0.03369360
     25.8780000             -0.1166310              0.13975500
      9.4522100              0.0968328              0.33936200
      3.6656600              0.6144180              0.45092100
      1.4674600              0.4037980              0.23858600
SP   3   1.00
      2.1562300             -0.2529230             -0.01776530
      0.7489970              0.0328517              0.27405800
      0.2831450              1.0812500              0.78542100
SP   1   1.00
      0.0998317              1.0000000              1.00000000
D    1   1.00
      1.1000000              1.0000000
D    1   1.00
      0.2750000              1.0000000
F    1   1.00
      0.4500000              1.0000000
****
S     0
S    6   1.00
  21917.1000000              0.0018690
   3301.4900000              0.0142300
    754.1460000              0.0696960
    212.7110000              0.2384870
     67.9896000              0.4833070
     23.0515000              0.3380740
SP   6   1.00
    423.7350000             -0.0023767              0.0040610
    100.7100000             -0.0316930              0.0306810
     32.1599000             -0.1133170              0.1304520
     11.8079000              0.0560900              0.3272050
      4.6311000              0.5922550              0.4528510
      1.8702500              0.4550060              0.2560420
SP   3   1.00
      2.6158400             -0.2503740             -0.0145110
      0.9221670              0.0669570              0.3102630
      0.3412870              1.0545100              0.7544830
SP   1   1.00
      0.1171670              1.0000000              1.0000000
D    1   1.00
      1.3000000              1.0000000
D    1   1.00
      0.3250000              1.0000000
F    1   1.00
      0.5500000              1.0000000
****
Cl     0
S    6   1.00
  25180.1000000              0.0018330
   3780.3500000              0.0140340
    860.4740000              0.0690970
    242.1450000              0.2374520
     77.3349000              0.4830340
     26.2470000              0.3398560
SP   6   1.00
    491.7650000             -0.0022974              0.0039894
    116.9840000             -0.0307140              0.0303180
     37.4153000             -0.1125280              0.1298800
     13.7834000              0.0450160              0.3279510
      5.4521500              0.5893530              0.4535270
      2.2258800              0.4652060              0.2521540
SP   3   1.00
      3.1864900             -0.2518300             -0.0142990
      1.1442700              0.0615890              0.3235720
      0.4203770              1.0601800              0.7435070
SP   1   1.00
      0.1426570              1.0000000              1.0000000
D    1   1.00
      1.5000000              1.0000000
D    1   1.00
      0.3750000              1.0000000
F    1   1.00
      0.7000000              1.0000000
****
}

set {
reference uhf
freeze_core true
e_convergence 10
d_convergence 10
dft_spherical_points 1202
dft_radial_points 99
}

e = energy('b3lyp')

print_out('Grab this energy {0}'.format(e))
--------------------------------------------------------------------------

    Molecular point group: cs

    Geometry (in Bohr), charge = 0, multiplicity = 2:

       Center              X                  Y                   Z               Mass
    ------------   -----------------  -----------------  -----------------  -----------------
         C           -0.324454660206    -0.000141764928     0.000000000000    12.000000000000
         C            0.061297096694    -1.400896355228    -2.426957347200    12.000000000000
         C            0.061028479194     2.801514282972     0.000000000000    12.000000000000
         C            0.061297096694    -1.400896355228     2.426957347200    12.000000000000
         H            2.085829600394    -1.640831256228    -2.842448223100     1.007825032230
         H           -0.763159050306    -0.391553675828    -4.027270143300     1.007825032230
         H           -0.763477282506    -3.290432604728    -2.352616954600     1.007825032230
         H            2.091961491794     3.281914606272     0.000000000000     1.007825032230
         H           -0.766742838706     3.684361813172     1.679979443100     1.007825032230
         H           -0.766742838706     3.684361813172    -1.679979443100     1.007825032230
         H            2.085829600394    -1.640831256228     2.842448223100     1.007825032230
         H           -0.763477282506    -3.290432604728     2.352616954600     1.007825032230
         H           -0.763159050306    -0.391553675828     4.027270143300     1.007825032230

  Charge       = 0
  Multiplicity = 2
  Basis Set: ANONYMOUS8224D8F9
    Blend: 6-31G_2DFP_
  Basis Set: (ANONYMOUS8224D8F9 AUX)
    Blend: DEF2-UNIVERSAL-JKFIT

    Orbital Energies [Eh]
    ---------------------

    Alpha Occupied:

       1Ap   -10.180355     2Ap   -10.167732     1App  -10.166742
       3Ap   -10.166711     4Ap    -0.797703     2App   -0.686471
       5Ap    -0.685829     6Ap    -0.530763     7Ap    -0.441294
       8Ap    -0.434546     3App   -0.434375     4App   -0.382975
       9Ap    -0.382529     5App   -0.363474    10Ap    -0.338008
       6App   -0.337942    11Ap    -0.168871

    Alpha Virtual:

      12Ap     0.076035     7App    0.134193    13Ap     0.134201
       8App    0.142464    14Ap     0.142667    15Ap     0.154669
      16Ap     0.178497     9App    0.179139    17Ap     0.203415
      10App    0.214584    11App    0.275901    18Ap     0.275992
      19Ap     0.398920    12App    0.399084    20Ap     0.403418
      13App    0.424153    21Ap     0.424345    22Ap     0.456357
      23Ap     0.495342    14App    0.495483    15App    0.512351
      24Ap     0.513923    25Ap     0.578523    16App    0.578780
      26Ap     0.591515    17App    0.592136    27Ap     0.602822
      28Ap     0.624704    18App    0.631440    19App    0.635857
      29Ap     0.636538    30Ap     0.662956    20App    0.663319
      31Ap     0.683634    21App    0.684255    32Ap     0.734910
      22App    0.825097    33Ap     0.825905    23App    0.853576
      24App    0.914870    34Ap     0.914899    25App    0.943908
      35Ap     0.945407    26App    0.961320    36Ap     0.961830
      37Ap     1.002725    38Ap     1.127322    27App    1.127993
      39Ap     1.142809    28App    1.162638    40Ap     1.162797
      41Ap     1.223405    42Ap     1.274327    29App    1.274695
      43Ap     1.279138    30App    1.323707    44Ap     1.324440
      45Ap     1.356394    46Ap     1.365478    31App    1.365991
      32App    1.392644    47Ap     1.403921    33App    1.404709
      48Ap     1.416946    34App    1.417574    35App    1.427300
      36App    1.490894    49Ap     1.499399    37App    1.542709
      50Ap     1.542826    38App    1.574790    51Ap     1.575359
      52Ap     1.669736    39App    1.739475    53Ap     1.739606
      54Ap     1.768475    55Ap     1.829578    40App    1.832724
      41App    1.971604    56Ap     2.017896    42App    2.018117
      57Ap     2.018887    43App    2.052119    58Ap     2.052258
      44App    2.738456    59Ap     2.739351    60Ap     2.790699
      45App    2.810913    61Ap     2.889463    46App    2.890075
      62Ap     2.894730    47App    2.928935    63Ap     2.929141
      48App    2.958946    64Ap     2.963803    49App    2.964861
      65Ap     3.033541    66Ap     3.071552    50App    3.071959
      51App    3.084738    52App    3.168730    67Ap     3.168970
      68Ap     3.180436    53App    3.285659    69Ap     3.285785
      54App    3.326011    70Ap     3.326097    71Ap     3.375896
      55App    3.489810    72Ap     3.491493    56App    3.513739
      73Ap     3.525169    74Ap     3.567821    57App    3.567836
      58App    3.574386    75Ap     3.665615    59App    3.667175
      76Ap     3.678561    77Ap     3.694229    60App    3.695096
      78Ap     3.775059    61App    3.776259    79Ap     3.790435
      80Ap     3.911666    62App    3.912572    81Ap     4.035556
      82Ap     4.110481    63App    4.111886    64App    4.146304
      83Ap     4.150323    84Ap     4.173372    85Ap     4.200255
      65App    4.202753    86Ap     4.204503    66App    4.210661
      87Ap     4.314974    67App    4.316339    68App    4.357768
      69App    4.424627    88Ap     4.425190    70App    4.442574
      89Ap     4.515713    71App    4.516279    72App    4.576867
      90Ap     4.577791    91Ap     4.616995    92Ap     4.709200
      93Ap     4.774111    73App    4.774328    74App    4.837890
      94Ap     4.962348    95Ap     5.002531    75App    5.003640
      96Ap     5.227484    76App    5.243133    97Ap     5.250574
      98Ap     5.352096    77App    5.357954    78App    5.479167

    Beta Occupied:

       1Ap   -10.168493     1App  -10.167491     2Ap   -10.167478
       3Ap   -10.166525     4Ap    -0.781024     2App   -0.684275
       5Ap    -0.683634     6Ap    -0.511738     7Ap    -0.430937
       3App   -0.430743     8Ap    -0.421987     4App   -0.377079
       9Ap    -0.376615     5App   -0.362464    10Ap    -0.333120
       6App   -0.333069

    Beta Virtual:

      11Ap    -0.025577    12Ap     0.077047     7App    0.135012
      13Ap     0.135134     8App    0.144371    14Ap     0.144478
      15Ap     0.163079    16Ap     0.182184     9App    0.182808
      10App    0.214812    17Ap     0.218836    11App    0.282257
      18Ap     0.282354    19Ap     0.400081    12App    0.400251
      20Ap     0.419843    13App    0.426967    21Ap     0.427165
      22Ap     0.468186    23Ap     0.497588    14App    0.497729
      15App    0.514081    24Ap     0.556352    25Ap     0.584046
      16App    0.584317    26Ap     0.597745    17App    0.598317
      27Ap     0.610221    28Ap     0.628077    18App    0.631630
      19App    0.639133    29Ap     0.639810    30Ap     0.666483
      20App    0.666873    31Ap     0.686322    21App    0.686875
      32Ap     0.757469    22App    0.830224    33Ap     0.831083
      23App    0.854927    24App    0.922797    34Ap     0.922823
      25App    0.945745    35Ap     0.954253    26App    0.966681
      36Ap     0.967135    37Ap     1.007937    38Ap     1.131335
      27App    1.132034    39Ap     1.156405    28App    1.167704
      40Ap     1.167892    41Ap     1.232274    42Ap     1.279904
      29App    1.280277    43Ap     1.284825    30App    1.328611
      44Ap     1.329437    45Ap     1.365861    46Ap     1.370749
      31App    1.371228    32App    1.393687    47Ap     1.407354
      33App    1.408175    48Ap     1.422004    34App    1.422722
      35App    1.427565    36App    1.491953    49Ap     1.509865
      37App    1.547077    50Ap     1.547283    38App    1.582658
      51Ap     1.583214    52Ap     1.674579    39App    1.745251
      53Ap     1.745354    54Ap     1.779238    55Ap     1.833465
      40App    1.836552    41App    1.972460    42App    2.024551
      56Ap     2.024577    57Ap     2.039867    43App    2.058787
      58Ap     2.059054    44App    2.746767    59Ap     2.747690
      45App    2.811320    60Ap     2.815830    61Ap     2.902328
      46App    2.902746    62Ap     2.924422    47App    2.931451
      63Ap     2.931558    48App    2.960006    64Ap     2.968272
      49App    2.969405    65Ap     3.041483    66Ap     3.081419
      50App    3.081898    51App    3.086594    52App    3.184452
      67Ap     3.184745    68Ap     3.188119    53App    3.290454
      69Ap     3.290634    54App    3.329860    70Ap     3.329904
      71Ap     3.383742    55App    3.492505    72Ap     3.494125
      56App    3.512096    73Ap     3.528251    57App    3.574157
      74Ap     3.581248    58App    3.581303    75Ap     3.670413
      59App    3.672074    76Ap     3.691934    77Ap     3.725671
      60App    3.726559    78Ap     3.779551    61App    3.780693
      79Ap     3.818957    80Ap     3.921543    62App    3.922424
      81Ap     4.046384    82Ap     4.117430    63App    4.118367
      64App    4.153821    83Ap     4.157413    84Ap     4.187459
      85Ap     4.206687    65App    4.208773    86Ap     4.211913
      66App    4.215114    87Ap     4.322522    67App    4.323637
      68App    4.361110    69App    4.432833    88Ap     4.433346
      70App    4.445537    89Ap     4.523579    71App    4.524022
      72App    4.587493    90Ap     4.588324    91Ap     4.624264
      92Ap     4.719438    93Ap     4.781045    73App    4.781326
      74App    4.840803    94Ap     4.967147    95Ap     5.006571
      75App    5.007647    96Ap     5.233212    76App    5.244915
      97Ap     5.252360    98Ap     5.358585    77App    5.364418
      78App    5.481483

    Final Occupation by Irrep:
             Ap   App
    DOCC [    10,    6 ]
    SOCC [     1,    0 ]

  @DF-UKS Final Energy:  -157.81304730483973

   => Energetics <=

    Nuclear Repulsion Energy =            125.3830636534546699
    One-Electron Energy =                -458.7262976081074157
    Two-Electron Energy =                 195.8369887356508627
    DFT Exchange-Correlation Energy =     -20.3068020858378233
    Empirical Dispersion Energy =           0.0000000000000000
    VV10 Nonlocal Energy =                  0.0000000000000000
    Total Energy =                       -157.8130473048397278

  UHF NO Occupations:
  HONO-2 :    9 Ap 1.9996022
  HONO-1 :   10 Ap 1.9989785
  HONO-0 :   11 Ap 1.0000000
  LUNO+0 :   12 Ap 0.0010215
  LUNO+1 :   13 Ap 0.0003978
  LUNO+2 :   14 Ap 0.0001979
  LUNO+3 :    7App 0.0001978

Computation Completed

Properties will be evaluated at   0.000000,   0.000000,   0.000000 [a0]

Properties computed using the SCF density matrix

  Nuclear Dipole Moment: [e a0]
     X:     0.8319      Y:     0.0025      Z:     0.0000

  Electronic Dipole Moment: [e a0]
     X:    -0.7535      Y:    -0.0049      Z:     0.0000

  Dipole Moment: [e a0]
     X:     0.0783      Y:    -0.0024      Z:     0.0000     Total:     0.0784

  Dipole Moment: [D]
     X:     0.1991      Y:    -0.0062      Z:     0.0000     Total:     0.1992

*** tstop() called on n091 at Fri Nov  5 15:11:56 2021
Module time:
	user time   =     628.16 seconds =      10.47 minutes
	system time =       5.78 seconds =       0.10 minutes
	total time  =        159 seconds =       2.65 minutes
Total time:
	user time   =     628.16 seconds =      10.47 minutes
	system time =       5.78 seconds =       0.10 minutes
	total time  =        159 seconds =       2.65 minutes
Grab this energy -157.81304730483973
    Psi4 stopped on: Friday, 05 November 2021 03:11PM
    Psi4 wall time for execution: 0:02:39.23

*** Psi4 exiting successfully. Buy a developer a beer!
