                               Psi4 1.4a2.dev629

  ==> Input File <==

--------------------------------------------------------------------------
import os
memory 14 GB

molecule {
 C   -0.3233359824    0.0050865268   -0.0000000000
 C    0.0601890008   -1.3994598495   -2.4271696776
 C    0.0629234670    2.8018085188    0.0000000000
 C    0.0601890008   -1.3994598495    2.4271696776
 H    2.0869181206   -1.6451757191   -2.8471624500
 H   -0.7659551357   -0.3888300114   -4.0247990838
 H   -0.7644321364   -3.2931572434   -2.3496151452
 H    2.0868350884    3.2875093413    0.0000000000
 H   -0.7662350743    3.6794084731    1.6766793704
 H   -0.7662350743    3.6794084731   -1.6766793704
 H    2.0869181206   -1.6451757191    2.8471624500
 H   -0.7644321364   -3.2931572434    2.3496151452
 H   -0.7659551357   -0.3888300114    4.0247990838
units bohr
0 2
}

basis {

assign 6-31g_2dfp_

[ 6-31g_2dfp_ ]

spherical

!----------------------------------------------------------------------
! Basis Set Exchange
! Version v0.8.13
! https://www.basissetexchange.org
!----------------------------------------------------------------------
!   Basis set: 6-31G(2df,p)
! Description: 6-31G(2df,p)
!        Role: orbital
!     Version: 0  (Data from the original Basis Set Exchange)
!----------------------------------------------------------------------

****
H     0
S    3   1.00
     18.7311370              0.03349460
      2.8253937              0.23472695
      0.6401217              0.81375733
S    1   1.00
      0.1612778              1.00000000
P    1   1.00
      1.5000000              1.0000000
P    1   1.00
      0.3750000              1.0000000
****
B     0
S    6   1.00
   2068.8823000              0.0018663
    310.6495700              0.0142515
     70.6830330              0.0695516
     19.8610800              0.2325729
      6.2993048              0.4670787
      2.1270270              0.3634314
SP   3   1.00
      4.7279710             -0.1303938              0.0745976
      1.1903377             -0.1307889              0.3078467
      0.3594117              1.1309444              0.7434568
SP   1   1.00
      0.1267512              1.0000000              1.0000000
D    1   1.00
      0.8020000              1.0000000
D    1   1.00
      0.2005000              1.0000000
F    1   1.00
      0.5000000              1.0000000
****
C     0
S    6   1.00
   3047.5249000              0.0018347
    457.3695100              0.0140373
    103.9486900              0.0688426
     29.2101550              0.2321844
      9.2866630              0.4679413
      3.1639270              0.3623120
SP   3   1.00
      7.8682724             -0.1193324              0.0689991
      1.8812885             -0.1608542              0.3164240
      0.5442493              1.1434564              0.7443083
SP   1   1.00
      0.1687144              1.0000000              1.0000000
D    1   1.00
      1.2520000              1.0000000
D    1   1.00
      0.3130000              1.0000000
F    1   1.00
      0.8000000              1.0000000
****
N     0
S    6   1.00
   4173.5110000              0.0018348
    627.4579000              0.0139950
    142.9021000              0.0685870
     40.2343300              0.2322410
     12.8202100              0.4690700
      4.3904370              0.3604550
SP   3   1.00
     11.6263580             -0.1149610              0.0675800
      2.7162800             -0.1691180              0.3239070
      0.7722180              1.1458520              0.7408950
SP   1   1.00
      0.2120313              1.0000000              1.0000000
D    1   1.00
      1.8260000              1.0000000
D    1   1.00
      0.4565000              1.0000000
F    1   1.00
      1.0000000              1.0000000
****
O     0
S    6   1.00
   5484.6717000              0.0018311
    825.2349500              0.0139501
    188.0469600              0.0684451
     52.9645000              0.2327143
     16.8975700              0.4701930
      5.7996353              0.3585209
SP   3   1.00
     15.5396160             -0.1107775              0.0708743
      3.5999336             -0.1480263              0.3397528
      1.0137618              1.1307670              0.7271586
SP   1   1.00
      0.2700058              1.0000000              1.0000000
D    1   1.00
      2.5840000              1.0000000
D    1   1.00
      0.6460000              1.0000000
F    1   1.00
      1.4000000              1.0000000
****
F     0
S    6   1.00
   7001.7130900              0.0018196169
   1051.3660900              0.0139160796
    239.2856900              0.0684053245
     67.3974453              0.233185760
     21.5199573              0.471267439
      7.40310130             0.356618546
SP   3   1.00
     20.8479528             -0.108506975            0.0716287243
      4.80830834            -0.146451658            0.3459121030
      1.34406986             1.128688580            0.7224699570
SP   1   1.00
      0.358151393            1.0000000              1.0000000
D    1   1.00
      3.5000000              1.0000000
D    1   1.00
      0.8750000              1.0000000
F    1   1.00
      1.8500000              1.0000000
****
Al     0
S    6   1.00
  13983.1000000              0.00194267
   2098.7500000              0.0148599
    477.7050000              0.0728494
    134.3600000              0.2468300
     42.8709000              0.4872580
     14.5189000              0.3234960
SP   6   1.00
    239.6680000             -0.00292619             0.00460285
     57.4419000             -0.0374080              0.0331990
     18.2859000             -0.1144870              0.1362820
      6.5991400              0.1156350              0.3304760
      2.4904900              0.6125950              0.4491460
      0.9445400              0.3937990              0.2657040
SP   3   1.00
      1.2779000             -0.2276060             -0.0175130
      0.3975900              0.00144583             0.2445330
      0.1600950              1.0927900              0.8049340
SP   1   1.00
      0.0556577              1.0000000              1.0000000
D    1   1.00
      0.6500000              1.0000000
D    1   1.00
      0.1625000              1.0000000
F    1   1.00
      0.2500000              1.0000000
****
Si     0
S    6   1.00
  16115.9000000              0.00195948
   2425.5800000              0.01492880
    553.8670000              0.07284780
    156.3400000              0.24613000
     50.0683000              0.48591400
     17.0178000              0.32500200
SP   6   1.00
    292.7180000             -0.00278094             0.00443826
     69.8731000             -0.03571460             0.03266790
     22.3363000             -0.11498500             0.13472100
      8.1503900              0.09356340             0.32867800
      3.1345800              0.60301700             0.44964000
      1.2254300              0.41895900             0.26137200
SP   3   1.00
      1.7273800             -0.24463000            -0.01779510
      0.5729220              0.00431572             0.25353900
      0.2221920              1.09818000             0.80066900
SP   1   1.00
      0.0778369              1.00000000             1.00000000
D    1   1.00
      0.9000000              1.0000000
D    1   1.00
      0.2250000              1.0000000
F    1   1.00
      0.3200000              1.0000000
****
P     0
S    6   1.00
  19413.3000000              0.0018516
   2909.4200000              0.0142062
    661.3640000              0.0699995
    185.7590000              0.2400790
     59.1943000              0.4847620
     20.0310000              0.3352000
SP   6   1.00
    339.4780000             -0.00278217             0.00456462
     81.0101000             -0.0360499              0.03369360
     25.8780000             -0.1166310              0.13975500
      9.4522100              0.0968328              0.33936200
      3.6656600              0.6144180              0.45092100
      1.4674600              0.4037980              0.23858600
SP   3   1.00
      2.1562300             -0.2529230             -0.01776530
      0.7489970              0.0328517              0.27405800
      0.2831450              1.0812500              0.78542100
SP   1   1.00
      0.0998317              1.0000000              1.00000000
D    1   1.00
      1.1000000              1.0000000
D    1   1.00
      0.2750000              1.0000000
F    1   1.00
      0.4500000              1.0000000
****
S     0
S    6   1.00
  21917.1000000              0.0018690
   3301.4900000              0.0142300
    754.1460000              0.0696960
    212.7110000              0.2384870
     67.9896000              0.4833070
     23.0515000              0.3380740
SP   6   1.00
    423.7350000             -0.0023767              0.0040610
    100.7100000             -0.0316930              0.0306810
     32.1599000             -0.1133170              0.1304520
     11.8079000              0.0560900              0.3272050
      4.6311000              0.5922550              0.4528510
      1.8702500              0.4550060              0.2560420
SP   3   1.00
      2.6158400             -0.2503740             -0.0145110
      0.9221670              0.0669570              0.3102630
      0.3412870              1.0545100              0.7544830
SP   1   1.00
      0.1171670              1.0000000              1.0000000
D    1   1.00
      1.3000000              1.0000000
D    1   1.00
      0.3250000              1.0000000
F    1   1.00
      0.5500000              1.0000000
****
Cl     0
S    6   1.00
  25180.1000000              0.0018330
   3780.3500000              0.0140340
    860.4740000              0.0690970
    242.1450000              0.2374520
     77.3349000              0.4830340
     26.2470000              0.3398560
SP   6   1.00
    491.7650000             -0.0022974              0.0039894
    116.9840000             -0.0307140              0.0303180
     37.4153000             -0.1125280              0.1298800
     13.7834000              0.0450160              0.3279510
      5.4521500              0.5893530              0.4535270
      2.2258800              0.4652060              0.2521540
SP   3   1.00
      3.1864900             -0.2518300             -0.0142990
      1.1442700              0.0615890              0.3235720
      0.4203770              1.0601800              0.7435070
SP   1   1.00
      0.1426570              1.0000000              1.0000000
D    1   1.00
      1.5000000              1.0000000
D    1   1.00
      0.3750000              1.0000000
F    1   1.00
      0.7000000              1.0000000
****
}

set {
reference uhf
freeze_core true
e_convergence 10
d_convergence 10
dft_spherical_points 1202
dft_radial_points 99
}

e = energy('b3lyp')

print_out('Grab this energy {0}'.format(e))
--------------------------------------------------------------------------

    Molecular point group: cs

    Geometry (in Bohr), charge = 0, multiplicity = 2:

       Center              X                  Y                   Z               Mass
    ------------   -----------------  -----------------  -----------------  -----------------
         C           -0.323337036157     0.003550846965     0.000000000000    12.000000000000
         C            0.060187947043    -1.400995529335    -2.427169677600    12.000000000000
         C            0.062922413243     2.800272838965     0.000000000000    12.000000000000
         C            0.060187947043    -1.400995529335     2.427169677600    12.000000000000
         H            2.086917066843    -1.646711398935    -2.847162450000     1.007825032230
         H           -0.765956189457    -0.390365691235    -4.024799083800     1.007825032230
         H           -0.764433190157    -3.294692923235    -2.349615145200     1.007825032230
         H            2.086834034643     3.285973661465     0.000000000000     1.007825032230
         H           -0.766236128057     3.677872793265     1.676679370400     1.007825032230
         H           -0.766236128057     3.677872793265    -1.676679370400     1.007825032230
         H            2.086917066843    -1.646711398935     2.847162450000     1.007825032230
         H           -0.764433190157    -3.294692923235     2.349615145200     1.007825032230
         H           -0.765956189457    -0.390365691235     4.024799083800     1.007825032230

  Charge       = 0
  Multiplicity = 2
  Basis Set: ANONYMOUSF37EFFA7
    Blend: 6-31G_2DFP_
  Basis Set: (ANONYMOUSF37EFFA7 AUX)
    Blend: DEF2-UNIVERSAL-JKFIT

    Orbital Energies [Eh]
    ---------------------

    Alpha Occupied:

       1Ap   -10.180341     1App  -10.167063     2Ap   -10.167038
       3Ap   -10.166943     4Ap    -0.797769     5Ap    -0.686342
       2App   -0.686031     6Ap    -0.530775     7Ap    -0.441140
       3App   -0.434785     8Ap    -0.434544     9Ap    -0.382866
       4App   -0.382336     5App   -0.363607    10Ap    -0.338433
       6App   -0.337563    11Ap    -0.168961

    Alpha Virtual:

      12Ap     0.076072     7App    0.134136    13Ap     0.134174
       8App    0.142390    14Ap     0.142863    15Ap     0.154881
       9App    0.178658    16Ap     0.178899    17Ap     0.203544
      10App    0.214803    11App    0.275749    18Ap     0.276220
      19Ap     0.399187    12App    0.399264    20Ap     0.403350
      21Ap     0.424050    13App    0.424145    22Ap     0.456591
      14App    0.495371    23Ap     0.495410    15App    0.512160
      24Ap     0.513978    16App    0.578540    25Ap     0.579096
      17App    0.591521    26Ap     0.591749    27Ap     0.602580
      28Ap     0.624744    18App    0.631776    19App    0.635985
      29Ap     0.636528    20App    0.663310    30Ap     0.663516
      31Ap     0.683652    21App    0.684052    32Ap     0.734993
      22App    0.825311    33Ap     0.825502    23App    0.853917
      34Ap     0.914929    24App    0.915115    25App    0.944126
      35Ap     0.944620    26App    0.961031    36Ap     0.961550
      37Ap     1.003456    27App    1.127767    38Ap     1.128419
      39Ap     1.142252    28App    1.162792    40Ap     1.163750
      41Ap     1.223322    42Ap     1.274168    29App    1.274822
      43Ap     1.279346    30App    1.324004    44Ap     1.324704
      45Ap     1.355987    46Ap     1.366029    31App    1.366079
      32App    1.392448    33App    1.403862    47Ap     1.404217
      48Ap     1.417098    34App    1.417139    35App    1.427929
      36App    1.491491    49Ap     1.499087    37App    1.542784
      50Ap     1.542879    51Ap     1.574265    38App    1.574629
      52Ap     1.669824    39App    1.738815    53Ap     1.740020
      54Ap     1.768320    40App    1.831319    55Ap     1.831457
      41App    1.971742    56Ap     2.018172    42App    2.018996
      57Ap     2.019213    43App    2.051748    58Ap     2.053561
      44App    2.738208    59Ap     2.738761    60Ap     2.790929
      45App    2.811418    46App    2.889663    61Ap     2.890237
      62Ap     2.894937    47App    2.929150    63Ap     2.929853
      48App    2.958992    64Ap     2.964322    49App    2.964441
      65Ap     3.033996    50App    3.070883    66Ap     3.071686
      51App    3.084357    67Ap     3.168740    52App    3.168740
      68Ap     3.180685    53App    3.284978    69Ap     3.285645
      70Ap     3.326924    54App    3.327396    71Ap     3.375613
      55App    3.489900    72Ap     3.490378    56App    3.514037
      73Ap     3.525347    74Ap     3.568268    57App    3.568510
      58App    3.575135    75Ap     3.666377    59App    3.666403
      76Ap     3.679668    77Ap     3.694070    60App    3.694150
      61App    3.776048    78Ap     3.777552    79Ap     3.789154
      62App    3.911843    80Ap     3.912607    81Ap     4.034448
      63App    4.111145    82Ap     4.111601    64App    4.147192
      83Ap     4.149036    84Ap     4.173256    65App    4.202425
      85Ap     4.202584    86Ap     4.203746    66App    4.210891
      67App    4.315842    87Ap     4.316088    68App    4.358953
      88Ap     4.424388    69App    4.424498    70App    4.443458
      71App    4.515669    89Ap     4.518009    90Ap     4.577663
      72App    4.578623    91Ap     4.617812    92Ap     4.709455
      73App    4.773521    93Ap     4.775692    74App    4.836901
      94Ap     4.962806    75App    5.002760    95Ap     5.003197
      96Ap     5.228040    76App    5.246770    97Ap     5.246881
      77App    5.355215    98Ap     5.355796    78App    5.479347

    Beta Occupied:

       1App  -10.167815     1Ap   -10.167799     2Ap   -10.167709
       3Ap   -10.166519     4Ap    -0.781094     5Ap    -0.684133
       2App   -0.683846     6Ap    -0.511747     3App   -0.431147
       7Ap    -0.430947     8Ap    -0.421814     9Ap    -0.376918
       4App   -0.376455     5App   -0.362590    10Ap    -0.333564
       6App   -0.332678

    Beta Virtual:

      11Ap    -0.025742    12Ap     0.077081     7App    0.135017
      13Ap     0.135072     8App    0.144276    14Ap     0.144720
      15Ap     0.163339     9App    0.182316    16Ap     0.182584
      10App    0.215032    17Ap     0.218927    11App    0.282129
      18Ap     0.282536    19Ap     0.400357    12App    0.400437
      20Ap     0.419792    21Ap     0.426869    13App    0.426947
      22Ap     0.468499    14App    0.497625    23Ap     0.497677
      15App    0.513895    24Ap     0.556322    16App    0.584072
      25Ap     0.584666    17App    0.597686    26Ap     0.597941
      27Ap     0.610004    28Ap     0.628118    18App    0.631931
      19App    0.639257    29Ap     0.639831    20App    0.666883
      30Ap     0.667071    31Ap     0.686283    21App    0.686691
      32Ap     0.757517    22App    0.830481    33Ap     0.830669
      23App    0.855270    34Ap     0.922873    24App    0.923114
      25App    0.945963    35Ap     0.953550    26App    0.966322
      36Ap     0.966870    37Ap     1.008696    27App    1.131781
      38Ap     1.132477    39Ap     1.155616    28App    1.167919
      40Ap     1.168769    41Ap     1.232295    42Ap     1.279822
      29App    1.280362    43Ap     1.285100    30App    1.328994
      44Ap     1.329691    45Ap     1.365400    46Ap     1.371228
      31App    1.371373    32App    1.393507    33App    1.407258
      47Ap     1.407751    48Ap     1.422140    34App    1.422192
      35App    1.428203    36App    1.492539    49Ap     1.509529
      50Ap     1.547221    37App    1.547258    51Ap     1.582219
      38App    1.582418    52Ap     1.674672    39App    1.744579
      53Ap     1.745778    54Ap     1.779101    40App    1.835159
      55Ap     1.835327    41App    1.972601    42App    2.025363
      56Ap     2.025511    57Ap     2.039679    43App    2.058502
      58Ap     2.060244    44App    2.746517    59Ap     2.747124
      45App    2.811830    60Ap     2.816063    46App    2.902429
      61Ap     2.902846    62Ap     2.924645    47App    2.931574
      63Ap     2.932391    48App    2.960057    64Ap     2.968864
      49App    2.968984    65Ap     3.041932    50App    3.080857
      66Ap     3.081523    51App    3.086181    67Ap     3.184363
      52App    3.184424    68Ap     3.188561    53App    3.289826
      69Ap     3.290392    70Ap     3.330742    54App    3.331188
      71Ap     3.383431    55App    3.492614    72Ap     3.493117
      56App    3.512408    73Ap     3.528393    57App    3.574994
      74Ap     3.581593    58App    3.581869    59App    3.671128
      75Ap     3.671138    76Ap     3.692958    77Ap     3.725744
      60App    3.725751    61App    3.780595    78Ap     3.782076
      79Ap     3.817674    62App    3.921678    80Ap     3.922412
      81Ap     4.045334    63App    4.117951    82Ap     4.118425
      64App    4.154472    83Ap     4.156177    84Ap     4.187315
      65App    4.208368    85Ap     4.209510    86Ap     4.210714
      66App    4.215370    67App    4.323244    87Ap     4.323568
      68App    4.362316    88Ap     4.432612    69App    4.432689
      70App    4.446358    71App    4.523416    89Ap     4.525840
      90Ap     4.588262    72App    4.589208    91Ap     4.625024
      92Ap     4.719802    73App    4.780457    93Ap     4.782664
      74App    4.839817    94Ap     4.967599    75App    5.006802
      95Ap     5.007235    96Ap     5.233755    76App    5.248560
      97Ap     5.248661    77App    5.361668    98Ap     5.362304
      78App    5.481668

    Final Occupation by Irrep:
             Ap   App
    DOCC [    10,    6 ]
    SOCC [     1,    0 ]

  @DF-UKS Final Energy:  -157.81306365401915

   => Energetics <=

    Nuclear Repulsion Energy =            125.3946630942433416
    One-Electron Energy =                -458.7489749881568741
    Two-Electron Energy =                 195.8483936183519916
    DFT Exchange-Correlation Energy =     -20.3071453784576121
    Empirical Dispersion Energy =           0.0000000000000000
    VV10 Nonlocal Energy =                  0.0000000000000000
    Total Energy =                       -157.8130636540191460

  UHF NO Occupations:
  HONO-2 :    9 Ap 1.9996009
  HONO-1 :   10 Ap 1.9989805
  HONO-0 :   11 Ap 1.0000000
  LUNO+0 :   12 Ap 0.0010195
  LUNO+1 :   13 Ap 0.0003991
  LUNO+2 :    7App 0.0001985
  LUNO+3 :   14 Ap 0.0001966

Computation Completed

Properties will be evaluated at   0.000000,   0.000000,   0.000000 [a0]

Properties computed using the SCF density matrix

  Nuclear Dipole Moment: [e a0]
     X:     0.8272      Y:    -0.0108      Z:     0.0000

  Electronic Dipole Moment: [e a0]
     X:    -0.7493      Y:     0.0119      Z:     0.0000

  Dipole Moment: [e a0]
     X:     0.0779      Y:     0.0011      Z:     0.0000     Total:     0.0779

  Dipole Moment: [D]
     X:     0.1980      Y:     0.0028      Z:     0.0000     Total:     0.1981

*** tstop() called on n070 at Fri Nov  5 12:30:34 2021
Module time:
	user time   =     573.45 seconds =       9.56 minutes
	system time =      13.31 seconds =       0.22 minutes
	total time  =        148 seconds =       2.47 minutes
Total time:
	user time   =     573.45 seconds =       9.56 minutes
	system time =      13.31 seconds =       0.22 minutes
	total time  =        148 seconds =       2.47 minutes
Grab this energy -157.81306365401915
    Psi4 stopped on: Friday, 05 November 2021 12:30PM
    Psi4 wall time for execution: 0:02:27.72

*** Psi4 exiting successfully. Buy a developer a beer!
