                               Psi4 1.4a2.dev629

  ==> Input File <==

--------------------------------------------------------------------------
import os
memory 14 GB

molecule {
 C   -0.3233408638   -0.0004968288   -0.0024278668
 C    0.0604969025   -1.4000385320   -2.4261071809
 C    0.0609228672    2.8009010974   -0.0012518968
 C    0.0618796182   -1.4022064983    2.4273625686
 H    2.0826165415   -1.6459997837   -2.8474480149
 H   -0.7632956973   -0.3876634679   -4.0247872893
 H   -0.7679576398   -3.2864231461   -2.3468617699
 H    2.0909755705    3.2876030788    0.0033606523
 H   -0.7721873721    3.6778731882    1.6771911961
 H   -0.7634496288    3.6836730172   -1.6838795834
 H    2.0870730966   -1.6423987025    2.8478880643
 H   -0.7611586676   -3.2928907566    2.3522302799
 H   -0.7651826038   -0.3919569793    4.0247308407
units bohr
0 2
}

basis {

assign 6-31g_2dfp_

[ 6-31g_2dfp_ ]

spherical

!----------------------------------------------------------------------
! Basis Set Exchange
! Version v0.8.13
! https://www.basissetexchange.org
!----------------------------------------------------------------------
!   Basis set: 6-31G(2df,p)
! Description: 6-31G(2df,p)
!        Role: orbital
!     Version: 0  (Data from the original Basis Set Exchange)
!----------------------------------------------------------------------

****
H     0
S    3   1.00
     18.7311370              0.03349460
      2.8253937              0.23472695
      0.6401217              0.81375733
S    1   1.00
      0.1612778              1.00000000
P    1   1.00
      1.5000000              1.0000000
P    1   1.00
      0.3750000              1.0000000
****
B     0
S    6   1.00
   2068.8823000              0.0018663
    310.6495700              0.0142515
     70.6830330              0.0695516
     19.8610800              0.2325729
      6.2993048              0.4670787
      2.1270270              0.3634314
SP   3   1.00
      4.7279710             -0.1303938              0.0745976
      1.1903377             -0.1307889              0.3078467
      0.3594117              1.1309444              0.7434568
SP   1   1.00
      0.1267512              1.0000000              1.0000000
D    1   1.00
      0.8020000              1.0000000
D    1   1.00
      0.2005000              1.0000000
F    1   1.00
      0.5000000              1.0000000
****
C     0
S    6   1.00
   3047.5249000              0.0018347
    457.3695100              0.0140373
    103.9486900              0.0688426
     29.2101550              0.2321844
      9.2866630              0.4679413
      3.1639270              0.3623120
SP   3   1.00
      7.8682724             -0.1193324              0.0689991
      1.8812885             -0.1608542              0.3164240
      0.5442493              1.1434564              0.7443083
SP   1   1.00
      0.1687144              1.0000000              1.0000000
D    1   1.00
      1.2520000              1.0000000
D    1   1.00
      0.3130000              1.0000000
F    1   1.00
      0.8000000              1.0000000
****
N     0
S    6   1.00
   4173.5110000              0.0018348
    627.4579000              0.0139950
    142.9021000              0.0685870
     40.2343300              0.2322410
     12.8202100              0.4690700
      4.3904370              0.3604550
SP   3   1.00
     11.6263580             -0.1149610              0.0675800
      2.7162800             -0.1691180              0.3239070
      0.7722180              1.1458520              0.7408950
SP   1   1.00
      0.2120313              1.0000000              1.0000000
D    1   1.00
      1.8260000              1.0000000
D    1   1.00
      0.4565000              1.0000000
F    1   1.00
      1.0000000              1.0000000
****
O     0
S    6   1.00
   5484.6717000              0.0018311
    825.2349500              0.0139501
    188.0469600              0.0684451
     52.9645000              0.2327143
     16.8975700              0.4701930
      5.7996353              0.3585209
SP   3   1.00
     15.5396160             -0.1107775              0.0708743
      3.5999336             -0.1480263              0.3397528
      1.0137618              1.1307670              0.7271586
SP   1   1.00
      0.2700058              1.0000000              1.0000000
D    1   1.00
      2.5840000              1.0000000
D    1   1.00
      0.6460000              1.0000000
F    1   1.00
      1.4000000              1.0000000
****
F     0
S    6   1.00
   7001.7130900              0.0018196169
   1051.3660900              0.0139160796
    239.2856900              0.0684053245
     67.3974453              0.233185760
     21.5199573              0.471267439
      7.40310130             0.356618546
SP   3   1.00
     20.8479528             -0.108506975            0.0716287243
      4.80830834            -0.146451658            0.3459121030
      1.34406986             1.128688580            0.7224699570
SP   1   1.00
      0.358151393            1.0000000              1.0000000
D    1   1.00
      3.5000000              1.0000000
D    1   1.00
      0.8750000              1.0000000
F    1   1.00
      1.8500000              1.0000000
****
Al     0
S    6   1.00
  13983.1000000              0.00194267
   2098.7500000              0.0148599
    477.7050000              0.0728494
    134.3600000              0.2468300
     42.8709000              0.4872580
     14.5189000              0.3234960
SP   6   1.00
    239.6680000             -0.00292619             0.00460285
     57.4419000             -0.0374080              0.0331990
     18.2859000             -0.1144870              0.1362820
      6.5991400              0.1156350              0.3304760
      2.4904900              0.6125950              0.4491460
      0.9445400              0.3937990              0.2657040
SP   3   1.00
      1.2779000             -0.2276060             -0.0175130
      0.3975900              0.00144583             0.2445330
      0.1600950              1.0927900              0.8049340
SP   1   1.00
      0.0556577              1.0000000              1.0000000
D    1   1.00
      0.6500000              1.0000000
D    1   1.00
      0.1625000              1.0000000
F    1   1.00
      0.2500000              1.0000000
****
Si     0
S    6   1.00
  16115.9000000              0.00195948
   2425.5800000              0.01492880
    553.8670000              0.07284780
    156.3400000              0.24613000
     50.0683000              0.48591400
     17.0178000              0.32500200
SP   6   1.00
    292.7180000             -0.00278094             0.00443826
     69.8731000             -0.03571460             0.03266790
     22.3363000             -0.11498500             0.13472100
      8.1503900              0.09356340             0.32867800
      3.1345800              0.60301700             0.44964000
      1.2254300              0.41895900             0.26137200
SP   3   1.00
      1.7273800             -0.24463000            -0.01779510
      0.5729220              0.00431572             0.25353900
      0.2221920              1.09818000             0.80066900
SP   1   1.00
      0.0778369              1.00000000             1.00000000
D    1   1.00
      0.9000000              1.0000000
D    1   1.00
      0.2250000              1.0000000
F    1   1.00
      0.3200000              1.0000000
****
P     0
S    6   1.00
  19413.3000000              0.0018516
   2909.4200000              0.0142062
    661.3640000              0.0699995
    185.7590000              0.2400790
     59.1943000              0.4847620
     20.0310000              0.3352000
SP   6   1.00
    339.4780000             -0.00278217             0.00456462
     81.0101000             -0.0360499              0.03369360
     25.8780000             -0.1166310              0.13975500
      9.4522100              0.0968328              0.33936200
      3.6656600              0.6144180              0.45092100
      1.4674600              0.4037980              0.23858600
SP   3   1.00
      2.1562300             -0.2529230             -0.01776530
      0.7489970              0.0328517              0.27405800
      0.2831450              1.0812500              0.78542100
SP   1   1.00
      0.0998317              1.0000000              1.00000000
D    1   1.00
      1.1000000              1.0000000
D    1   1.00
      0.2750000              1.0000000
F    1   1.00
      0.4500000              1.0000000
****
S     0
S    6   1.00
  21917.1000000              0.0018690
   3301.4900000              0.0142300
    754.1460000              0.0696960
    212.7110000              0.2384870
     67.9896000              0.4833070
     23.0515000              0.3380740
SP   6   1.00
    423.7350000             -0.0023767              0.0040610
    100.7100000             -0.0316930              0.0306810
     32.1599000             -0.1133170              0.1304520
     11.8079000              0.0560900              0.3272050
      4.6311000              0.5922550              0.4528510
      1.8702500              0.4550060              0.2560420
SP   3   1.00
      2.6158400             -0.2503740             -0.0145110
      0.9221670              0.0669570              0.3102630
      0.3412870              1.0545100              0.7544830
SP   1   1.00
      0.1171670              1.0000000              1.0000000
D    1   1.00
      1.3000000              1.0000000
D    1   1.00
      0.3250000              1.0000000
F    1   1.00
      0.5500000              1.0000000
****
Cl     0
S    6   1.00
  25180.1000000              0.0018330
   3780.3500000              0.0140340
    860.4740000              0.0690970
    242.1450000              0.2374520
     77.3349000              0.4830340
     26.2470000              0.3398560
SP   6   1.00
    491.7650000             -0.0022974              0.0039894
    116.9840000             -0.0307140              0.0303180
     37.4153000             -0.1125280              0.1298800
     13.7834000              0.0450160              0.3279510
      5.4521500              0.5893530              0.4535270
      2.2258800              0.4652060              0.2521540
SP   3   1.00
      3.1864900             -0.2518300             -0.0142990
      1.1442700              0.0615890              0.3235720
      0.4203770              1.0601800              0.7435070
SP   1   1.00
      0.1426570              1.0000000              1.0000000
D    1   1.00
      1.5000000              1.0000000
D    1   1.00
      0.3750000              1.0000000
F    1   1.00
      0.7000000              1.0000000
****
}

set {
reference uhf
freeze_core true
e_convergence 10
d_convergence 10
dft_spherical_points 1202
dft_radial_points 99
}

e = energy('b3lyp')

print_out('Grab this energy {0}'.format(e))
--------------------------------------------------------------------------

    Molecular point group: c1

    Geometry (in Bohr), charge = 0, multiplicity = 2:

       Center              X                  Y                   Z               Mass
    ------------   -----------------  -----------------  -----------------  -----------------
         C           -0.323340576612    -0.000141855477    -0.001960914538    12.000000000000
         C            0.060497189688    -1.399683558677    -2.425640228638    12.000000000000
         C            0.060923154388     2.801256070723    -0.000784944538    12.000000000000
         C            0.061879905388    -1.401851524977     2.427829520862    12.000000000000
         H            2.082616828688    -1.645644810377    -2.846981062638     1.007825032230
         H           -0.763295410112    -0.387308494577    -4.024320337038     1.007825032230
         H           -0.767957352612    -3.286068172777    -2.346394817638     1.007825032230
         H            2.090975857688     3.287958052123     0.003827604562     1.007825032230
         H           -0.772187084912     3.678228161523     1.677658148362     1.007825032230
         H           -0.763449341612     3.684027990523    -1.683412631138     1.007825032230
         H            2.087073383788    -1.642043729177     2.848355016562     1.007825032230
         H           -0.761158380412    -3.292535783277     2.352697232162     1.007825032230
         H           -0.765182316612    -0.391602005977     4.025197792962     1.007825032230

  Charge       = 0
  Multiplicity = 2
  Basis Set: ANONYMOUS8C88D265
    Blend: 6-31G_2DFP_
  Basis Set: (ANONYMOUS8C88D265 AUX)
    Blend: DEF2-UNIVERSAL-JKFIT

    Orbital Energies [Eh]
    ---------------------

    Alpha Occupied:

       1A    -10.180342     2A    -10.167685     3A    -10.166867
       4A    -10.166491     5A     -0.797768     6A     -0.686538
       7A     -0.685837     8A     -0.530775     9A     -0.441126
      10A     -0.434785    11A     -0.434559    12A     -0.382825
      13A     -0.382373    14A     -0.363611    15A     -0.338149
      16A     -0.337847    17A     -0.168961

    Alpha Virtual:

      18A      0.076071    19A      0.134085    20A      0.134211
      21A      0.142529    22A      0.142738    23A      0.154874
      24A      0.178459    25A      0.179100    26A      0.203547
      27A      0.214805    28A      0.275647    29A      0.276324
      30A      0.399145    31A      0.399299    32A      0.403356
      33A      0.423997    34A      0.424199    35A      0.456593
      36A      0.495302    37A      0.495476    38A      0.512162
      39A      0.513978    40A      0.578583    41A      0.579040
      42A      0.591248    43A      0.592003    44A      0.602594
      45A      0.624766    46A      0.631683    47A      0.635948
      48A      0.636644    49A      0.663140    50A      0.663689
      51A      0.683550    52A      0.684170    53A      0.734995
      54A      0.824998    55A      0.825807    56A      0.853917
      57A      0.914896    58A      0.915159    59A      0.944127
      60A      0.944611    61A      0.961038    62A      0.961558
      63A      1.003456    64A      1.127765    65A      1.128431
      66A      1.142209    67A      1.163146    68A      1.163418
      69A      1.223326    70A      1.274232    71A      1.274742
      72A      1.279359    73A      1.323971    74A      1.324734
      75A      1.355984    76A      1.365654    77A      1.366446
      78A      1.392445    79A      1.403548    80A      1.404546
      81A      1.416704    82A      1.417511    83A      1.427922
      84A      1.491491    85A      1.499088    86A      1.542682
      87A      1.542983    88A      1.574091    89A      1.574807
      90A      1.669804    91A      1.739137    92A      1.739671
      93A      1.768325    94A      1.829798    95A      1.833059
      96A      1.971701    97A      2.017994    98A      2.018965
      99A      2.019403   100A      2.051712   101A      2.053639
     102A      2.738031   103A      2.738935   104A      2.790929
     105A      2.811424   106A      2.889369   107A      2.890442
     108A      2.895031   109A      2.929298   110A      2.929696
     111A      2.959004   112A      2.963789   113A      2.964979
     114A      3.034020   115A      3.070930   116A      3.071632
     117A      3.084378   118A      3.168628   119A      3.168910
     120A      3.180622   121A      3.285238   122A      3.285398
     123A      3.326718   124A      3.327604   125A      3.375611
     126A      3.489289   127A      3.491032   128A      3.514005
     129A      3.525329   130A      3.567558   131A      3.569186
     132A      3.575200   133A      3.665523   134A      3.667130
     135A      3.679666   136A      3.693615   137A      3.694678
     138A      3.775348   139A      3.778239   140A      3.789172
     141A      3.911550   142A      3.912892   143A      4.034434
     144A      4.110046   145A      4.112562   146A      4.145945
     147A      4.150211   148A      4.173318   149A      4.200428
     150A      4.203691   151A      4.204597   152A      4.211181
     153A      4.315092   154A      4.316819   155A      4.358950
     156A      4.423871   157A      4.424940   158A      4.443558
     159A      4.516037   160A      4.517604   161A      4.577496
     162A      4.579062   163A      4.617530   164A      4.709483
     165A      4.774008   166A      4.775226   167A      4.836885
     168A      4.962853   169A      5.002132   170A      5.003827
     171A      5.227824   172A      5.243077   173A      5.250524
     174A      5.352503   175A      5.358711   176A      5.479434

    Beta Occupied:

       1A    -10.168447     2A    -10.167624     3A    -10.167255
       4A    -10.166516     5A     -0.781093     6A     -0.684336
       7A     -0.683644     8A     -0.511746     9A     -0.431169
      10A     -0.430917    11A     -0.421824    12A     -0.376917
      13A     -0.376451    14A     -0.362595    15A     -0.333271
      16A     -0.332970

    Beta Virtual:

      17A     -0.025743    18A      0.077080    19A      0.134949
      20A      0.135128    21A      0.144443    22A      0.144563
      23A      0.163333    24A      0.182139    25A      0.182763
      26A      0.215034    27A      0.218929    28A      0.282005
      29A      0.282662    30A      0.400312    31A      0.400480
      32A      0.419793    33A      0.426800    34A      0.427018
      35A      0.468501    36A      0.497567    37A      0.497733
      38A      0.513897    39A      0.556322    40A      0.584120
      41A      0.584604    42A      0.597461    43A      0.598153
      44A      0.610011    45A      0.628142    46A      0.631883
      47A      0.639208    48A      0.639914    49A      0.666703
      50A      0.667254    51A      0.686220    52A      0.686771
      53A      0.757517    54A      0.830141    55A      0.831001
      56A      0.855271    57A      0.922864    58A      0.923133
      59A      0.945964    60A      0.953539    61A      0.966366
      62A      0.966843    63A      1.008695    64A      1.131769
      65A      1.132487    66A      1.155580    67A      1.168256
      68A      1.168458    69A      1.232299    70A      1.279824
      71A      1.280341    72A      1.285116    73A      1.328920
      74A      1.329765    75A      1.365392    76A      1.370939
      77A      1.371653    78A      1.393504    79A      1.406981
      80A      1.408041    81A      1.421721    82A      1.422594
      83A      1.428194    84A      1.492540    85A      1.509531
      86A      1.547089    87A      1.547390    88A      1.581994
      89A      1.582648    90A      1.674650    91A      1.744890
      92A      1.745446    93A      1.779101    94A      1.833680
      95A      1.836888    96A      1.972565    97A      2.025360
      98A      2.025492    99A      2.039673   100A      2.058466
     101A      2.060327   102A      2.746350   103A      2.747288
     104A      2.811836   105A      2.816063   106A      2.902208
     107A      2.903048   108A      2.924644   109A      2.931813
     110A      2.932167   111A      2.960068   112A      2.968306
     113A      2.969552   114A      3.041954   115A      3.080832
     116A      3.081510   117A      3.086236   118A      3.184276
     119A      3.184683   120A      3.188382   121A      3.290013
     122A      3.290221   123A      3.330531   124A      3.331399
     125A      3.383430   126A      3.492044   127A      3.493738
     128A      3.512373   129A      3.528376   130A      3.574946
     131A      3.580943   132A      3.582585   133A      3.670265
     134A      3.671916   135A      3.692973   136A      3.725279
     137A      3.726234   138A      3.779937   139A      3.782730
     140A      3.817691   141A      3.921409   142A      3.922669
     143A      4.045316   144A      4.116971   145A      4.119245
     146A      4.153394   147A      4.157216   148A      4.187369
     149A      4.207025   150A      4.209729   151A      4.211793
     152A      4.215671   153A      4.322602   154A      4.324184
     155A      4.362316   156A      4.432114   157A      4.433072
     158A      4.446498   159A      4.523854   160A      4.525368
     161A      4.588116   162A      4.589640   163A      4.624725
     164A      4.719828   165A      4.780992   166A      4.782149
     167A      4.839802   168A      4.967648   169A      5.006168
     170A      5.007869   171A      5.233536   172A      5.244864
     173A      5.252314   174A      5.358986   175A      5.365185
     176A      5.481755

    Final Occupation by Irrep:
              A
    DOCC [    16 ]
    SOCC [     1 ]

  @DF-UKS Final Energy:  -157.81305329395173

   => Energetics <=

    Nuclear Repulsion Energy =            125.3946844185367553
    One-Electron Energy =                -458.7489901180503011
    Two-Electron Energy =                 195.8484013271709330
    DFT Exchange-Correlation Energy =     -20.3071489216091372
    Empirical Dispersion Energy =           0.0000000000000000
    VV10 Nonlocal Energy =                  0.0000000000000000
    Total Energy =                       -157.8130532939517252

  UHF NO Occupations:
  HONO-2 :   15  A 1.9996009
  HONO-1 :   16  A 1.9989805
  HONO-0 :   17  A 1.0000000
  LUNO+0 :   18  A 0.0010195
  LUNO+1 :   19  A 0.0003991
  LUNO+2 :   20  A 0.0001981
  LUNO+3 :   21  A 0.0001970

Computation Completed

Properties will be evaluated at   0.000000,   0.000000,   0.000000 [a0]

Properties computed using the SCF density matrix

  Nuclear Dipole Moment: [e a0]
     X:     0.8272      Y:     0.0025      Z:     0.0033

  Electronic Dipole Moment: [e a0]
     X:    -0.7493      Y:    -0.0049      Z:    -0.0033

  Dipole Moment: [e a0]
     X:     0.0779      Y:    -0.0025      Z:     0.0000     Total:     0.0780

  Dipole Moment: [D]
     X:     0.1980      Y:    -0.0062      Z:     0.0001     Total:     0.1981

*** tstop() called on n079 at Fri Nov  5 15:13:24 2021
Module time:
	user time   =     498.14 seconds =       8.30 minutes
	system time =       4.57 seconds =       0.08 minutes
	total time  =        127 seconds =       2.12 minutes
Total time:
	user time   =     498.14 seconds =       8.30 minutes
	system time =       4.57 seconds =       0.08 minutes
	total time  =        127 seconds =       2.12 minutes
Grab this energy -157.81305329395173
    Psi4 stopped on: Friday, 05 November 2021 03:13PM
    Psi4 wall time for execution: 0:02:06.40

*** Psi4 exiting successfully. Buy a developer a beer!
