                               Psi4 1.4a2.dev629

  ==> Input File <==

--------------------------------------------------------------------------
import os
memory 14 GB

molecule {
 C   -0.3243659076   -0.0000032019   -0.0024285990
 C    0.0593904179   -1.3998703803   -2.4258873587
 C    0.0599591687    2.8019121245   -0.0012517201
 C    0.0607683212   -1.4020398469    2.4271413854
 H    2.0880209249   -1.6461155367   -2.8475840490
 H   -0.7654134719   -0.3879812895   -4.0241170603
 H   -0.7699193770   -3.2865996865   -2.3472622717
 H    2.0901049701    3.2885194086    0.0033634374
 H   -0.7709508322    3.6771089378    1.6708014464
 H   -0.7622454157    3.6828919215   -1.6774834810
 H    2.0924731858   -1.6424961309    2.8480214672
 H   -0.7631236167   -3.2930703200    2.3526285633
 H   -0.7673062441   -0.3922803132    4.0240582401
units bohr
0 2
}

basis {

assign 6-31g_2dfp_

[ 6-31g_2dfp_ ]

spherical

!----------------------------------------------------------------------
! Basis Set Exchange
! Version v0.8.13
! https://www.basissetexchange.org
!----------------------------------------------------------------------
!   Basis set: 6-31G(2df,p)
! Description: 6-31G(2df,p)
!        Role: orbital
!     Version: 0  (Data from the original Basis Set Exchange)
!----------------------------------------------------------------------

****
H     0
S    3   1.00
     18.7311370              0.03349460
      2.8253937              0.23472695
      0.6401217              0.81375733
S    1   1.00
      0.1612778              1.00000000
P    1   1.00
      1.5000000              1.0000000
P    1   1.00
      0.3750000              1.0000000
****
B     0
S    6   1.00
   2068.8823000              0.0018663
    310.6495700              0.0142515
     70.6830330              0.0695516
     19.8610800              0.2325729
      6.2993048              0.4670787
      2.1270270              0.3634314
SP   3   1.00
      4.7279710             -0.1303938              0.0745976
      1.1903377             -0.1307889              0.3078467
      0.3594117              1.1309444              0.7434568
SP   1   1.00
      0.1267512              1.0000000              1.0000000
D    1   1.00
      0.8020000              1.0000000
D    1   1.00
      0.2005000              1.0000000
F    1   1.00
      0.5000000              1.0000000
****
C     0
S    6   1.00
   3047.5249000              0.0018347
    457.3695100              0.0140373
    103.9486900              0.0688426
     29.2101550              0.2321844
      9.2866630              0.4679413
      3.1639270              0.3623120
SP   3   1.00
      7.8682724             -0.1193324              0.0689991
      1.8812885             -0.1608542              0.3164240
      0.5442493              1.1434564              0.7443083
SP   1   1.00
      0.1687144              1.0000000              1.0000000
D    1   1.00
      1.2520000              1.0000000
D    1   1.00
      0.3130000              1.0000000
F    1   1.00
      0.8000000              1.0000000
****
N     0
S    6   1.00
   4173.5110000              0.0018348
    627.4579000              0.0139950
    142.9021000              0.0685870
     40.2343300              0.2322410
     12.8202100              0.4690700
      4.3904370              0.3604550
SP   3   1.00
     11.6263580             -0.1149610              0.0675800
      2.7162800             -0.1691180              0.3239070
      0.7722180              1.1458520              0.7408950
SP   1   1.00
      0.2120313              1.0000000              1.0000000
D    1   1.00
      1.8260000              1.0000000
D    1   1.00
      0.4565000              1.0000000
F    1   1.00
      1.0000000              1.0000000
****
O     0
S    6   1.00
   5484.6717000              0.0018311
    825.2349500              0.0139501
    188.0469600              0.0684451
     52.9645000              0.2327143
     16.8975700              0.4701930
      5.7996353              0.3585209
SP   3   1.00
     15.5396160             -0.1107775              0.0708743
      3.5999336             -0.1480263              0.3397528
      1.0137618              1.1307670              0.7271586
SP   1   1.00
      0.2700058              1.0000000              1.0000000
D    1   1.00
      2.5840000              1.0000000
D    1   1.00
      0.6460000              1.0000000
F    1   1.00
      1.4000000              1.0000000
****
F     0
S    6   1.00
   7001.7130900              0.0018196169
   1051.3660900              0.0139160796
    239.2856900              0.0684053245
     67.3974453              0.233185760
     21.5199573              0.471267439
      7.40310130             0.356618546
SP   3   1.00
     20.8479528             -0.108506975            0.0716287243
      4.80830834            -0.146451658            0.3459121030
      1.34406986             1.128688580            0.7224699570
SP   1   1.00
      0.358151393            1.0000000              1.0000000
D    1   1.00
      3.5000000              1.0000000
D    1   1.00
      0.8750000              1.0000000
F    1   1.00
      1.8500000              1.0000000
****
Al     0
S    6   1.00
  13983.1000000              0.00194267
   2098.7500000              0.0148599
    477.7050000              0.0728494
    134.3600000              0.2468300
     42.8709000              0.4872580
     14.5189000              0.3234960
SP   6   1.00
    239.6680000             -0.00292619             0.00460285
     57.4419000             -0.0374080              0.0331990
     18.2859000             -0.1144870              0.1362820
      6.5991400              0.1156350              0.3304760
      2.4904900              0.6125950              0.4491460
      0.9445400              0.3937990              0.2657040
SP   3   1.00
      1.2779000             -0.2276060             -0.0175130
      0.3975900              0.00144583             0.2445330
      0.1600950              1.0927900              0.8049340
SP   1   1.00
      0.0556577              1.0000000              1.0000000
D    1   1.00
      0.6500000              1.0000000
D    1   1.00
      0.1625000              1.0000000
F    1   1.00
      0.2500000              1.0000000
****
Si     0
S    6   1.00
  16115.9000000              0.00195948
   2425.5800000              0.01492880
    553.8670000              0.07284780
    156.3400000              0.24613000
     50.0683000              0.48591400
     17.0178000              0.32500200
SP   6   1.00
    292.7180000             -0.00278094             0.00443826
     69.8731000             -0.03571460             0.03266790
     22.3363000             -0.11498500             0.13472100
      8.1503900              0.09356340             0.32867800
      3.1345800              0.60301700             0.44964000
      1.2254300              0.41895900             0.26137200
SP   3   1.00
      1.7273800             -0.24463000            -0.01779510
      0.5729220              0.00431572             0.25353900
      0.2221920              1.09818000             0.80066900
SP   1   1.00
      0.0778369              1.00000000             1.00000000
D    1   1.00
      0.9000000              1.0000000
D    1   1.00
      0.2250000              1.0000000
F    1   1.00
      0.3200000              1.0000000
****
P     0
S    6   1.00
  19413.3000000              0.0018516
   2909.4200000              0.0142062
    661.3640000              0.0699995
    185.7590000              0.2400790
     59.1943000              0.4847620
     20.0310000              0.3352000
SP   6   1.00
    339.4780000             -0.00278217             0.00456462
     81.0101000             -0.0360499              0.03369360
     25.8780000             -0.1166310              0.13975500
      9.4522100              0.0968328              0.33936200
      3.6656600              0.6144180              0.45092100
      1.4674600              0.4037980              0.23858600
SP   3   1.00
      2.1562300             -0.2529230             -0.01776530
      0.7489970              0.0328517              0.27405800
      0.2831450              1.0812500              0.78542100
SP   1   1.00
      0.0998317              1.0000000              1.00000000
D    1   1.00
      1.1000000              1.0000000
D    1   1.00
      0.2750000              1.0000000
F    1   1.00
      0.4500000              1.0000000
****
S     0
S    6   1.00
  21917.1000000              0.0018690
   3301.4900000              0.0142300
    754.1460000              0.0696960
    212.7110000              0.2384870
     67.9896000              0.4833070
     23.0515000              0.3380740
SP   6   1.00
    423.7350000             -0.0023767              0.0040610
    100.7100000             -0.0316930              0.0306810
     32.1599000             -0.1133170              0.1304520
     11.8079000              0.0560900              0.3272050
      4.6311000              0.5922550              0.4528510
      1.8702500              0.4550060              0.2560420
SP   3   1.00
      2.6158400             -0.2503740             -0.0145110
      0.9221670              0.0669570              0.3102630
      0.3412870              1.0545100              0.7544830
SP   1   1.00
      0.1171670              1.0000000              1.0000000
D    1   1.00
      1.3000000              1.0000000
D    1   1.00
      0.3250000              1.0000000
F    1   1.00
      0.5500000              1.0000000
****
Cl     0
S    6   1.00
  25180.1000000              0.0018330
   3780.3500000              0.0140340
    860.4740000              0.0690970
    242.1450000              0.2374520
     77.3349000              0.4830340
     26.2470000              0.3398560
SP   6   1.00
    491.7650000             -0.0022974              0.0039894
    116.9840000             -0.0307140              0.0303180
     37.4153000             -0.1125280              0.1298800
     13.7834000              0.0450160              0.3279510
      5.4521500              0.5893530              0.4535270
      2.2258800              0.4652060              0.2521540
SP   3   1.00
      3.1864900             -0.2518300             -0.0142990
      1.1442700              0.0615890              0.3235720
      0.4203770              1.0601800              0.7435070
SP   1   1.00
      0.1426570              1.0000000              1.0000000
D    1   1.00
      1.5000000              1.0000000
D    1   1.00
      0.3750000              1.0000000
F    1   1.00
      0.7000000              1.0000000
****
}

set {
reference uhf
freeze_core true
e_convergence 10
d_convergence 10
dft_spherical_points 1202
dft_radial_points 99
}

e = energy('b3lyp')

print_out('Grab this energy {0}'.format(e))
--------------------------------------------------------------------------

    Molecular point group: c1

    Geometry (in Bohr), charge = 0, multiplicity = 2:

       Center              X                  Y                   Z               Mass
    ------------   -----------------  -----------------  -----------------  -----------------
         C           -0.323555413613    -0.000002521265    -0.001961277608    12.000000000000
         C            0.060200911887    -1.399869699665    -2.425420037308    12.000000000000
         C            0.060769662687     2.801912805135    -0.000784398708    12.000000000000
         C            0.061578815187    -1.402039166265     2.427608706792    12.000000000000
         H            2.088831418887    -1.646114856065    -2.847116727608     1.007825032230
         H           -0.764602977913    -0.387980608865    -4.023649738908     1.007825032230
         H           -0.769108883013    -3.286599005865    -2.346794950308     1.007825032230
         H            2.090915464087     3.288520089235     0.003830758792     1.007825032230
         H           -0.770140338213     3.677109618435     1.671268767792     1.007825032230
         H           -0.761434921713     3.682892602135    -1.677016159608     1.007825032230
         H            2.093283679787    -1.642495450265     2.848488788592     1.007825032230
         H           -0.762313122713    -3.293069639365     2.353095884692     1.007825032230
         H           -0.766495750113    -0.392279632565     4.024525561492     1.007825032230

  Charge       = 0
  Multiplicity = 2
  Basis Set: ANONYMOUS55F028A1
    Blend: 6-31G_2DFP_
  Basis Set: (ANONYMOUS55F028A1 AUX)
    Blend: DEF2-UNIVERSAL-JKFIT

    Orbital Energies [Eh]
    ---------------------

    Alpha Occupied:

       1A    -10.180401     2A    -10.167207     3A    -10.167018
       4A    -10.166829     5A     -0.797730     6A     -0.686325
       7A     -0.686040     8A     -0.530769     9A     -0.441026
      10A     -0.434790    11A     -0.434644    12A     -0.382507
      13A     -0.382415    14A     -0.363789    15A     -0.338201
      16A     -0.337903    17A     -0.168998

    Alpha Virtual:

      18A      0.076157    19A      0.134085    20A      0.134210
      21A      0.142691    22A      0.142712    23A      0.154712
      24A      0.178600    25A      0.178607    26A      0.203505
      27A      0.215075    28A      0.275625    29A      0.276297
      30A      0.399095    31A      0.399110    32A      0.403268
      33A      0.424253    34A      0.424320    35A      0.456519
      36A      0.495519    37A      0.495619    38A      0.512042
      39A      0.513825    40A      0.578462    41A      0.578820
      42A      0.591136    43A      0.591607    44A      0.601821
      45A      0.625274    46A      0.632159    47A      0.636535
      48A      0.636711    49A      0.662723    50A      0.663131
      51A      0.684083    52A      0.684123    53A      0.735057
      54A      0.825342    55A      0.825404    56A      0.853637
      57A      0.914671    58A      0.914937    59A      0.944411
      60A      0.944753    61A      0.961157    62A      0.961237
      63A      1.003267    64A      1.128311    65A      1.128387
      66A      1.141491    67A      1.163424    68A      1.163674
      69A      1.223740    70A      1.274065    71A      1.274435
      72A      1.279197    73A      1.324018    74A      1.324263
      75A      1.356515    76A      1.365670    77A      1.366267
      78A      1.392392    79A      1.402722    80A      1.403325
      81A      1.417818    82A      1.418371    83A      1.427704
      84A      1.491482    85A      1.498156    86A      1.542323
      87A      1.542605    88A      1.574587    89A      1.575034
      90A      1.671093    91A      1.738315    92A      1.738838
      93A      1.766456    94A      1.832371    95A      1.833211
      96A      1.972745    97A      2.018126    98A      2.018964
      99A      2.019153   100A      2.050501   101A      2.052332
     102A      2.738747   103A      2.738856   104A      2.790538
     105A      2.811877   106A      2.889135   107A      2.889971
     108A      2.894654   109A      2.929533   110A      2.929878
     111A      2.958863   112A      2.963700   113A      2.964219
     114A      3.033319   115A      3.070961   116A      3.071548
     117A      3.085755   118A      3.168585   119A      3.168704
     120A      3.180568   121A      3.285175   122A      3.285266
     123A      3.327347   124A      3.328233   125A      3.375785
     126A      3.489713   127A      3.490161   128A      3.512791
     129A      3.526519   130A      3.567162   131A      3.568822
     132A      3.574322   133A      3.665795   134A      3.666191
     135A      3.680276   136A      3.693990   137A      3.694651
     138A      3.775870   139A      3.778529   140A      3.788387
     141A      3.912305   142A      3.913279   143A      4.034873
     144A      4.110295   145A      4.112340   146A      4.146961
     147A      4.148051   148A      4.171469   149A      4.202575
     150A      4.203492   151A      4.204425   152A      4.209690
     153A      4.315029   154A      4.316035   155A      4.360218
     156A      4.423233   157A      4.424219   158A      4.443688
     159A      4.515418   160A      4.516949   161A      4.578292
     162A      4.579621   163A      4.617392   164A      4.708935
     165A      4.774120   166A      4.775376   167A      4.838270
     168A      4.963157   169A      5.001031   170A      5.002271
     171A      5.225314   172A      5.249697   173A      5.249930
     174A      5.352608   175A      5.354512   176A      5.481311

    Beta Occupied:

       1A    -10.167965     2A    -10.167779     3A    -10.167594
       4A    -10.166583     5A     -0.781062     6A     -0.684128
       7A     -0.683866     8A     -0.511789     9A     -0.431191
      10A     -0.431032    11A     -0.421665    12A     -0.376556
      13A     -0.376488    14A     -0.362782    15A     -0.333321
      16A     -0.333022

    Beta Virtual:

      17A     -0.025872    18A      0.077183    19A      0.135043
      20A      0.135176    21A      0.144525    22A      0.144567
      23A      0.163190    24A      0.182242    25A      0.182251
      26A      0.215298    27A      0.218886    28A      0.281988
      29A      0.282638    30A      0.400277    31A      0.400280
      32A      0.419801    33A      0.427051    34A      0.427144
      35A      0.468328    36A      0.497796    37A      0.497882
      38A      0.513785    39A      0.556131    40A      0.584028
      41A      0.584411    42A      0.597327    43A      0.597757
      44A      0.609366    45A      0.628526    46A      0.632316
      47A      0.639762    48A      0.639979    49A      0.666328
      50A      0.666714    51A      0.686718    52A      0.686735
      53A      0.757576    54A      0.830560    55A      0.830567
      56A      0.854999    57A      0.922656    58A      0.922930
      59A      0.946239    60A      0.953731    61A      0.966401
      62A      0.966538    63A      1.008467    64A      1.132324
      65A      1.132506    66A      1.154944    67A      1.168537
      68A      1.168660    69A      1.232697    70A      1.279633
      71A      1.280013    72A      1.284898    73A      1.329067
      74A      1.329287    75A      1.365912    76A      1.371024
      77A      1.371543    78A      1.393466    79A      1.406103
      80A      1.406758    81A      1.422840    82A      1.423380
      83A      1.427983    84A      1.492504    85A      1.508608
      86A      1.546792    87A      1.547014    88A      1.582485
      89A      1.582847    90A      1.675991    91A      1.744057
      92A      1.744608    93A      1.777225    94A      1.836221
      95A      1.837074    96A      1.973591    97A      2.025136
      98A      2.025401    99A      2.039583   100A      2.057383
     101A      2.059138   102A      2.747065   103A      2.747228
     104A      2.812292   105A      2.815635   106A      2.901876
     107A      2.902601   108A      2.924099   109A      2.932026
     110A      2.932367   111A      2.959922   112A      2.968224
     113A      2.968714   114A      3.041469   115A      3.080900
     116A      3.081404   117A      3.087571   118A      3.184248
     119A      3.184519   120A      3.188287   121A      3.290003
     122A      3.290097   123A      3.331123   124A      3.331995
     125A      3.383578   126A      3.492382   127A      3.492872
     128A      3.511158   129A      3.529552   130A      3.574162
     131A      3.580707   132A      3.582307   133A      3.670583
     134A      3.670738   135A      3.693530   136A      3.725762
     137A      3.726125   138A      3.780389   139A      3.782965
     140A      3.816929   141A      3.922222   142A      3.923110
     143A      4.045822   144A      4.117115   145A      4.119158
     146A      4.154229   147A      4.155184   148A      4.185552
     149A      4.209401   150A      4.210269   151A      4.210837
     152A      4.214294   153A      4.322371   154A      4.323444
     155A      4.363535   156A      4.431464   157A      4.432409
     158A      4.446526   159A      4.523251   160A      4.524763
     161A      4.588846   162A      4.590183   163A      4.624497
     164A      4.719396   165A      4.781064   166A      4.782241
     167A      4.841176   168A      4.967964   169A      5.005078
     170A      5.006355   171A      5.230994   172A      5.251456
     173A      5.251712   174A      5.359039   175A      5.360986
     176A      5.483620

    Final Occupation by Irrep:
              A
    DOCC [    16 ]
    SOCC [     1 ]

  @DF-UKS Final Energy:  -157.81305586930353

   => Energetics <=

    Nuclear Repulsion Energy =            125.3893119720334539
    One-Electron Energy =                -458.7382222454160683
    Two-Electron Energy =                 195.8428925118233224
    DFT Exchange-Correlation Energy =     -20.3070381077442406
    Empirical Dispersion Energy =           0.0000000000000000
    VV10 Nonlocal Energy =                  0.0000000000000000
    Total Energy =                       -157.8130558693035255

  UHF NO Occupations:
  HONO-2 :   15  A 1.9995985
  HONO-1 :   16  A 1.9989796
  HONO-0 :   17  A 1.0000000
  LUNO+0 :   18  A 0.0010204
  LUNO+1 :   19  A 0.0004015
  LUNO+2 :   20  A 0.0001981
  LUNO+3 :   21  A 0.0001970

Computation Completed

Properties will be evaluated at   0.000000,   0.000000,   0.000000 [a0]

Properties computed using the SCF density matrix

  Nuclear Dipole Moment: [e a0]
     X:     0.8329      Y:    -0.0000      Z:     0.0033

  Electronic Dipole Moment: [e a0]
     X:    -0.7582      Y:     0.0000      Z:    -0.0033

  Dipole Moment: [e a0]
     X:     0.0747      Y:     0.0000      Z:     0.0000     Total:     0.0747

  Dipole Moment: [D]
     X:     0.1899      Y:     0.0000      Z:     0.0001     Total:     0.1899

*** tstop() called on n031 at Fri Nov  5 14:54:07 2021
Module time:
	user time   =     835.45 seconds =      13.92 minutes
	system time =      16.64 seconds =       0.28 minutes
	total time  =        214 seconds =       3.57 minutes
Total time:
	user time   =     835.45 seconds =      13.92 minutes
	system time =      16.64 seconds =       0.28 minutes
	total time  =        214 seconds =       3.57 minutes
Grab this energy -157.81305586930353
    Psi4 stopped on: Friday, 05 November 2021 02:54PM
    Psi4 wall time for execution: 0:03:33.95

*** Psi4 exiting successfully. Buy a developer a beer!
