                               Psi4 1.4a2.dev629

  ==> Input File <==

--------------------------------------------------------------------------
import os
memory 14 GB

molecule {
 C   -0.3233392689    0.0009281307    0.0000000000
 C    0.0616753544   -1.3995499363   -2.4271526189
 C    0.0599530985    2.8017502715    0.0000000000
 C    0.0616753544   -1.3995499363    2.4271526189
 H    2.0853337518   -1.6414587951   -2.8492401475
 H   -0.7608151078   -0.3887172483   -4.0238809925
 H   -0.7686037260   -3.2955911888   -2.3483340242
 H    2.0900109605    3.2876217160   -0.0000000000
 H   -0.7672066059    3.6801549526    1.6742900485
 H   -0.7672066059    3.6801549526   -1.6742900485
 H    2.0853337518   -1.6414587951    2.8492401475
 H   -0.7686037260   -3.2955911888    2.3483340242
 H   -0.7608151078   -0.3887172483    4.0238809925
units bohr
0 2
}

basis {

assign 6-31g_2dfp_

[ 6-31g_2dfp_ ]

spherical

!----------------------------------------------------------------------
! Basis Set Exchange
! Version v0.8.13
! https://www.basissetexchange.org
!----------------------------------------------------------------------
!   Basis set: 6-31G(2df,p)
! Description: 6-31G(2df,p)
!        Role: orbital
!     Version: 0  (Data from the original Basis Set Exchange)
!----------------------------------------------------------------------

****
H     0
S    3   1.00
     18.7311370              0.03349460
      2.8253937              0.23472695
      0.6401217              0.81375733
S    1   1.00
      0.1612778              1.00000000
P    1   1.00
      1.5000000              1.0000000
P    1   1.00
      0.3750000              1.0000000
****
B     0
S    6   1.00
   2068.8823000              0.0018663
    310.6495700              0.0142515
     70.6830330              0.0695516
     19.8610800              0.2325729
      6.2993048              0.4670787
      2.1270270              0.3634314
SP   3   1.00
      4.7279710             -0.1303938              0.0745976
      1.1903377             -0.1307889              0.3078467
      0.3594117              1.1309444              0.7434568
SP   1   1.00
      0.1267512              1.0000000              1.0000000
D    1   1.00
      0.8020000              1.0000000
D    1   1.00
      0.2005000              1.0000000
F    1   1.00
      0.5000000              1.0000000
****
C     0
S    6   1.00
   3047.5249000              0.0018347
    457.3695100              0.0140373
    103.9486900              0.0688426
     29.2101550              0.2321844
      9.2866630              0.4679413
      3.1639270              0.3623120
SP   3   1.00
      7.8682724             -0.1193324              0.0689991
      1.8812885             -0.1608542              0.3164240
      0.5442493              1.1434564              0.7443083
SP   1   1.00
      0.1687144              1.0000000              1.0000000
D    1   1.00
      1.2520000              1.0000000
D    1   1.00
      0.3130000              1.0000000
F    1   1.00
      0.8000000              1.0000000
****
N     0
S    6   1.00
   4173.5110000              0.0018348
    627.4579000              0.0139950
    142.9021000              0.0685870
     40.2343300              0.2322410
     12.8202100              0.4690700
      4.3904370              0.3604550
SP   3   1.00
     11.6263580             -0.1149610              0.0675800
      2.7162800             -0.1691180              0.3239070
      0.7722180              1.1458520              0.7408950
SP   1   1.00
      0.2120313              1.0000000              1.0000000
D    1   1.00
      1.8260000              1.0000000
D    1   1.00
      0.4565000              1.0000000
F    1   1.00
      1.0000000              1.0000000
****
O     0
S    6   1.00
   5484.6717000              0.0018311
    825.2349500              0.0139501
    188.0469600              0.0684451
     52.9645000              0.2327143
     16.8975700              0.4701930
      5.7996353              0.3585209
SP   3   1.00
     15.5396160             -0.1107775              0.0708743
      3.5999336             -0.1480263              0.3397528
      1.0137618              1.1307670              0.7271586
SP   1   1.00
      0.2700058              1.0000000              1.0000000
D    1   1.00
      2.5840000              1.0000000
D    1   1.00
      0.6460000              1.0000000
F    1   1.00
      1.4000000              1.0000000
****
F     0
S    6   1.00
   7001.7130900              0.0018196169
   1051.3660900              0.0139160796
    239.2856900              0.0684053245
     67.3974453              0.233185760
     21.5199573              0.471267439
      7.40310130             0.356618546
SP   3   1.00
     20.8479528             -0.108506975            0.0716287243
      4.80830834            -0.146451658            0.3459121030
      1.34406986             1.128688580            0.7224699570
SP   1   1.00
      0.358151393            1.0000000              1.0000000
D    1   1.00
      3.5000000              1.0000000
D    1   1.00
      0.8750000              1.0000000
F    1   1.00
      1.8500000              1.0000000
****
Al     0
S    6   1.00
  13983.1000000              0.00194267
   2098.7500000              0.0148599
    477.7050000              0.0728494
    134.3600000              0.2468300
     42.8709000              0.4872580
     14.5189000              0.3234960
SP   6   1.00
    239.6680000             -0.00292619             0.00460285
     57.4419000             -0.0374080              0.0331990
     18.2859000             -0.1144870              0.1362820
      6.5991400              0.1156350              0.3304760
      2.4904900              0.6125950              0.4491460
      0.9445400              0.3937990              0.2657040
SP   3   1.00
      1.2779000             -0.2276060             -0.0175130
      0.3975900              0.00144583             0.2445330
      0.1600950              1.0927900              0.8049340
SP   1   1.00
      0.0556577              1.0000000              1.0000000
D    1   1.00
      0.6500000              1.0000000
D    1   1.00
      0.1625000              1.0000000
F    1   1.00
      0.2500000              1.0000000
****
Si     0
S    6   1.00
  16115.9000000              0.00195948
   2425.5800000              0.01492880
    553.8670000              0.07284780
    156.3400000              0.24613000
     50.0683000              0.48591400
     17.0178000              0.32500200
SP   6   1.00
    292.7180000             -0.00278094             0.00443826
     69.8731000             -0.03571460             0.03266790
     22.3363000             -0.11498500             0.13472100
      8.1503900              0.09356340             0.32867800
      3.1345800              0.60301700             0.44964000
      1.2254300              0.41895900             0.26137200
SP   3   1.00
      1.7273800             -0.24463000            -0.01779510
      0.5729220              0.00431572             0.25353900
      0.2221920              1.09818000             0.80066900
SP   1   1.00
      0.0778369              1.00000000             1.00000000
D    1   1.00
      0.9000000              1.0000000
D    1   1.00
      0.2250000              1.0000000
F    1   1.00
      0.3200000              1.0000000
****
P     0
S    6   1.00
  19413.3000000              0.0018516
   2909.4200000              0.0142062
    661.3640000              0.0699995
    185.7590000              0.2400790
     59.1943000              0.4847620
     20.0310000              0.3352000
SP   6   1.00
    339.4780000             -0.00278217             0.00456462
     81.0101000             -0.0360499              0.03369360
     25.8780000             -0.1166310              0.13975500
      9.4522100              0.0968328              0.33936200
      3.6656600              0.6144180              0.45092100
      1.4674600              0.4037980              0.23858600
SP   3   1.00
      2.1562300             -0.2529230             -0.01776530
      0.7489970              0.0328517              0.27405800
      0.2831450              1.0812500              0.78542100
SP   1   1.00
      0.0998317              1.0000000              1.00000000
D    1   1.00
      1.1000000              1.0000000
D    1   1.00
      0.2750000              1.0000000
F    1   1.00
      0.4500000              1.0000000
****
S     0
S    6   1.00
  21917.1000000              0.0018690
   3301.4900000              0.0142300
    754.1460000              0.0696960
    212.7110000              0.2384870
     67.9896000              0.4833070
     23.0515000              0.3380740
SP   6   1.00
    423.7350000             -0.0023767              0.0040610
    100.7100000             -0.0316930              0.0306810
     32.1599000             -0.1133170              0.1304520
     11.8079000              0.0560900              0.3272050
      4.6311000              0.5922550              0.4528510
      1.8702500              0.4550060              0.2560420
SP   3   1.00
      2.6158400             -0.2503740             -0.0145110
      0.9221670              0.0669570              0.3102630
      0.3412870              1.0545100              0.7544830
SP   1   1.00
      0.1171670              1.0000000              1.0000000
D    1   1.00
      1.3000000              1.0000000
D    1   1.00
      0.3250000              1.0000000
F    1   1.00
      0.5500000              1.0000000
****
Cl     0
S    6   1.00
  25180.1000000              0.0018330
   3780.3500000              0.0140340
    860.4740000              0.0690970
    242.1450000              0.2374520
     77.3349000              0.4830340
     26.2470000              0.3398560
SP   6   1.00
    491.7650000             -0.0022974              0.0039894
    116.9840000             -0.0307140              0.0303180
     37.4153000             -0.1125280              0.1298800
     13.7834000              0.0450160              0.3279510
      5.4521500              0.5893530              0.4535270
      2.2258800              0.4652060              0.2521540
SP   3   1.00
      3.1864900             -0.2518300             -0.0142990
      1.1442700              0.0615890              0.3235720
      0.4203770              1.0601800              0.7435070
SP   1   1.00
      0.1426570              1.0000000              1.0000000
D    1   1.00
      1.5000000              1.0000000
D    1   1.00
      0.3750000              1.0000000
F    1   1.00
      0.7000000              1.0000000
****
}

set {
reference uhf
freeze_core true
e_convergence 10
d_convergence 10
dft_spherical_points 1202
dft_radial_points 99
}

e = energy('b3lyp')

print_out('Grab this energy {0}'.format(e))
--------------------------------------------------------------------------

    Molecular point group: cs

    Geometry (in Bohr), charge = 0, multiplicity = 2:

       Center              X                  Y                   Z               Mass
    ------------   -----------------  -----------------  -----------------  -----------------
         C           -0.323340140106     0.000239309486     0.000000000000    12.000000000000
         C            0.061674483194    -1.400238757514    -2.427152618900    12.000000000000
         C            0.059952227294     2.801061450286     0.000000000000    12.000000000000
         C            0.061674483194    -1.400238757514     2.427152618900    12.000000000000
         H            2.085332880594    -1.642147616314    -2.849240147500     1.007825032230
         H           -0.760815979006    -0.389406069514    -4.023880992500     1.007825032230
         H           -0.768604597206    -3.296280010014    -2.348334024200     1.007825032230
         H            2.090010089294     3.286932894786     0.000000000000     1.007825032230
         H           -0.767207477106     3.679466131386     1.674290048500     1.007825032230
         H           -0.767207477106     3.679466131386    -1.674290048500     1.007825032230
         H            2.085332880594    -1.642147616314     2.849240147500     1.007825032230
         H           -0.768604597206    -3.296280010014     2.348334024200     1.007825032230
         H           -0.760815979006    -0.389406069514     4.023880992500     1.007825032230

  Charge       = 0
  Multiplicity = 2
  Basis Set: ANONYMOUSEBD7A72B
    Blend: 6-31G_2DFP_
  Basis Set: (ANONYMOUSEBD7A72B AUX)
    Blend: DEF2-UNIVERSAL-JKFIT

    Orbital Energies [Eh]
    ---------------------

    Alpha Occupied:

       1Ap   -10.180342     2Ap   -10.167055     1App  -10.167013
       3Ap   -10.166976     4Ap    -0.797767     2App   -0.686250
       5Ap    -0.686128     6Ap    -0.530780     7Ap    -0.441124
       8Ap    -0.434835     3App   -0.434508     4App   -0.382599
       9Ap    -0.382598     5App   -0.363611     6App   -0.338128
      10Ap    -0.337869    11Ap    -0.168961

    Alpha Virtual:

      12Ap     0.076069    13Ap     0.133869     7App    0.134434
       8App    0.142483    14Ap     0.142771    15Ap     0.154882
       9App    0.178769    16Ap     0.178790    17Ap     0.203547
      10App    0.214804    11App    0.275801    18Ap     0.276172
      19Ap     0.399012    12App    0.399442    20Ap     0.403343
      21Ap     0.423851    13App    0.424344    22Ap     0.456593
      14App    0.495296    23Ap     0.495480    15App    0.512161
      24Ap     0.513981    25Ap     0.578695    16App    0.578937
      26Ap     0.591620    17App    0.591639    27Ap     0.602577
      28Ap     0.624707    18App    0.631729    19App    0.636107
      29Ap     0.636486    30Ap     0.663256    20App    0.663578
      31Ap     0.683837    21App    0.683894    32Ap     0.734995
      22App    0.825132    33Ap     0.825677    23App    0.853918
      34Ap     0.914597    24App    0.915451    25App    0.944128
      35Ap     0.944595    36Ap     0.961105    26App    0.961497
      37Ap     1.003457    38Ap     1.127771    27App    1.128453
      39Ap     1.142206    40Ap     1.163090    28App    1.163460
      41Ap     1.223330    29App    1.274390    42Ap     1.274580
      43Ap     1.279357    30App    1.324177    44Ap     1.324515
      45Ap     1.355962    31App    1.365771    46Ap     1.366342
      32App    1.392452    47Ap     1.403653    33App    1.404472
      48Ap     1.416930    34App    1.417259    35App    1.427900
      36App    1.491502    49Ap     1.499086    50Ap     1.542351
      37App    1.543325    38App    1.574100    51Ap     1.574796
      52Ap     1.669831    39App    1.738867    53Ap     1.739874
      54Ap     1.768411    40App    1.831332    55Ap     1.831425
      41App    1.971747    56Ap     2.017418    42App    2.018923
      57Ap     2.020085    58Ap     2.052240    43App    2.053061
      59Ap     2.738255    44App    2.738711    60Ap     2.790922
      45App    2.811428    46App    2.889797    61Ap     2.890084
      62Ap     2.894968    47App    2.929491    63Ap     2.929509
      48App    2.958966    64Ap     2.964104    49App    2.964683
      65Ap     3.034016    66Ap     3.070730    50App    3.071821
      51App    3.084399    52App    3.168154    67Ap     3.169416
      68Ap     3.180591    53App    3.285143    69Ap     3.285480
      54App    3.326580    70Ap     3.327759    71Ap     3.375619
      72Ap     3.490053    55App    3.490272    56App    3.514015
      73Ap     3.525320    74Ap     3.568086    57App    3.568691
      58App    3.575126    75Ap     3.666155    59App    3.666664
      76Ap     3.679597    77Ap     3.694115    60App    3.694216
      61App    3.776693    78Ap     3.776912    79Ap     3.789116
      80Ap     3.911744    62App    3.912702    81Ap     4.034429
      63App    4.111227    82Ap     4.111385    64App    4.147830
      83Ap     4.148194    84Ap     4.173496    85Ap     4.202151
      65App    4.202748    86Ap     4.203578    66App    4.211268
      87Ap     4.314466    67App    4.317473    68App    4.358975
      69App    4.423604    88Ap     4.425325    70App    4.443447
      71App    4.516498    89Ap     4.517197    72App    4.578143
      90Ap     4.578343    91Ap     4.617595    92Ap     4.709456
      73App    4.774073    93Ap     4.775144    74App    4.836909
      94Ap     4.962868    95Ap     5.002587    75App    5.003340
      96Ap     5.227381    97Ap     5.245243    76App    5.248916
      77App    5.355450    98Ap     5.355663    78App    5.479459

    Beta Occupied:

       1Ap   -10.167812     1App  -10.167765     2Ap   -10.167746
       3Ap   -10.166520     4Ap    -0.781092     2App   -0.684050
       5Ap    -0.683934     6Ap    -0.511752     7Ap    -0.431213
       3App   -0.430872     8Ap    -0.421821     4App   -0.376710
       9Ap    -0.376657     5App   -0.362595     6App   -0.333254
      10Ap    -0.332989

    Beta Virtual:

      11Ap    -0.025743    12Ap     0.077078    13Ap     0.134747
       7App    0.135339     8App    0.144299    14Ap     0.144694
      15Ap     0.163338    16Ap     0.182442     9App    0.182459
      10App    0.215034    17Ap     0.218930    11App    0.282146
      18Ap     0.282522    19Ap     0.400176    12App    0.400617
      20Ap     0.419790    21Ap     0.426663    13App    0.427155
      22Ap     0.468501    14App    0.497554    23Ap     0.497744
      15App    0.513896    24Ap     0.556325    25Ap     0.584258
      16App    0.584472    26Ap     0.597802    17App    0.597819
      27Ap     0.609995    28Ap     0.628091    18App    0.631905
      19App    0.639393    29Ap     0.639746    30Ap     0.666838
      20App    0.667128    31Ap     0.686476    21App    0.686523
      32Ap     0.757518    22App    0.830309    33Ap     0.830835
      23App    0.855272    34Ap     0.922602    24App    0.923387
      25App    0.945965    35Ap     0.953520    36Ap     0.966368
      26App    0.966850    37Ap     1.008697    38Ap     1.131863
      27App    1.132416    39Ap     1.155578    40Ap     1.168140
      28App    1.168564    41Ap     1.232301    29App    1.279982
      42Ap     1.280183    43Ap     1.285110    30App    1.329166
      44Ap     1.329504    45Ap     1.365370    31App    1.371027
      46Ap     1.371576    32App    1.393512    47Ap     1.407097
      33App    1.407961    48Ap     1.422050    34App    1.422241
      35App    1.428168    36App    1.492553    49Ap     1.509529
      50Ap     1.546744    37App    1.547750    38App    1.581981
      51Ap     1.582653    52Ap     1.674677    39App    1.744613
      53Ap     1.745671    54Ap     1.779172    40App    1.835184
      55Ap     1.835285    41App    1.972610    42App    2.025383
      56Ap     2.025428    57Ap     2.039787    58Ap     2.059012
      43App    2.059720    59Ap     2.746612    44App    2.747026
      45App    2.811840    60Ap     2.816058    46App    2.902391
      61Ap     2.902886    62Ap     2.924657    63Ap     2.931913
      47App    2.932046    48App    2.960039    64Ap     2.968644
      49App    2.969220    65Ap     3.041950    66Ap     3.080549
      50App    3.081769    51App    3.086273    52App    3.183831
      67Ap     3.185248    68Ap     3.188263    53App    3.289943
      69Ap     3.290277    54App    3.330327    70Ap     3.331621
      71Ap     3.383438    72Ap     3.492759    55App    3.493027
      56App    3.512379    73Ap     3.528364    57App    3.574963
      74Ap     3.581390    58App    3.582090    75Ap     3.670725
      59App    3.671600    76Ap     3.692928    60App    3.725642
      77Ap     3.725900    61App    3.781253    78Ap     3.781404
      79Ap     3.817663    80Ap     3.921515    62App    3.922562
      81Ap     4.045318    63App    4.117810    82Ap     4.118427
      83Ap     4.155182    64App    4.155313    84Ap     4.187501
      65App    4.208586    85Ap     4.208833    86Ap     4.210887
      66App    4.215766    87Ap     4.321948    67App    4.324875
      68App    4.362339    69App    4.431835    88Ap     4.433523
      70App    4.446329    71App    4.524284    89Ap     4.524990
      72App    4.588699    90Ap     4.588986    91Ap     4.624789
      92Ap     4.719801    73App    4.781054    93Ap     4.782070
      74App    4.839826    94Ap     4.967662    95Ap     5.006643
      75App    5.007362    96Ap     5.232939    97Ap     5.247213
      76App    5.250679    77App    5.361946    98Ap     5.362118
      78App    5.481782

    Final Occupation by Irrep:
             Ap   App
    DOCC [    10,    6 ]
    SOCC [     1,    0 ]

  @DF-UKS Final Energy:  -157.81304917804226

   => Energetics <=

    Nuclear Repulsion Energy =            125.3946738383221202
    One-Electron Energy =                -458.7489500808758862
    Two-Electron Energy =                 195.8483767715490274
    DFT Exchange-Correlation Energy =     -20.3071497070375528
    Empirical Dispersion Energy =           0.0000000000000000
    VV10 Nonlocal Energy =                  0.0000000000000000
    Total Energy =                       -157.8130491780422631

  UHF NO Occupations:
  HONO-2 :    9 Ap 1.9996009
  HONO-1 :   10 Ap 1.9989805
  HONO-0 :   11 Ap 1.0000000
  LUNO+0 :   12 Ap 0.0010195
  LUNO+1 :   13 Ap 0.0003991
  LUNO+2 :   14 Ap 0.0001976
  LUNO+3 :    7App 0.0001975

Computation Completed

Properties will be evaluated at   0.000000,   0.000000,   0.000000 [a0]

Properties computed using the SCF density matrix

  Nuclear Dipole Moment: [e a0]
     X:     0.8272      Y:    -0.0049      Z:    -0.0000

  Electronic Dipole Moment: [e a0]
     X:    -0.7493      Y:     0.0073      Z:     0.0000

  Dipole Moment: [e a0]
     X:     0.0779      Y:     0.0024      Z:    -0.0000     Total:     0.0780

  Dipole Moment: [D]
     X:     0.1980      Y:     0.0061      Z:    -0.0000     Total:     0.1981

*** tstop() called on n023 at Fri Nov  5 14:13:36 2021
Module time:
	user time   =     641.90 seconds =      10.70 minutes
	system time =      12.24 seconds =       0.20 minutes
	total time  =        164 seconds =       2.73 minutes
Total time:
	user time   =     641.90 seconds =      10.70 minutes
	system time =      12.24 seconds =       0.20 minutes
	total time  =        164 seconds =       2.73 minutes
Grab this energy -157.81304917804226
    Psi4 stopped on: Friday, 05 November 2021 02:13PM
    Psi4 wall time for execution: 0:02:44.47

*** Psi4 exiting successfully. Buy a developer a beer!
