                               Psi4 1.4a2.dev629

  ==> Input File <==

--------------------------------------------------------------------------
import os
memory 14 GB

molecule {
 C   -0.3233417252   -0.0009924519   -0.0000000000
 C    0.0604994852   -1.4014335628   -2.4266103221
 C    0.0622977891    2.8008057877   -0.0000000000
 C    0.0604994852   -1.4014335628    2.4266103221
 H    2.0869083325   -1.6442134736   -2.8473768559
 H   -0.7662317491   -0.3911486878   -4.0244775669
 H   -0.7644762311   -3.2878898176   -2.3501281678
 H    2.0868552211    3.2880946185   -0.0000000000
 H   -0.7659094182    3.6807194078    1.6836735597
 H   -0.7659094182    3.6807194078   -1.6836735597
 H    2.0869083325   -1.6442134736    2.8473768559
 H   -0.7644762311   -3.2878898176    2.3501281678
 H   -0.7662317491   -0.3911486878    4.0244775669
units bohr
0 2
}

basis {

assign 6-31g_2dfp_

[ 6-31g_2dfp_ ]

spherical

!----------------------------------------------------------------------
! Basis Set Exchange
! Version v0.8.13
! https://www.basissetexchange.org
!----------------------------------------------------------------------
!   Basis set: 6-31G(2df,p)
! Description: 6-31G(2df,p)
!        Role: orbital
!     Version: 0  (Data from the original Basis Set Exchange)
!----------------------------------------------------------------------

****
H     0
S    3   1.00
     18.7311370              0.03349460
      2.8253937              0.23472695
      0.6401217              0.81375733
S    1   1.00
      0.1612778              1.00000000
P    1   1.00
      1.5000000              1.0000000
P    1   1.00
      0.3750000              1.0000000
****
B     0
S    6   1.00
   2068.8823000              0.0018663
    310.6495700              0.0142515
     70.6830330              0.0695516
     19.8610800              0.2325729
      6.2993048              0.4670787
      2.1270270              0.3634314
SP   3   1.00
      4.7279710             -0.1303938              0.0745976
      1.1903377             -0.1307889              0.3078467
      0.3594117              1.1309444              0.7434568
SP   1   1.00
      0.1267512              1.0000000              1.0000000
D    1   1.00
      0.8020000              1.0000000
D    1   1.00
      0.2005000              1.0000000
F    1   1.00
      0.5000000              1.0000000
****
C     0
S    6   1.00
   3047.5249000              0.0018347
    457.3695100              0.0140373
    103.9486900              0.0688426
     29.2101550              0.2321844
      9.2866630              0.4679413
      3.1639270              0.3623120
SP   3   1.00
      7.8682724             -0.1193324              0.0689991
      1.8812885             -0.1608542              0.3164240
      0.5442493              1.1434564              0.7443083
SP   1   1.00
      0.1687144              1.0000000              1.0000000
D    1   1.00
      1.2520000              1.0000000
D    1   1.00
      0.3130000              1.0000000
F    1   1.00
      0.8000000              1.0000000
****
N     0
S    6   1.00
   4173.5110000              0.0018348
    627.4579000              0.0139950
    142.9021000              0.0685870
     40.2343300              0.2322410
     12.8202100              0.4690700
      4.3904370              0.3604550
SP   3   1.00
     11.6263580             -0.1149610              0.0675800
      2.7162800             -0.1691180              0.3239070
      0.7722180              1.1458520              0.7408950
SP   1   1.00
      0.2120313              1.0000000              1.0000000
D    1   1.00
      1.8260000              1.0000000
D    1   1.00
      0.4565000              1.0000000
F    1   1.00
      1.0000000              1.0000000
****
O     0
S    6   1.00
   5484.6717000              0.0018311
    825.2349500              0.0139501
    188.0469600              0.0684451
     52.9645000              0.2327143
     16.8975700              0.4701930
      5.7996353              0.3585209
SP   3   1.00
     15.5396160             -0.1107775              0.0708743
      3.5999336             -0.1480263              0.3397528
      1.0137618              1.1307670              0.7271586
SP   1   1.00
      0.2700058              1.0000000              1.0000000
D    1   1.00
      2.5840000              1.0000000
D    1   1.00
      0.6460000              1.0000000
F    1   1.00
      1.4000000              1.0000000
****
F     0
S    6   1.00
   7001.7130900              0.0018196169
   1051.3660900              0.0139160796
    239.2856900              0.0684053245
     67.3974453              0.233185760
     21.5199573              0.471267439
      7.40310130             0.356618546
SP   3   1.00
     20.8479528             -0.108506975            0.0716287243
      4.80830834            -0.146451658            0.3459121030
      1.34406986             1.128688580            0.7224699570
SP   1   1.00
      0.358151393            1.0000000              1.0000000
D    1   1.00
      3.5000000              1.0000000
D    1   1.00
      0.8750000              1.0000000
F    1   1.00
      1.8500000              1.0000000
****
Al     0
S    6   1.00
  13983.1000000              0.00194267
   2098.7500000              0.0148599
    477.7050000              0.0728494
    134.3600000              0.2468300
     42.8709000              0.4872580
     14.5189000              0.3234960
SP   6   1.00
    239.6680000             -0.00292619             0.00460285
     57.4419000             -0.0374080              0.0331990
     18.2859000             -0.1144870              0.1362820
      6.5991400              0.1156350              0.3304760
      2.4904900              0.6125950              0.4491460
      0.9445400              0.3937990              0.2657040
SP   3   1.00
      1.2779000             -0.2276060             -0.0175130
      0.3975900              0.00144583             0.2445330
      0.1600950              1.0927900              0.8049340
SP   1   1.00
      0.0556577              1.0000000              1.0000000
D    1   1.00
      0.6500000              1.0000000
D    1   1.00
      0.1625000              1.0000000
F    1   1.00
      0.2500000              1.0000000
****
Si     0
S    6   1.00
  16115.9000000              0.00195948
   2425.5800000              0.01492880
    553.8670000              0.07284780
    156.3400000              0.24613000
     50.0683000              0.48591400
     17.0178000              0.32500200
SP   6   1.00
    292.7180000             -0.00278094             0.00443826
     69.8731000             -0.03571460             0.03266790
     22.3363000             -0.11498500             0.13472100
      8.1503900              0.09356340             0.32867800
      3.1345800              0.60301700             0.44964000
      1.2254300              0.41895900             0.26137200
SP   3   1.00
      1.7273800             -0.24463000            -0.01779510
      0.5729220              0.00431572             0.25353900
      0.2221920              1.09818000             0.80066900
SP   1   1.00
      0.0778369              1.00000000             1.00000000
D    1   1.00
      0.9000000              1.0000000
D    1   1.00
      0.2250000              1.0000000
F    1   1.00
      0.3200000              1.0000000
****
P     0
S    6   1.00
  19413.3000000              0.0018516
   2909.4200000              0.0142062
    661.3640000              0.0699995
    185.7590000              0.2400790
     59.1943000              0.4847620
     20.0310000              0.3352000
SP   6   1.00
    339.4780000             -0.00278217             0.00456462
     81.0101000             -0.0360499              0.03369360
     25.8780000             -0.1166310              0.13975500
      9.4522100              0.0968328              0.33936200
      3.6656600              0.6144180              0.45092100
      1.4674600              0.4037980              0.23858600
SP   3   1.00
      2.1562300             -0.2529230             -0.01776530
      0.7489970              0.0328517              0.27405800
      0.2831450              1.0812500              0.78542100
SP   1   1.00
      0.0998317              1.0000000              1.00000000
D    1   1.00
      1.1000000              1.0000000
D    1   1.00
      0.2750000              1.0000000
F    1   1.00
      0.4500000              1.0000000
****
S     0
S    6   1.00
  21917.1000000              0.0018690
   3301.4900000              0.0142300
    754.1460000              0.0696960
    212.7110000              0.2384870
     67.9896000              0.4833070
     23.0515000              0.3380740
SP   6   1.00
    423.7350000             -0.0023767              0.0040610
    100.7100000             -0.0316930              0.0306810
     32.1599000             -0.1133170              0.1304520
     11.8079000              0.0560900              0.3272050
      4.6311000              0.5922550              0.4528510
      1.8702500              0.4550060              0.2560420
SP   3   1.00
      2.6158400             -0.2503740             -0.0145110
      0.9221670              0.0669570              0.3102630
      0.3412870              1.0545100              0.7544830
SP   1   1.00
      0.1171670              1.0000000              1.0000000
D    1   1.00
      1.3000000              1.0000000
D    1   1.00
      0.3250000              1.0000000
F    1   1.00
      0.5500000              1.0000000
****
Cl     0
S    6   1.00
  25180.1000000              0.0018330
   3780.3500000              0.0140340
    860.4740000              0.0690970
    242.1450000              0.2374520
     77.3349000              0.4830340
     26.2470000              0.3398560
SP   6   1.00
    491.7650000             -0.0022974              0.0039894
    116.9840000             -0.0307140              0.0303180
     37.4153000             -0.1125280              0.1298800
     13.7834000              0.0450160              0.3279510
      5.4521500              0.5893530              0.4535270
      2.2258800              0.4652060              0.2521540
SP   3   1.00
      3.1864900             -0.2518300             -0.0142990
      1.1442700              0.0615890              0.3235720
      0.4203770              1.0601800              0.7435070
SP   1   1.00
      0.1426570              1.0000000              1.0000000
D    1   1.00
      1.5000000              1.0000000
D    1   1.00
      0.3750000              1.0000000
F    1   1.00
      0.7000000              1.0000000
****
}

set {
reference uhf
freeze_core true
e_convergence 10
d_convergence 10
dft_spherical_points 1202
dft_radial_points 99
}

e = energy('b3lyp')

print_out('Grab this energy {0}'.format(e))
--------------------------------------------------------------------------

    Molecular point group: cs

    Geometry (in Bohr), charge = 0, multiplicity = 2:

       Center              X                  Y                   Z               Mass
    ------------   -----------------  -----------------  -----------------  -----------------
         C           -0.323340765857    -0.000403840626     0.000000000000    12.000000000000
         C            0.060500444543    -1.400844951526    -2.426610322100    12.000000000000
         C            0.062298748443     2.801394398974     0.000000000000    12.000000000000
         C            0.060500444543    -1.400844951526     2.426610322100    12.000000000000
         H            2.086909291843    -1.643624862326    -2.847376855900     1.007825032230
         H           -0.766230789757    -0.390560076526    -4.024477566900     1.007825032230
         H           -0.764475271757    -3.287301206326    -2.350128167800     1.007825032230
         H            2.086856180443     3.288683229774     0.000000000000     1.007825032230
         H           -0.765908458857     3.681308019074     1.683673559700     1.007825032230
         H           -0.765908458857     3.681308019074    -1.683673559700     1.007825032230
         H            2.086909291843    -1.643624862326     2.847376855900     1.007825032230
         H           -0.764475271757    -3.287301206326     2.350128167800     1.007825032230
         H           -0.766230789757    -0.390560076526     4.024477566900     1.007825032230

  Charge       = 0
  Multiplicity = 2
  Basis Set: ANONYMOUS93D4E8B0
    Blend: 6-31G_2DFP_
  Basis Set: (ANONYMOUS93D4E8B0 AUX)
    Blend: DEF2-UNIVERSAL-JKFIT

    Orbital Energies [Eh]
    ---------------------

    Alpha Occupied:

       1Ap   -10.180342     2Ap   -10.167659     1App  -10.166708
       3Ap   -10.166677     4Ap    -0.797767     2App   -0.686508
       5Ap    -0.685869     6Ap    -0.530777     7Ap    -0.441126
       8Ap    -0.434779     3App   -0.434565     4App   -0.382798
       9Ap    -0.382399     5App   -0.363610    10Ap    -0.337998
       6App   -0.337998    11Ap    -0.168961

    Alpha Virtual:

      12Ap     0.076069     7App    0.133977    13Ap     0.134312
       8App    0.142469    14Ap     0.142801    15Ap     0.154878
      16Ap     0.178540     9App    0.179015    17Ap     0.203547
      10App    0.214809    18Ap     0.275956    11App    0.276016
      19Ap     0.399111    12App    0.399342    20Ap     0.403346
      13App    0.423916    21Ap     0.424277    22Ap     0.456592
      23Ap     0.495174    14App    0.495605    15App    0.512160
      24Ap     0.513980    16App    0.578769    25Ap     0.578858
      26Ap     0.591481    17App    0.591786    27Ap     0.602569
      28Ap     0.624766    18App    0.631580    19App    0.635960
      29Ap     0.636733    20App    0.663223    30Ap     0.663603
      31Ap     0.683393    21App    0.684348    32Ap     0.734993
      22App    0.825018    33Ap     0.825786    23App    0.853916
      24App    0.914798    34Ap     0.915253    25App    0.944128
      35Ap     0.944614    26App    0.960917    36Ap     0.961678
      37Ap     1.003454    38Ap     1.127817    27App    1.128394
      39Ap     1.142221    28App    1.163065    40Ap     1.163476
      41Ap     1.223322    42Ap     1.274453    29App    1.274528
      43Ap     1.279361    30App    1.323942    44Ap     1.324754
      45Ap     1.355935    46Ap     1.365816    31App    1.366282
      32App    1.392460    33App    1.403973    47Ap     1.404145
      48Ap     1.416294    34App    1.417951    35App    1.427911
      36App    1.491479    49Ap     1.499084    37App    1.542318
      50Ap     1.543361    38App    1.574328    51Ap     1.574570
      52Ap     1.669772    39App    1.739191    53Ap     1.739642
      54Ap     1.768294    55Ap     1.829079    40App    1.833804
      41App    1.971644    56Ap     2.018323    42App    2.018562
      57Ap     2.019588    43App    2.051659    58Ap     2.053648
      44App    2.737626    59Ap     2.739341    60Ap     2.790923
      45App    2.811429    61Ap     2.889669    46App    2.890249
      62Ap     2.894940    47App    2.929377    63Ap     2.929603
      48App    2.959007    64Ap     2.964177    49App    2.964595
      65Ap     3.034009    66Ap     3.071094    50App    3.071422
      51App    3.084436    67Ap     3.168692    52App    3.168885
      68Ap     3.180592    69Ap     3.285059    53App    3.285579
      70Ap     3.326995    54App    3.327323    71Ap     3.375618
      55App    3.489481    72Ap     3.490829    56App    3.514012
      73Ap     3.525338    74Ap     3.568258    57App    3.568438
      58App    3.575268    75Ap     3.666336    59App    3.666415
      76Ap     3.679526    77Ap     3.693634    60App    3.694709
      78Ap     3.776207    61App    3.777449    79Ap     3.789123
      80Ap     3.911664    62App    3.912770    81Ap     4.034408
      82Ap     4.111051    63App    4.111588    64App    4.146647
      83Ap     4.149496    84Ap     4.173285    85Ap     4.199424
      65App    4.204439    86Ap     4.205053    66App    4.210934
      67App    4.315823    87Ap     4.316154    68App    4.358931
      88Ap     4.424393    69App    4.424502    70App    4.443523
      71App    4.516370    89Ap     4.517280    72App    4.577990
      90Ap     4.578560    91Ap     4.617585    92Ap     4.709473
      73App    4.774249    93Ap     4.774932    74App    4.836855
      94Ap     4.962878    75App    5.002788    95Ap     5.003178
      96Ap     5.227954    76App    5.240936    97Ap     5.252630
      98Ap     5.353753    77App    5.357301    78App    5.479548

    Beta Occupied:

       1Ap   -10.168419     1App  -10.167459     2Ap   -10.167447
       3Ap   -10.166518     4Ap    -0.781093     2App   -0.684316
       5Ap    -0.683666     6Ap    -0.511749     7Ap    -0.431156
       3App   -0.430932     8Ap    -0.421822     4App   -0.376871
       9Ap    -0.376496     5App   -0.362594    10Ap    -0.333121
       6App   -0.333121

    Beta Virtual:

      11Ap    -0.025743    12Ap     0.077078     7App    0.134821
      13Ap     0.135251     8App    0.144412    14Ap     0.144596
      15Ap     0.163337    16Ap     0.182239     9App    0.182659
      10App    0.215038    17Ap     0.218930    18Ap     0.282304
      11App    0.282364    19Ap     0.400280    12App    0.400514
      20Ap     0.419791    13App    0.426725    21Ap     0.427091
      22Ap     0.468500    23Ap     0.497428    14App    0.497873
      15App    0.513895    24Ap     0.556324    16App    0.584342
      25Ap     0.584385    26Ap     0.597706    17App    0.597919
      27Ap     0.609994    28Ap     0.628140    18App    0.631829
      19App    0.639174    29Ap     0.639998    20App    0.666831
      30Ap     0.667121    31Ap     0.686080    21App    0.686931
      32Ap     0.757517    22App    0.830163    33Ap     0.830978
      23App    0.855269    24App    0.922786    34Ap     0.923209
      25App    0.945966    35Ap     0.953543    26App    0.966221
      36Ap     0.966984    37Ap     1.008694    38Ap     1.131771
      27App    1.132498    39Ap     1.155600    28App    1.168087
      40Ap     1.168597    41Ap     1.232295    42Ap     1.280057
      29App    1.280115    43Ap     1.285117    30App    1.328886
      44Ap     1.329788    45Ap     1.365326    46Ap     1.371045
      31App    1.371561    32App    1.393519    33App    1.407413
      47Ap     1.407638    48Ap     1.421284    34App    1.423062
      35App    1.428181    36App    1.492529    49Ap     1.509527
      37App    1.546694    50Ap     1.547799    38App    1.582193
      51Ap     1.582449    52Ap     1.674617    39App    1.744968
      53Ap     1.745386    54Ap     1.779077    55Ap     1.832960
      40App    1.837639    41App    1.972515    42App    2.024982
      56Ap     2.025962    57Ap     2.039697    43App    2.058355
      58Ap     2.060378    44App    2.745956    59Ap     2.747683
      45App    2.811841    60Ap     2.816059    61Ap     2.902388
      46App    2.902904    62Ap     2.924649    47App    2.931878
      63Ap     2.932064    48App    2.960071    64Ap     2.968695
      49App    2.969162    65Ap     3.041945    66Ap     3.081041
      50App    3.081182    51App    3.086367    67Ap     3.184379
      52App    3.184707    68Ap     3.188265    69Ap     3.289872
      53App    3.290361    70Ap     3.330757    54App    3.331171
      71Ap     3.383437    55App    3.492205    72Ap     3.493566
      56App    3.512380    73Ap     3.528383    57App    3.574911
      74Ap     3.581582    58App    3.582001    75Ap     3.671069
      59App    3.671162    76Ap     3.692916    77Ap     3.725168
      60App    3.726354    78Ap     3.780839    61App    3.781882
      79Ap     3.817665    80Ap     3.921470    62App    3.922595
      81Ap     4.045288    82Ap     4.118067    63App    4.118188
      64App    4.154023    83Ap     4.156570    84Ap     4.187317
      85Ap     4.206007    65App    4.210490    86Ap     4.212290
      66App    4.215414    67App    4.323136    87Ap     4.323711
      68App    4.362295    88Ap     4.432550    69App    4.432728
      70App    4.446447    71App    4.524100    89Ap     4.525136
      72App    4.588647    90Ap     4.589101    91Ap     4.624778
      92Ap     4.719819    73App    4.781232    93Ap     4.781854
      74App    4.839772    94Ap     4.967673    75App    5.006829
      95Ap     5.007216    96Ap     5.233662    76App    5.242735
      97Ap     5.254411    98Ap     5.360256    77App    5.363757
      78App    5.481868

    Final Occupation by Irrep:
             Ap   App
    DOCC [    10,    6 ]
    SOCC [     1,    0 ]

  @DF-UKS Final Energy:  -157.81304621317361

   => Energetics <=

    Nuclear Repulsion Energy =            125.3946909122666113
    One-Electron Energy =                -458.7489800195771750
    Two-Electron Energy =                 195.8483935073642499
    DFT Exchange-Correlation Energy =     -20.3071506132272646
    Empirical Dispersion Energy =           0.0000000000000000
    VV10 Nonlocal Energy =                  0.0000000000000000
    Total Energy =                       -157.8130462131736067

  UHF NO Occupations:
  HONO-2 :    9 Ap 1.9996009
  HONO-1 :   10 Ap 1.9989805
  HONO-0 :   11 Ap 1.0000000
  LUNO+0 :   12 Ap 0.0010195
  LUNO+1 :   13 Ap 0.0003991
  LUNO+2 :   14 Ap 0.0001976
  LUNO+3 :    7App 0.0001975

Computation Completed

Properties will be evaluated at   0.000000,   0.000000,   0.000000 [a0]

Properties computed using the SCF density matrix

  Nuclear Dipole Moment: [e a0]
     X:     0.8272      Y:     0.0041      Z:     0.0000

  Electronic Dipole Moment: [e a0]
     X:    -0.7493      Y:    -0.0072      Z:     0.0000

  Dipole Moment: [e a0]
     X:     0.0779      Y:    -0.0031      Z:     0.0000     Total:     0.0780

  Dipole Moment: [D]
     X:     0.1981      Y:    -0.0079      Z:     0.0000     Total:     0.1982

*** tstop() called on n091 at Fri Nov  5 14:15:53 2021
Module time:
	user time   =     496.36 seconds =       8.27 minutes
	system time =       4.43 seconds =       0.07 minutes
	total time  =        126 seconds =       2.10 minutes
Total time:
	user time   =     496.36 seconds =       8.27 minutes
	system time =       4.43 seconds =       0.07 minutes
	total time  =        126 seconds =       2.10 minutes
Grab this energy -157.8130462131736
    Psi4 stopped on: Friday, 05 November 2021 02:15PM
    Psi4 wall time for execution: 0:02:05.94

*** Psi4 exiting successfully. Buy a developer a beer!
