                               Psi4 1.4a2.dev629

  ==> Input File <==

--------------------------------------------------------------------------
import os
memory 14 GB

molecule {
 C   -0.3233405989    0.0019966731    0.0002260360
 C    0.0613612264   -1.4014161799   -2.4288257794
 C    0.0608660366    2.8009142674    0.0004821435
 C    0.0610718827   -1.3990289928    2.4256685077
 H    2.0868914187   -1.6418004218   -2.8507362080
 H   -0.7669292280   -0.3904252143   -4.0290381112
 H   -0.7647693352   -3.2902190488   -2.3436097778
 H    2.0870213486    3.2835154927   -0.0001868460
 H   -0.7651996162    3.6804898372    1.6756404873
 H   -0.7650782332    3.6804639169   -1.6758280970
 H    2.0867477037   -1.6425538068    2.8516694782
 H   -0.7644882350   -3.2906405491    2.3446785528
 H   -0.7667622468   -0.3913202874    4.0298596139
units bohr
0 2
}

basis {

assign 6-31g_2dfp_

[ 6-31g_2dfp_ ]

spherical

!----------------------------------------------------------------------
! Basis Set Exchange
! Version v0.8.13
! https://www.basissetexchange.org
!----------------------------------------------------------------------
!   Basis set: 6-31G(2df,p)
! Description: 6-31G(2df,p)
!        Role: orbital
!     Version: 0  (Data from the original Basis Set Exchange)
!----------------------------------------------------------------------

****
H     0
S    3   1.00
     18.7311370              0.03349460
      2.8253937              0.23472695
      0.6401217              0.81375733
S    1   1.00
      0.1612778              1.00000000
P    1   1.00
      1.5000000              1.0000000
P    1   1.00
      0.3750000              1.0000000
****
B     0
S    6   1.00
   2068.8823000              0.0018663
    310.6495700              0.0142515
     70.6830330              0.0695516
     19.8610800              0.2325729
      6.2993048              0.4670787
      2.1270270              0.3634314
SP   3   1.00
      4.7279710             -0.1303938              0.0745976
      1.1903377             -0.1307889              0.3078467
      0.3594117              1.1309444              0.7434568
SP   1   1.00
      0.1267512              1.0000000              1.0000000
D    1   1.00
      0.8020000              1.0000000
D    1   1.00
      0.2005000              1.0000000
F    1   1.00
      0.5000000              1.0000000
****
C     0
S    6   1.00
   3047.5249000              0.0018347
    457.3695100              0.0140373
    103.9486900              0.0688426
     29.2101550              0.2321844
      9.2866630              0.4679413
      3.1639270              0.3623120
SP   3   1.00
      7.8682724             -0.1193324              0.0689991
      1.8812885             -0.1608542              0.3164240
      0.5442493              1.1434564              0.7443083
SP   1   1.00
      0.1687144              1.0000000              1.0000000
D    1   1.00
      1.2520000              1.0000000
D    1   1.00
      0.3130000              1.0000000
F    1   1.00
      0.8000000              1.0000000
****
N     0
S    6   1.00
   4173.5110000              0.0018348
    627.4579000              0.0139950
    142.9021000              0.0685870
     40.2343300              0.2322410
     12.8202100              0.4690700
      4.3904370              0.3604550
SP   3   1.00
     11.6263580             -0.1149610              0.0675800
      2.7162800             -0.1691180              0.3239070
      0.7722180              1.1458520              0.7408950
SP   1   1.00
      0.2120313              1.0000000              1.0000000
D    1   1.00
      1.8260000              1.0000000
D    1   1.00
      0.4565000              1.0000000
F    1   1.00
      1.0000000              1.0000000
****
O     0
S    6   1.00
   5484.6717000              0.0018311
    825.2349500              0.0139501
    188.0469600              0.0684451
     52.9645000              0.2327143
     16.8975700              0.4701930
      5.7996353              0.3585209
SP   3   1.00
     15.5396160             -0.1107775              0.0708743
      3.5999336             -0.1480263              0.3397528
      1.0137618              1.1307670              0.7271586
SP   1   1.00
      0.2700058              1.0000000              1.0000000
D    1   1.00
      2.5840000              1.0000000
D    1   1.00
      0.6460000              1.0000000
F    1   1.00
      1.4000000              1.0000000
****
F     0
S    6   1.00
   7001.7130900              0.0018196169
   1051.3660900              0.0139160796
    239.2856900              0.0684053245
     67.3974453              0.233185760
     21.5199573              0.471267439
      7.40310130             0.356618546
SP   3   1.00
     20.8479528             -0.108506975            0.0716287243
      4.80830834            -0.146451658            0.3459121030
      1.34406986             1.128688580            0.7224699570
SP   1   1.00
      0.358151393            1.0000000              1.0000000
D    1   1.00
      3.5000000              1.0000000
D    1   1.00
      0.8750000              1.0000000
F    1   1.00
      1.8500000              1.0000000
****
Al     0
S    6   1.00
  13983.1000000              0.00194267
   2098.7500000              0.0148599
    477.7050000              0.0728494
    134.3600000              0.2468300
     42.8709000              0.4872580
     14.5189000              0.3234960
SP   6   1.00
    239.6680000             -0.00292619             0.00460285
     57.4419000             -0.0374080              0.0331990
     18.2859000             -0.1144870              0.1362820
      6.5991400              0.1156350              0.3304760
      2.4904900              0.6125950              0.4491460
      0.9445400              0.3937990              0.2657040
SP   3   1.00
      1.2779000             -0.2276060             -0.0175130
      0.3975900              0.00144583             0.2445330
      0.1600950              1.0927900              0.8049340
SP   1   1.00
      0.0556577              1.0000000              1.0000000
D    1   1.00
      0.6500000              1.0000000
D    1   1.00
      0.1625000              1.0000000
F    1   1.00
      0.2500000              1.0000000
****
Si     0
S    6   1.00
  16115.9000000              0.00195948
   2425.5800000              0.01492880
    553.8670000              0.07284780
    156.3400000              0.24613000
     50.0683000              0.48591400
     17.0178000              0.32500200
SP   6   1.00
    292.7180000             -0.00278094             0.00443826
     69.8731000             -0.03571460             0.03266790
     22.3363000             -0.11498500             0.13472100
      8.1503900              0.09356340             0.32867800
      3.1345800              0.60301700             0.44964000
      1.2254300              0.41895900             0.26137200
SP   3   1.00
      1.7273800             -0.24463000            -0.01779510
      0.5729220              0.00431572             0.25353900
      0.2221920              1.09818000             0.80066900
SP   1   1.00
      0.0778369              1.00000000             1.00000000
D    1   1.00
      0.9000000              1.0000000
D    1   1.00
      0.2250000              1.0000000
F    1   1.00
      0.3200000              1.0000000
****
P     0
S    6   1.00
  19413.3000000              0.0018516
   2909.4200000              0.0142062
    661.3640000              0.0699995
    185.7590000              0.2400790
     59.1943000              0.4847620
     20.0310000              0.3352000
SP   6   1.00
    339.4780000             -0.00278217             0.00456462
     81.0101000             -0.0360499              0.03369360
     25.8780000             -0.1166310              0.13975500
      9.4522100              0.0968328              0.33936200
      3.6656600              0.6144180              0.45092100
      1.4674600              0.4037980              0.23858600
SP   3   1.00
      2.1562300             -0.2529230             -0.01776530
      0.7489970              0.0328517              0.27405800
      0.2831450              1.0812500              0.78542100
SP   1   1.00
      0.0998317              1.0000000              1.00000000
D    1   1.00
      1.1000000              1.0000000
D    1   1.00
      0.2750000              1.0000000
F    1   1.00
      0.4500000              1.0000000
****
S     0
S    6   1.00
  21917.1000000              0.0018690
   3301.4900000              0.0142300
    754.1460000              0.0696960
    212.7110000              0.2384870
     67.9896000              0.4833070
     23.0515000              0.3380740
SP   6   1.00
    423.7350000             -0.0023767              0.0040610
    100.7100000             -0.0316930              0.0306810
     32.1599000             -0.1133170              0.1304520
     11.8079000              0.0560900              0.3272050
      4.6311000              0.5922550              0.4528510
      1.8702500              0.4550060              0.2560420
SP   3   1.00
      2.6158400             -0.2503740             -0.0145110
      0.9221670              0.0669570              0.3102630
      0.3412870              1.0545100              0.7544830
SP   1   1.00
      0.1171670              1.0000000              1.0000000
D    1   1.00
      1.3000000              1.0000000
D    1   1.00
      0.3250000              1.0000000
F    1   1.00
      0.5500000              1.0000000
****
Cl     0
S    6   1.00
  25180.1000000              0.0018330
   3780.3500000              0.0140340
    860.4740000              0.0690970
    242.1450000              0.2374520
     77.3349000              0.4830340
     26.2470000              0.3398560
SP   6   1.00
    491.7650000             -0.0022974              0.0039894
    116.9840000             -0.0307140              0.0303180
     37.4153000             -0.1125280              0.1298800
     13.7834000              0.0450160              0.3279510
      5.4521500              0.5893530              0.4535270
      2.2258800              0.4652060              0.2521540
SP   3   1.00
      3.1864900             -0.2518300             -0.0142990
      1.1442700              0.0615890              0.3235720
      0.4203770              1.0601800              0.7435070
SP   1   1.00
      0.1426570              1.0000000              1.0000000
D    1   1.00
      1.5000000              1.0000000
D    1   1.00
      0.3750000              1.0000000
F    1   1.00
      0.7000000              1.0000000
****
}

set {
reference uhf
freeze_core true
e_convergence 10
d_convergence 10
dft_spherical_points 1202
dft_radial_points 99
}

e = energy('b3lyp')

print_out('Grab this energy {0}'.format(e))
--------------------------------------------------------------------------

    Molecular point group: c1

    Geometry (in Bohr), charge = 0, multiplicity = 2:

       Center              X                  Y                   Z               Mass
    ------------   -----------------  -----------------  -----------------  -----------------
         C           -0.323340316086     0.001522177823     0.000697748798    12.000000000000
         C            0.061361509214    -1.401890675177    -2.428354066602    12.000000000000
         C            0.060866319414     2.800439772123     0.000953856298    12.000000000000
         C            0.061072165514    -1.399503488077     2.426140220498    12.000000000000
         H            2.086891701514    -1.642274917077    -2.850264495202     1.007825032230
         H           -0.766928945186    -0.390899709577    -4.028566398402     1.007825032230
         H           -0.764769052386    -3.290693544077    -2.343138065002     1.007825032230
         H            2.087021631414     3.283040997423     0.000284866798     1.007825032230
         H           -0.765199333386     3.680015341923     1.676112200098     1.007825032230
         H           -0.765077950386     3.679989421623    -1.675356384202     1.007825032230
         H            2.086747986514    -1.643028302077     2.852141190998     1.007825032230
         H           -0.764487952186    -3.291115044377     2.345150265598     1.007825032230
         H           -0.766761963986    -0.391794782677     4.030331326698     1.007825032230

  Charge       = 0
  Multiplicity = 2
  Basis Set: ANONYMOUS6F8D3254
    Blend: 6-31G_2DFP_
  Basis Set: (ANONYMOUS6F8D3254 AUX)
    Blend: DEF2-UNIVERSAL-JKFIT

    Orbital Energies [Eh]
    ---------------------

    Alpha Occupied:

       1A    -10.180342     2A    -10.167146     3A    -10.167068
       4A    -10.166832     5A     -0.797767     6A     -0.686311
       7A     -0.686063     8A     -0.530776     9A     -0.441129
      10A     -0.434775    11A     -0.434564    12A     -0.382696
      13A     -0.382501    14A     -0.363613    15A     -0.338214
      16A     -0.337780    17A     -0.168961

    Alpha Virtual:

      18A      0.076073    19A      0.134119    20A      0.134191
      21A      0.142537    22A      0.142716    23A      0.154880
      24A      0.178687    25A      0.178869    26A      0.203546
      27A      0.214804    28A      0.275635    29A      0.276336
      30A      0.399190    31A      0.399257    32A      0.403354
      33A      0.424029    34A      0.424168    35A      0.456593
      36A      0.495326    37A      0.495452    38A      0.512159
      39A      0.513980    40A      0.578526    41A      0.579102
      42A      0.591334    43A      0.591932    44A      0.602578
      45A      0.624758    46A      0.631773    47A      0.636083
      48A      0.636424    49A      0.663342    50A      0.663480
      51A      0.683818    52A      0.683887    53A      0.734994
      54A      0.825186    55A      0.825627    56A      0.853916
      57A      0.914884    58A      0.915155    59A      0.944123
      60A      0.944612    61A      0.960613    62A      0.961979
      63A      1.003461    64A      1.127869    65A      1.128329
      66A      1.142228    67A      1.162970    68A      1.163586
      69A      1.223326    70A      1.274140    71A      1.274823
      72A      1.279367    73A      1.324292    74A      1.324423
      75A      1.355994    76A      1.365830    77A      1.366280
      78A      1.392448    79A      1.403687    80A      1.404413
      81A      1.416688    82A      1.417534    83A      1.427923
      84A      1.491491    85A      1.499078    86A      1.542544
      87A      1.543112    88A      1.574251    89A      1.574637
      90A      1.669827    91A      1.739031    92A      1.739815
      93A      1.768311    94A      1.830696    95A      1.832108
      96A      1.971729    97A      2.017854    98A      2.018915
      99A      2.019623   100A      2.051599   101A      2.053691
     102A      2.738178   103A      2.738788   104A      2.790929
     105A      2.811416   106A      2.889678   107A      2.890189
     108A      2.894998   109A      2.929436   110A      2.929559
     111A      2.958993   112A      2.964198   113A      2.964552
     114A      3.034009   115A      3.071102   116A      3.071464
     117A      3.084351   118A      3.168488   119A      3.169061
     120A      3.180604   121A      3.285270   122A      3.285359
     123A      3.326782   124A      3.327531   125A      3.375616
     126A      3.489765   127A      3.490521   128A      3.514024
     129A      3.525308   130A      3.567975   131A      3.568741
     132A      3.575236   133A      3.665622   134A      3.667079
     135A      3.679646   136A      3.693697   137A      3.694604
     138A      3.775540   139A      3.778064   140A      3.789157
     141A      3.911440   142A      3.913027   143A      4.034448
     144A      4.110089   145A      4.112632   146A      4.147201
     147A      4.149007   148A      4.173288   149A      4.202366
     150A      4.202842   151A      4.203589   152A      4.210874
     153A      4.314847   154A      4.317012   155A      4.359031
     156A      4.423414   157A      4.425416   158A      4.443542
     159A      4.516058   160A      4.517606   161A      4.577922
     162A      4.578590   163A      4.617531   164A      4.709454
     165A      4.773469   166A      4.775682   167A      4.836970
     168A      4.962824   169A      5.002195   170A      5.003756
     171A      5.228036   172A      5.246311   173A      5.247314
     174A      5.354784   175A      5.356218   176A      5.479354

    Beta Occupied:

       1A    -10.167906     2A    -10.167825     3A    -10.167593
       4A    -10.166519     5A     -0.781092     6A     -0.684107
       7A     -0.683871     8A     -0.511748     9A     -0.431149
      10A     -0.430940    11A     -0.421818    12A     -0.376799
      13A     -0.376569    14A     -0.362596    15A     -0.333337
      16A     -0.332903

    Beta Virtual:

      17A     -0.025743    18A      0.077082    19A      0.135021
      20A      0.135068    21A      0.144418    22A      0.144577
      23A      0.163339    24A      0.182376    25A      0.182523
      26A      0.215034    27A      0.218928    28A      0.281997
      29A      0.282671    30A      0.400363    31A      0.400431
      32A      0.419790    33A      0.426840    34A      0.426981
      35A      0.468500    36A      0.497588    37A      0.497713
      38A      0.513895    39A      0.556324    40A      0.584074
      41A      0.584655    42A      0.597527    43A      0.598098
      44A      0.610000    45A      0.628134    46A      0.631931
      47A      0.639367    48A      0.639711    49A      0.666900
      50A      0.667050    51A      0.686438    52A      0.686538
      53A      0.757517    54A      0.830332    55A      0.830819
      56A      0.855269    57A      0.922888    58A      0.923093
      59A      0.945961    60A      0.953535    61A      0.965979
      62A      0.967231    63A      1.008702    64A      1.131828
      65A      1.132433    66A      1.155599    67A      1.168045
      68A      1.168657    69A      1.232298    70A      1.279735
      71A      1.280422    72A      1.285121    73A      1.329293
      74A      1.329401    75A      1.365411    76A      1.371112
      77A      1.371482    78A      1.393509    79A      1.407151
      80A      1.407877    81A      1.421748    82A      1.422567
      83A      1.428199    84A      1.492539    85A      1.509522
      86A      1.546947    87A      1.547524    88A      1.582118
      89A      1.582515    90A      1.674674    91A      1.744784
      92A      1.745586    93A      1.779091    94A      1.834560
      95A      1.835954    96A      1.972589    97A      2.024889
      98A      2.026001    99A      2.039675   100A      2.058300
     101A      2.060426   102A      2.746538   103A      2.747101
     104A      2.811829   105A      2.816062   106A      2.902438
     107A      2.902845   108A      2.924660   109A      2.931939
     110A      2.932022   111A      2.960055   112A      2.968750
     113A      2.969089   114A      3.041944   115A      3.081019
     116A      3.081362   117A      3.086172   118A      3.184161
     119A      3.184848   120A      3.188327   121A      3.290042
     122A      3.290185   123A      3.330605   124A      3.331317
     125A      3.383436   126A      3.492479   127A      3.493264
     128A      3.512394   129A      3.528361   130A      3.574900
     131A      3.581462   132A      3.582116   133A      3.670390
     134A      3.671851   135A      3.692937   136A      3.725592
     137A      3.725936   138A      3.780103   139A      3.782551
     140A      3.817703   141A      3.921311   142A      3.922789
     143A      4.045335   144A      4.116995   145A      4.119357
     146A      4.154411   147A      4.156223   148A      4.187338
     149A      4.208581   150A      4.209317   151A      4.210737
     152A      4.215353   153A      4.322245   154A      4.324486
     155A      4.362399   156A      4.431645   157A      4.433588
     158A      4.446456   159A      4.523858   160A      4.525384
     161A      4.588523   162A      4.589188   163A      4.624728
     164A      4.719799   165A      4.780468   166A      4.782588
     167A      4.839890   168A      4.967619   169A      5.006242
     170A      5.007786   171A      5.233751   172A      5.248091
     173A      5.249103   174A      5.361241   175A      5.362722
     176A      5.481676

    Final Occupation by Irrep:
              A
    DOCC [    16 ]
    SOCC [     1 ]

  @DF-UKS Final Energy:  -157.81306694852356

   => Energetics <=

    Nuclear Repulsion Energy =            125.3946236210243086
    One-Electron Energy =                -458.7489041360092301
    Two-Electron Energy =                 195.8483568632362903
    DFT Exchange-Correlation Energy =     -20.3071432967749423
    Empirical Dispersion Energy =           0.0000000000000000
    VV10 Nonlocal Energy =                  0.0000000000000000
    Total Energy =                       -157.8130669485235558

  UHF NO Occupations:
  HONO-2 :   15  A 1.9996009
  HONO-1 :   16  A 1.9989804
  HONO-0 :   17  A 1.0000000
  LUNO+0 :   18  A 0.0010196
  LUNO+1 :   19  A 0.0003991
  LUNO+2 :   20  A 0.0001980
  LUNO+3 :   21  A 0.0001970

Computation Completed

Properties will be evaluated at   0.000000,   0.000000,   0.000000 [a0]

Properties computed using the SCF density matrix

  Nuclear Dipole Moment: [e a0]
     X:     0.8272      Y:    -0.0034      Z:     0.0033

  Electronic Dipole Moment: [e a0]
     X:    -0.7493      Y:     0.0034      Z:    -0.0034

  Dipole Moment: [e a0]
     X:     0.0779      Y:     0.0000      Z:    -0.0001     Total:     0.0779

  Dipole Moment: [D]
     X:     0.1980      Y:     0.0001      Z:    -0.0002     Total:     0.1980

*** tstop() called on n082 at Fri Nov  5 13:13:53 2021
Module time:
	user time   =     495.64 seconds =       8.26 minutes
	system time =       4.61 seconds =       0.08 minutes
	total time  =        126 seconds =       2.10 minutes
Total time:
	user time   =     495.64 seconds =       8.26 minutes
	system time =       4.61 seconds =       0.08 minutes
	total time  =        126 seconds =       2.10 minutes
Grab this energy -157.81306694852356
    Psi4 stopped on: Friday, 05 November 2021 01:13PM
    Psi4 wall time for execution: 0:02:05.79

*** Psi4 exiting successfully. Buy a developer a beer!
