                               Psi4 1.4a2.dev629

  ==> Input File <==

--------------------------------------------------------------------------
import os
memory 14 GB

molecule {
 C   -0.3233319356   -0.0004886279   -0.0049991881
 C    0.0606674411   -1.4072403783   -2.4311074174
 C    0.0609229364    2.8008882755    0.0062247226
 C    0.0617134481   -1.3949866167    2.4223522729
 H    2.0841728118   -1.6529868502   -2.8517450264
 H   -0.7637770417   -0.3990735332   -4.0316993864
 H   -0.7668546432   -3.2954174287   -2.3497556265
 H    2.0909769657    3.2875817343    0.0111427462
 H   -0.7705871689    3.6731419734    1.6899655910
 H   -0.7650639201    3.6883582482   -1.6710819558
 H    2.0855216671   -1.6354051007    2.8435780150
 H   -0.7622701733   -3.2838703390    2.3493276926
 H   -0.7646982641   -0.3805256702    4.0177975603
units bohr
0 2
}

basis {

assign 6-31g_2dfp_

[ 6-31g_2dfp_ ]

spherical

!----------------------------------------------------------------------
! Basis Set Exchange
! Version v0.8.13
! https://www.basissetexchange.org
!----------------------------------------------------------------------
!   Basis set: 6-31G(2df,p)
! Description: 6-31G(2df,p)
!        Role: orbital
!     Version: 0  (Data from the original Basis Set Exchange)
!----------------------------------------------------------------------

****
H     0
S    3   1.00
     18.7311370              0.03349460
      2.8253937              0.23472695
      0.6401217              0.81375733
S    1   1.00
      0.1612778              1.00000000
P    1   1.00
      1.5000000              1.0000000
P    1   1.00
      0.3750000              1.0000000
****
B     0
S    6   1.00
   2068.8823000              0.0018663
    310.6495700              0.0142515
     70.6830330              0.0695516
     19.8610800              0.2325729
      6.2993048              0.4670787
      2.1270270              0.3634314
SP   3   1.00
      4.7279710             -0.1303938              0.0745976
      1.1903377             -0.1307889              0.3078467
      0.3594117              1.1309444              0.7434568
SP   1   1.00
      0.1267512              1.0000000              1.0000000
D    1   1.00
      0.8020000              1.0000000
D    1   1.00
      0.2005000              1.0000000
F    1   1.00
      0.5000000              1.0000000
****
C     0
S    6   1.00
   3047.5249000              0.0018347
    457.3695100              0.0140373
    103.9486900              0.0688426
     29.2101550              0.2321844
      9.2866630              0.4679413
      3.1639270              0.3623120
SP   3   1.00
      7.8682724             -0.1193324              0.0689991
      1.8812885             -0.1608542              0.3164240
      0.5442493              1.1434564              0.7443083
SP   1   1.00
      0.1687144              1.0000000              1.0000000
D    1   1.00
      1.2520000              1.0000000
D    1   1.00
      0.3130000              1.0000000
F    1   1.00
      0.8000000              1.0000000
****
N     0
S    6   1.00
   4173.5110000              0.0018348
    627.4579000              0.0139950
    142.9021000              0.0685870
     40.2343300              0.2322410
     12.8202100              0.4690700
      4.3904370              0.3604550
SP   3   1.00
     11.6263580             -0.1149610              0.0675800
      2.7162800             -0.1691180              0.3239070
      0.7722180              1.1458520              0.7408950
SP   1   1.00
      0.2120313              1.0000000              1.0000000
D    1   1.00
      1.8260000              1.0000000
D    1   1.00
      0.4565000              1.0000000
F    1   1.00
      1.0000000              1.0000000
****
O     0
S    6   1.00
   5484.6717000              0.0018311
    825.2349500              0.0139501
    188.0469600              0.0684451
     52.9645000              0.2327143
     16.8975700              0.4701930
      5.7996353              0.3585209
SP   3   1.00
     15.5396160             -0.1107775              0.0708743
      3.5999336             -0.1480263              0.3397528
      1.0137618              1.1307670              0.7271586
SP   1   1.00
      0.2700058              1.0000000              1.0000000
D    1   1.00
      2.5840000              1.0000000
D    1   1.00
      0.6460000              1.0000000
F    1   1.00
      1.4000000              1.0000000
****
F     0
S    6   1.00
   7001.7130900              0.0018196169
   1051.3660900              0.0139160796
    239.2856900              0.0684053245
     67.3974453              0.233185760
     21.5199573              0.471267439
      7.40310130             0.356618546
SP   3   1.00
     20.8479528             -0.108506975            0.0716287243
      4.80830834            -0.146451658            0.3459121030
      1.34406986             1.128688580            0.7224699570
SP   1   1.00
      0.358151393            1.0000000              1.0000000
D    1   1.00
      3.5000000              1.0000000
D    1   1.00
      0.8750000              1.0000000
F    1   1.00
      1.8500000              1.0000000
****
Al     0
S    6   1.00
  13983.1000000              0.00194267
   2098.7500000              0.0148599
    477.7050000              0.0728494
    134.3600000              0.2468300
     42.8709000              0.4872580
     14.5189000              0.3234960
SP   6   1.00
    239.6680000             -0.00292619             0.00460285
     57.4419000             -0.0374080              0.0331990
     18.2859000             -0.1144870              0.1362820
      6.5991400              0.1156350              0.3304760
      2.4904900              0.6125950              0.4491460
      0.9445400              0.3937990              0.2657040
SP   3   1.00
      1.2779000             -0.2276060             -0.0175130
      0.3975900              0.00144583             0.2445330
      0.1600950              1.0927900              0.8049340
SP   1   1.00
      0.0556577              1.0000000              1.0000000
D    1   1.00
      0.6500000              1.0000000
D    1   1.00
      0.1625000              1.0000000
F    1   1.00
      0.2500000              1.0000000
****
Si     0
S    6   1.00
  16115.9000000              0.00195948
   2425.5800000              0.01492880
    553.8670000              0.07284780
    156.3400000              0.24613000
     50.0683000              0.48591400
     17.0178000              0.32500200
SP   6   1.00
    292.7180000             -0.00278094             0.00443826
     69.8731000             -0.03571460             0.03266790
     22.3363000             -0.11498500             0.13472100
      8.1503900              0.09356340             0.32867800
      3.1345800              0.60301700             0.44964000
      1.2254300              0.41895900             0.26137200
SP   3   1.00
      1.7273800             -0.24463000            -0.01779510
      0.5729220              0.00431572             0.25353900
      0.2221920              1.09818000             0.80066900
SP   1   1.00
      0.0778369              1.00000000             1.00000000
D    1   1.00
      0.9000000              1.0000000
D    1   1.00
      0.2250000              1.0000000
F    1   1.00
      0.3200000              1.0000000
****
P     0
S    6   1.00
  19413.3000000              0.0018516
   2909.4200000              0.0142062
    661.3640000              0.0699995
    185.7590000              0.2400790
     59.1943000              0.4847620
     20.0310000              0.3352000
SP   6   1.00
    339.4780000             -0.00278217             0.00456462
     81.0101000             -0.0360499              0.03369360
     25.8780000             -0.1166310              0.13975500
      9.4522100              0.0968328              0.33936200
      3.6656600              0.6144180              0.45092100
      1.4674600              0.4037980              0.23858600
SP   3   1.00
      2.1562300             -0.2529230             -0.01776530
      0.7489970              0.0328517              0.27405800
      0.2831450              1.0812500              0.78542100
SP   1   1.00
      0.0998317              1.0000000              1.00000000
D    1   1.00
      1.1000000              1.0000000
D    1   1.00
      0.2750000              1.0000000
F    1   1.00
      0.4500000              1.0000000
****
S     0
S    6   1.00
  21917.1000000              0.0018690
   3301.4900000              0.0142300
    754.1460000              0.0696960
    212.7110000              0.2384870
     67.9896000              0.4833070
     23.0515000              0.3380740
SP   6   1.00
    423.7350000             -0.0023767              0.0040610
    100.7100000             -0.0316930              0.0306810
     32.1599000             -0.1133170              0.1304520
     11.8079000              0.0560900              0.3272050
      4.6311000              0.5922550              0.4528510
      1.8702500              0.4550060              0.2560420
SP   3   1.00
      2.6158400             -0.2503740             -0.0145110
      0.9221670              0.0669570              0.3102630
      0.3412870              1.0545100              0.7544830
SP   1   1.00
      0.1171670              1.0000000              1.0000000
D    1   1.00
      1.3000000              1.0000000
D    1   1.00
      0.3250000              1.0000000
F    1   1.00
      0.5500000              1.0000000
****
Cl     0
S    6   1.00
  25180.1000000              0.0018330
   3780.3500000              0.0140340
    860.4740000              0.0690970
    242.1450000              0.2374520
     77.3349000              0.4830340
     26.2470000              0.3398560
SP   6   1.00
    491.7650000             -0.0022974              0.0039894
    116.9840000             -0.0307140              0.0303180
     37.4153000             -0.1125280              0.1298800
     13.7834000              0.0450160              0.3279510
      5.4521500              0.5893530              0.4535270
      2.2258800              0.4652060              0.2521540
SP   3   1.00
      3.1864900             -0.2518300             -0.0142990
      1.1442700              0.0615890              0.3235720
      0.4203770              1.0601800              0.7435070
SP   1   1.00
      0.1426570              1.0000000              1.0000000
D    1   1.00
      1.5000000              1.0000000
D    1   1.00
      0.3750000              1.0000000
F    1   1.00
      0.7000000              1.0000000
****
}

set {
reference uhf
freeze_core true
e_convergence 10
d_convergence 10
dft_spherical_points 1202
dft_radial_points 99
}

e = energy('b3lyp')

print_out('Grab this energy {0}'.format(e))
--------------------------------------------------------------------------

    Molecular point group: c1

    Geometry (in Bohr), charge = 0, multiplicity = 2:

       Center              X                  Y                   Z               Mass
    ------------   -----------------  -----------------  -----------------  -----------------
         C           -0.323334222781    -0.000136238269    -0.003548930981    12.000000000000
         C            0.060665153919    -1.406887988669    -2.429657160281    12.000000000000
         C            0.060920649219     2.801240665131     0.007674979719    12.000000000000
         C            0.061711160919    -1.394634227069     2.423802530019    12.000000000000
         H            2.084170524619    -1.652634460569    -2.850294769281     1.007825032230
         H           -0.763779328881    -0.398721143569    -4.030249129281     1.007825032230
         H           -0.766856930381    -3.295065039069    -2.348305369381     1.007825032230
         H            2.090974678519     3.287934123931     0.012593003319     1.007825032230
         H           -0.770589456081     3.673494363031     1.691415848119     1.007825032230
         H           -0.765066207281     3.688710637831    -1.669631698681     1.007825032230
         H            2.085519379919    -1.635052711069     2.845028272119     1.007825032230
         H           -0.762272460481    -3.283517949369     2.350777949719     1.007825032230
         H           -0.764700551281    -0.380173280569     4.019247817419     1.007825032230

  Charge       = 0
  Multiplicity = 2
  Basis Set: ANONYMOUS00FC6C5F
    Blend: 6-31G_2DFP_
  Basis Set: (ANONYMOUS00FC6C5F AUX)
    Blend: DEF2-UNIVERSAL-JKFIT

    Orbital Energies [Eh]
    ---------------------

    Alpha Occupied:

       1A    -10.180342     2A    -10.167685     3A    -10.166951
       4A    -10.166409     5A     -0.797770     6A     -0.686577
       7A     -0.685796     8A     -0.530776     9A     -0.441127
      10A     -0.434950    11A     -0.434393    12A     -0.382865
      13A     -0.382332    14A     -0.363611    15A     -0.338275
      16A     -0.337719    17A     -0.168962

    Alpha Virtual:

      18A      0.076070    19A      0.133908    20A      0.134387
      21A      0.142459    22A      0.142809    23A      0.154876
      24A      0.178390    25A      0.179172    26A      0.203544
      27A      0.214810    28A      0.275811    29A      0.276161
      30A      0.399041    31A      0.399349    32A      0.403415
      33A      0.423936    34A      0.424267    35A      0.456594
      36A      0.494976    37A      0.495794    38A      0.512173
      39A      0.513986    40A      0.578522    41A      0.579081
      42A      0.591325    43A      0.591933    44A      0.602593
      45A      0.624771    46A      0.631683    47A      0.635879
      48A      0.636710    49A      0.663132    50A      0.663699
      51A      0.683469    52A      0.684256    53A      0.734993
      54A      0.824480    55A      0.826311    56A      0.853916
      57A      0.914789    58A      0.915267    59A      0.944057
      60A      0.944514    61A      0.961033    62A      0.961766
      63A      1.003471    64A      1.126908    65A      1.129328
      66A      1.142215    67A      1.162769    68A      1.163762
      69A      1.223332    70A      1.273949    71A      1.275039
      72A      1.279354    73A      1.323985    74A      1.324715
      75A      1.355979    76A      1.365255    77A      1.366796
      78A      1.392431    79A      1.403199    80A      1.404969
      81A      1.416536    82A      1.417696    83A      1.427932
      84A      1.491433    85A      1.499070    86A      1.542470
      87A      1.543204    88A      1.572609    89A      1.576400
      90A      1.669794    91A      1.738356    92A      1.740411
      93A      1.768362    94A      1.829779    95A      1.833095
      96A      1.971696    97A      2.017414    98A      2.018432
      99A      2.020495   100A      2.050194   101A      2.055240
     102A      2.737964   103A      2.739007   104A      2.790921
     105A      2.811442   106A      2.889619   107A      2.890230
     108A      2.894984   109A      2.929286   110A      2.929698
     111A      2.958994   112A      2.963358   113A      2.965445
     114A      3.034023   115A      3.070226   116A      3.072312
     117A      3.084407   118A      3.168029   119A      3.169575
     120A      3.180568   121A      3.284599   122A      3.286022
     123A      3.326219   124A      3.328118   125A      3.375657
     126A      3.489176   127A      3.491070   128A      3.514038
     129A      3.525317   130A      3.567273   131A      3.569298
     132A      3.575445   133A      3.665569   134A      3.667127
     135A      3.679651   136A      3.693523   137A      3.694735
     138A      3.775795   139A      3.777735   140A      3.789300
     141A      3.910718   142A      3.913723   143A      4.034457
     144A      4.109770   145A      4.112864   146A      4.145403
     147A      4.150719   148A      4.173304   149A      4.200040
     150A      4.203401   151A      4.205204   152A      4.211304
     153A      4.315253   154A      4.316635   155A      4.358971
     156A      4.424005   157A      4.424699   158A      4.443655
     159A      4.516014   160A      4.517663   161A      4.577113
     162A      4.579461   163A      4.617536   164A      4.709473
     165A      4.773282   166A      4.775923   167A      4.836913
     168A      4.962864   169A      5.001838   170A      5.004124
     171A      5.227819   172A      5.243087   173A      5.250534
     174A      5.352571   175A      5.358627   176A      5.479414

    Beta Occupied:

       1A    -10.168447     2A    -10.167707     3A    -10.167174
       4A    -10.166515     5A     -0.781096     6A     -0.684382
       7A     -0.683596     8A     -0.511747     9A     -0.431332
      10A     -0.430754    11A     -0.421824    12A     -0.376963
      13A     -0.376403    14A     -0.362595    15A     -0.333401
      16A     -0.332839

    Beta Virtual:

      17A     -0.025744    18A      0.077079    19A      0.134781
      20A      0.135296    21A      0.144358    22A      0.144649
      23A      0.163335    24A      0.182063    25A      0.182842
      26A      0.215040    27A      0.218926    28A      0.282147
      29A      0.282521    30A      0.400252    31A      0.400536
      32A      0.419798    33A      0.426734    34A      0.427093
      35A      0.468505    36A      0.497234    37A      0.498060
      38A      0.513909    39A      0.556327    40A      0.584095
      41A      0.584609    42A      0.597528    43A      0.598089
      44A      0.610008    45A      0.628153    46A      0.631882
      47A      0.639140    48A      0.639978    49A      0.666667
      50A      0.667289    51A      0.686095    52A      0.686902
      53A      0.757516    54A      0.829628    55A      0.831499
      56A      0.855270    57A      0.922748    58A      0.923248
      59A      0.945916    60A      0.953427    61A      0.966336
      62A      0.967074    63A      1.008709    64A      1.130940
      65A      1.133358    66A      1.155583    67A      1.167814
      68A      1.168870    69A      1.232302    70A      1.279541
      71A      1.280643    72A      1.285106    73A      1.328925
      74A      1.329754    75A      1.365386    76A      1.370413
      77A      1.372126    78A      1.393496    79A      1.406687
      80A      1.408418    81A      1.421553    82A      1.422770
      83A      1.428205    84A      1.492485    85A      1.509512
      86A      1.546765    87A      1.547720    88A      1.580627
      89A      1.584127    90A      1.674639    91A      1.744122
      92A      1.746176    93A      1.779136    94A      1.833657
      95A      1.836928    96A      1.972563    97A      2.023949
      98A      2.026911    99A      2.039634   100A      2.057013
     101A      2.061866   102A      2.746264   103A      2.747379
     104A      2.811854   105A      2.816057   106A      2.902420
     107A      2.902834   108A      2.924656   109A      2.931878
     110A      2.932078   111A      2.960066   112A      2.967900
     113A      2.969982   114A      3.041957   115A      3.079900
     116A      3.082338   117A      3.086355   118A      3.183879
     119A      3.185178   120A      3.188282   121A      3.289464
     122A      3.290760   123A      3.330016   124A      3.331931
     125A      3.383474   126A      3.491937   127A      3.493762
     128A      3.512414   129A      3.528370   130A      3.574753
     131A      3.580678   132A      3.583118   133A      3.670268
     134A      3.671931   135A      3.692976   136A      3.725149
     137A      3.726324   138A      3.780337   139A      3.782331
     140A      3.817762   141A      3.920540   142A      3.923537
     143A      4.045339   144A      4.116673   145A      4.119565
     146A      4.152830   147A      4.157750   148A      4.187355
     149A      4.206435   150A      4.210058   151A      4.211940
     152A      4.215839   153A      4.322814   154A      4.323950
     155A      4.362336   156A      4.432194   157A      4.432851
     158A      4.446632   159A      4.523908   160A      4.525343
     161A      4.587655   162A      4.590120   163A      4.624728
     164A      4.719818   165A      4.780194   166A      4.782916
     167A      4.839832   168A      4.967659   169A      5.005885
     170A      5.008155   171A      5.233527   172A      5.244878
     173A      5.252324   174A      5.359057   175A      5.365097
     176A      5.481735

    Final Occupation by Irrep:
              A
    DOCC [    16 ]
    SOCC [     1 ]

  @DF-UKS Final Energy:  -157.81304924714112

   => Energetics <=

    Nuclear Repulsion Energy =            125.3949023527288773
    One-Electron Energy =                -458.7494154022884914
    Two-Electron Energy =                 195.8486143285019807
    DFT Exchange-Correlation Energy =     -20.3071505260835004
    Empirical Dispersion Energy =           0.0000000000000000
    VV10 Nonlocal Energy =                  0.0000000000000000
    Total Energy =                       -157.8130492471411230

  UHF NO Occupations:
  HONO-2 :   15  A 1.9996009
  HONO-1 :   16  A 1.9989804
  HONO-0 :   17  A 1.0000000
  LUNO+0 :   18  A 0.0010196
  LUNO+1 :   19  A 0.0003991
  LUNO+2 :   20  A 0.0001979
  LUNO+3 :   21  A 0.0001972

Computation Completed

Properties will be evaluated at   0.000000,   0.000000,   0.000000 [a0]

Properties computed using the SCF density matrix

  Nuclear Dipole Moment: [e a0]
     X:     0.8272      Y:     0.0025      Z:     0.0102

  Electronic Dipole Moment: [e a0]
     X:    -0.7493      Y:    -0.0049      Z:    -0.0110

  Dipole Moment: [e a0]
     X:     0.0779      Y:    -0.0025      Z:    -0.0008     Total:     0.0780

  Dipole Moment: [D]
     X:     0.1980      Y:    -0.0063      Z:    -0.0019     Total:     0.1981

*** tstop() called on n091 at Fri Nov  5 15:14:41 2021
Module time:
	user time   =     626.37 seconds =      10.44 minutes
	system time =       5.75 seconds =       0.10 minutes
	total time  =        159 seconds =       2.65 minutes
Total time:
	user time   =     626.37 seconds =      10.44 minutes
	system time =       5.75 seconds =       0.10 minutes
	total time  =        159 seconds =       2.65 minutes
Grab this energy -157.81304924714112
    Psi4 stopped on: Friday, 05 November 2021 03:14PM
    Psi4 wall time for execution: 0:02:38.76

*** Psi4 exiting successfully. Buy a developer a beer!
