                               Psi4 1.4a2.dev629

  ==> Input File <==

--------------------------------------------------------------------------
import os
memory 14 GB

molecule {
 C   -0.3233623317   -0.0004353951    0.0000000000
 C    0.0612026009   -1.4015634514   -2.4251629254
 C    0.0606174399    2.8012070297    0.0000000000
 C    0.0612026009   -1.4015634514    2.4251629254
 H    2.0896351867   -1.6465438696   -2.8456187699
 H   -0.7695360106   -0.3840667540   -4.0289226278
 H   -0.7641428857   -3.2926908384   -2.3478300207
 H    2.0908636918    3.2877317674    0.0000000000
 H   -0.7675222296    3.6806010556    1.6783724709
 H   -0.7675222296    3.6806010556   -1.6783724709
 H    2.0896351867   -1.6465438696    2.8456187699
 H   -0.7641428857   -3.2926908384    2.3478300207
 H   -0.7695360106   -0.3840667540    4.0289226278
units bohr
0 2
}

basis {

assign 6-31g_2dfp_

[ 6-31g_2dfp_ ]

spherical

!----------------------------------------------------------------------
! Basis Set Exchange
! Version v0.8.13
! https://www.basissetexchange.org
!----------------------------------------------------------------------
!   Basis set: 6-31G(2df,p)
! Description: 6-31G(2df,p)
!        Role: orbital
!     Version: 0  (Data from the original Basis Set Exchange)
!----------------------------------------------------------------------

****
H     0
S    3   1.00
     18.7311370              0.03349460
      2.8253937              0.23472695
      0.6401217              0.81375733
S    1   1.00
      0.1612778              1.00000000
P    1   1.00
      1.5000000              1.0000000
P    1   1.00
      0.3750000              1.0000000
****
B     0
S    6   1.00
   2068.8823000              0.0018663
    310.6495700              0.0142515
     70.6830330              0.0695516
     19.8610800              0.2325729
      6.2993048              0.4670787
      2.1270270              0.3634314
SP   3   1.00
      4.7279710             -0.1303938              0.0745976
      1.1903377             -0.1307889              0.3078467
      0.3594117              1.1309444              0.7434568
SP   1   1.00
      0.1267512              1.0000000              1.0000000
D    1   1.00
      0.8020000              1.0000000
D    1   1.00
      0.2005000              1.0000000
F    1   1.00
      0.5000000              1.0000000
****
C     0
S    6   1.00
   3047.5249000              0.0018347
    457.3695100              0.0140373
    103.9486900              0.0688426
     29.2101550              0.2321844
      9.2866630              0.4679413
      3.1639270              0.3623120
SP   3   1.00
      7.8682724             -0.1193324              0.0689991
      1.8812885             -0.1608542              0.3164240
      0.5442493              1.1434564              0.7443083
SP   1   1.00
      0.1687144              1.0000000              1.0000000
D    1   1.00
      1.2520000              1.0000000
D    1   1.00
      0.3130000              1.0000000
F    1   1.00
      0.8000000              1.0000000
****
N     0
S    6   1.00
   4173.5110000              0.0018348
    627.4579000              0.0139950
    142.9021000              0.0685870
     40.2343300              0.2322410
     12.8202100              0.4690700
      4.3904370              0.3604550
SP   3   1.00
     11.6263580             -0.1149610              0.0675800
      2.7162800             -0.1691180              0.3239070
      0.7722180              1.1458520              0.7408950
SP   1   1.00
      0.2120313              1.0000000              1.0000000
D    1   1.00
      1.8260000              1.0000000
D    1   1.00
      0.4565000              1.0000000
F    1   1.00
      1.0000000              1.0000000
****
O     0
S    6   1.00
   5484.6717000              0.0018311
    825.2349500              0.0139501
    188.0469600              0.0684451
     52.9645000              0.2327143
     16.8975700              0.4701930
      5.7996353              0.3585209
SP   3   1.00
     15.5396160             -0.1107775              0.0708743
      3.5999336             -0.1480263              0.3397528
      1.0137618              1.1307670              0.7271586
SP   1   1.00
      0.2700058              1.0000000              1.0000000
D    1   1.00
      2.5840000              1.0000000
D    1   1.00
      0.6460000              1.0000000
F    1   1.00
      1.4000000              1.0000000
****
F     0
S    6   1.00
   7001.7130900              0.0018196169
   1051.3660900              0.0139160796
    239.2856900              0.0684053245
     67.3974453              0.233185760
     21.5199573              0.471267439
      7.40310130             0.356618546
SP   3   1.00
     20.8479528             -0.108506975            0.0716287243
      4.80830834            -0.146451658            0.3459121030
      1.34406986             1.128688580            0.7224699570
SP   1   1.00
      0.358151393            1.0000000              1.0000000
D    1   1.00
      3.5000000              1.0000000
D    1   1.00
      0.8750000              1.0000000
F    1   1.00
      1.8500000              1.0000000
****
Al     0
S    6   1.00
  13983.1000000              0.00194267
   2098.7500000              0.0148599
    477.7050000              0.0728494
    134.3600000              0.2468300
     42.8709000              0.4872580
     14.5189000              0.3234960
SP   6   1.00
    239.6680000             -0.00292619             0.00460285
     57.4419000             -0.0374080              0.0331990
     18.2859000             -0.1144870              0.1362820
      6.5991400              0.1156350              0.3304760
      2.4904900              0.6125950              0.4491460
      0.9445400              0.3937990              0.2657040
SP   3   1.00
      1.2779000             -0.2276060             -0.0175130
      0.3975900              0.00144583             0.2445330
      0.1600950              1.0927900              0.8049340
SP   1   1.00
      0.0556577              1.0000000              1.0000000
D    1   1.00
      0.6500000              1.0000000
D    1   1.00
      0.1625000              1.0000000
F    1   1.00
      0.2500000              1.0000000
****
Si     0
S    6   1.00
  16115.9000000              0.00195948
   2425.5800000              0.01492880
    553.8670000              0.07284780
    156.3400000              0.24613000
     50.0683000              0.48591400
     17.0178000              0.32500200
SP   6   1.00
    292.7180000             -0.00278094             0.00443826
     69.8731000             -0.03571460             0.03266790
     22.3363000             -0.11498500             0.13472100
      8.1503900              0.09356340             0.32867800
      3.1345800              0.60301700             0.44964000
      1.2254300              0.41895900             0.26137200
SP   3   1.00
      1.7273800             -0.24463000            -0.01779510
      0.5729220              0.00431572             0.25353900
      0.2221920              1.09818000             0.80066900
SP   1   1.00
      0.0778369              1.00000000             1.00000000
D    1   1.00
      0.9000000              1.0000000
D    1   1.00
      0.2250000              1.0000000
F    1   1.00
      0.3200000              1.0000000
****
P     0
S    6   1.00
  19413.3000000              0.0018516
   2909.4200000              0.0142062
    661.3640000              0.0699995
    185.7590000              0.2400790
     59.1943000              0.4847620
     20.0310000              0.3352000
SP   6   1.00
    339.4780000             -0.00278217             0.00456462
     81.0101000             -0.0360499              0.03369360
     25.8780000             -0.1166310              0.13975500
      9.4522100              0.0968328              0.33936200
      3.6656600              0.6144180              0.45092100
      1.4674600              0.4037980              0.23858600
SP   3   1.00
      2.1562300             -0.2529230             -0.01776530
      0.7489970              0.0328517              0.27405800
      0.2831450              1.0812500              0.78542100
SP   1   1.00
      0.0998317              1.0000000              1.00000000
D    1   1.00
      1.1000000              1.0000000
D    1   1.00
      0.2750000              1.0000000
F    1   1.00
      0.4500000              1.0000000
****
S     0
S    6   1.00
  21917.1000000              0.0018690
   3301.4900000              0.0142300
    754.1460000              0.0696960
    212.7110000              0.2384870
     67.9896000              0.4833070
     23.0515000              0.3380740
SP   6   1.00
    423.7350000             -0.0023767              0.0040610
    100.7100000             -0.0316930              0.0306810
     32.1599000             -0.1133170              0.1304520
     11.8079000              0.0560900              0.3272050
      4.6311000              0.5922550              0.4528510
      1.8702500              0.4550060              0.2560420
SP   3   1.00
      2.6158400             -0.2503740             -0.0145110
      0.9221670              0.0669570              0.3102630
      0.3412870              1.0545100              0.7544830
SP   1   1.00
      0.1171670              1.0000000              1.0000000
D    1   1.00
      1.3000000              1.0000000
D    1   1.00
      0.3250000              1.0000000
F    1   1.00
      0.5500000              1.0000000
****
Cl     0
S    6   1.00
  25180.1000000              0.0018330
   3780.3500000              0.0140340
    860.4740000              0.0690970
    242.1450000              0.2374520
     77.3349000              0.4830340
     26.2470000              0.3398560
SP   6   1.00
    491.7650000             -0.0022974              0.0039894
    116.9840000             -0.0307140              0.0303180
     37.4153000             -0.1125280              0.1298800
     13.7834000              0.0450160              0.3279510
      5.4521500              0.5893530              0.4535270
      2.2258800              0.4652060              0.2521540
SP   3   1.00
      3.1864900             -0.2518300             -0.0142990
      1.1442700              0.0615890              0.3235720
      0.4203770              1.0601800              0.7435070
SP   1   1.00
      0.1426570              1.0000000              1.0000000
D    1   1.00
      1.5000000              1.0000000
D    1   1.00
      0.3750000              1.0000000
F    1   1.00
      0.7000000              1.0000000
****
}

set {
reference uhf
freeze_core true
e_convergence 10
d_convergence 10
dft_spherical_points 1202
dft_radial_points 99
}

e = energy('b3lyp')

print_out('Grab this energy {0}'.format(e))
--------------------------------------------------------------------------

    Molecular point group: cs

    Geometry (in Bohr), charge = 0, multiplicity = 2:

       Center              X                  Y                   Z               Mass
    ------------   -----------------  -----------------  -----------------  -----------------
         C           -0.323304606330     0.000018675881     0.000000000000    12.000000000000
         C            0.061260326270    -1.401109380419    -2.425162925400    12.000000000000
         C            0.060675165270     2.801661100681     0.000000000000    12.000000000000
         C            0.061260326270    -1.401109380419     2.425162925400    12.000000000000
         H            2.089692912070    -1.646089798619    -2.845618769900     1.007825032230
         H           -0.769478285230    -0.383612683019    -4.028922627800     1.007825032230
         H           -0.764085160330    -3.292236767419    -2.347830020700     1.007825032230
         H            2.090921417170     3.288185838381     0.000000000000     1.007825032230
         H           -0.767464504230     3.681055126581     1.678372470900     1.007825032230
         H           -0.767464504230     3.681055126581    -1.678372470900     1.007825032230
         H            2.089692912070    -1.646089798619     2.845618769900     1.007825032230
         H           -0.764085160330    -3.292236767419     2.347830020700     1.007825032230
         H           -0.769478285230    -0.383612683019     4.028922627800     1.007825032230

  Charge       = 0
  Multiplicity = 2
  Basis Set: ANONYMOUS8AA71218
    Blend: 6-31G_2DFP_
  Basis Set: (ANONYMOUS8AA71218 AUX)
    Blend: DEF2-UNIVERSAL-JKFIT

    Orbital Energies [Eh]
    ---------------------

    Alpha Occupied:

       1Ap   -10.180410     1App  -10.167569     2Ap   -10.167563
       3Ap   -10.167519     4Ap    -0.797806     5Ap    -0.685889
       2App   -0.685769     6Ap    -0.530467     7Ap    -0.441025
       3App   -0.434720     8Ap    -0.434341     4App   -0.382363
       9Ap    -0.382318     5App   -0.363296    10Ap    -0.338156
       6App   -0.337830    11Ap    -0.169023

    Alpha Virtual:

      12Ap     0.075738     7App    0.133670    13Ap     0.133901
      14Ap     0.142009     8App    0.142426    15Ap     0.154584
      16Ap     0.178179     9App    0.178363    17Ap     0.203657
      10App    0.214348    18Ap     0.275854    11App    0.276072
      12App    0.399040    19Ap     0.399524    20Ap     0.403137
      13App    0.423662    21Ap     0.423984    22Ap     0.456459
      14App    0.495116    23Ap     0.495218    15App    0.511892
      24Ap     0.513846    25Ap     0.578418    16App    0.578544
      26Ap     0.590887    17App    0.591173    27Ap     0.601922
      28Ap     0.623746    18App    0.631070    29Ap     0.635458
      19App    0.635966    30Ap     0.662870    20App    0.663288
      21App    0.683123    31Ap     0.683505    32Ap     0.734684
      33Ap     0.824341    22App    0.824839    23App    0.853398
      24App    0.914099    34Ap     0.914529    25App    0.943502
      35Ap     0.943818    26App    0.960545    36Ap     0.960736
      37Ap     1.003356    27App    1.127421    38Ap     1.127965
      39Ap     1.141349    28App    1.162959    40Ap     1.163067
      41Ap     1.222879    42Ap     1.273709    29App    1.274197
      43Ap     1.279805    44Ap     1.323425    30App    1.323853
      45Ap     1.355136    46Ap     1.365258    31App    1.365844
      32App    1.391864    47Ap     1.402975    33App    1.403068
      34App    1.415474    48Ap     1.416873    35App    1.427147
      36App    1.490610    49Ap     1.497714    37App    1.542306
      50Ap     1.542334    51Ap     1.574079    38App    1.574487
      52Ap     1.667668    53Ap     1.737263    39App    1.738701
      54Ap     1.766809    40App    1.828125    55Ap     1.829703
      41App    1.970125    56Ap     2.016371    57Ap     2.018090
      42App    2.018440    58Ap     2.051053    43App    2.052085
      59Ap     2.737327    44App    2.737690    60Ap     2.790712
      45App    2.810915    61Ap     2.889232    46App    2.889545
      62Ap     2.894865    63Ap     2.929095    47App    2.929139
      48App    2.958344    64Ap     2.963677    49App    2.963824
      65Ap     3.033109    50App    3.069730    66Ap     3.070892
      51App    3.083511    67Ap     3.169028    52App    3.169869
      68Ap     3.180293    53App    3.285192    69Ap     3.285506
      70Ap     3.327291    54App    3.328058    71Ap     3.376322
      55App    3.490872    72Ap     3.491442    56App    3.514311
      73Ap     3.525955    57App    3.567755    74Ap     3.568650
      58App    3.576795    75Ap     3.665187    59App    3.666130
      76Ap     3.677814    60App    3.693098    77Ap     3.693539
      78Ap     3.776105    61App    3.776393    79Ap     3.788566
      62App    3.910695    80Ap     3.911868    81Ap     4.032092
      82Ap     4.108337    63App    4.109396    64App    4.144498
      83Ap     4.145044    84Ap     4.170388    65App    4.200761
      85Ap     4.201264    86Ap     4.202481    66App    4.207311
      67App    4.313097    87Ap     4.314370    68App    4.356566
      88Ap     4.421343    69App    4.422421    70App    4.441422
      89Ap     4.513366    71App    4.515460    72App    4.576782
      90Ap     4.576796    91Ap     4.616861    92Ap     4.707411
      93Ap     4.771869    73App    4.773803    74App    4.834556
      94Ap     4.962090    95Ap     5.001493    75App    5.002252
      96Ap     5.222295    76App    5.241394    97Ap     5.242043
      98Ap     5.349696    77App    5.352173    78App    5.476194

    Beta Occupied:

       1App  -10.168325     1Ap   -10.168319     2Ap   -10.168290
       3Ap   -10.166602     4Ap    -0.781104     5Ap    -0.683695
       2App   -0.683572     6Ap    -0.511496     3App   -0.431082
       7Ap    -0.430706     8Ap    -0.421685     4App   -0.376435
       9Ap    -0.376399     5App   -0.362277    10Ap    -0.333284
       6App   -0.332967

    Beta Virtual:

      11Ap    -0.025976    12Ap     0.076750     7App    0.134528
      13Ap     0.134808    14Ap     0.143881     8App    0.144351
      15Ap     0.163105    16Ap     0.181860     9App    0.182043
      10App    0.214580    17Ap     0.219020    18Ap     0.282193
      11App    0.282410    12App    0.400209    19Ap     0.400704
      20Ap     0.419568    13App    0.426471    21Ap     0.426794
      22Ap     0.468385    14App    0.497372    23Ap     0.497485
      15App    0.513633    24Ap     0.556133    25Ap     0.583953
      16App    0.584075    26Ap     0.597021    17App    0.597356
      27Ap     0.609359    28Ap     0.627136    18App    0.631233
      29Ap     0.638785    19App    0.639251    30Ap     0.666444
      20App    0.666831    21App    0.685817    31Ap     0.686152
      32Ap     0.757183    33Ap     0.829523    22App    0.829998
      23App    0.854775    24App    0.922104    34Ap     0.922495
      25App    0.945339    35Ap     0.952722    26App    0.965842
      36Ap     0.966069    37Ap     1.008584    27App    1.131465
      38Ap     1.132004    39Ap     1.154738    28App    1.168008
      40Ap     1.168106    41Ap     1.231869    42Ap     1.279300
      29App    1.279824    43Ap     1.285572    44Ap     1.328390
      30App    1.328814    45Ap     1.364529    46Ap     1.370567
      31App    1.371025    32App    1.392928    47Ap     1.406425
      33App    1.406555    34App    1.420573    48Ap     1.421875
      35App    1.427426    36App    1.491654    49Ap     1.508157
      37App    1.546818    50Ap     1.546903    51Ap     1.581840
      38App    1.582249    52Ap     1.672442    53Ap     1.743007
      39App    1.744470    54Ap     1.777643    40App    1.832005
      55Ap     1.833594    41App    1.970989    56Ap     2.023661
      42App    2.024834    57Ap     2.038627    58Ap     2.057770
      43App    2.058813    59Ap     2.745640    44App    2.746025
      45App    2.811324    60Ap     2.815823    61Ap     2.901831
      46App    2.902230    62Ap     2.924537    47App    2.931625
      63Ap     2.931670    48App    2.959414    64Ap     2.968174
      49App    2.968320    65Ap     3.041124    50App    3.079479
      66Ap     3.080744    51App    3.085428    67Ap     3.184845
      52App    3.185632    68Ap     3.187930    53App    3.290035
      69Ap     3.290371    70Ap     3.331053    54App    3.331888
      71Ap     3.384117    55App    3.493569    72Ap     3.494115
      56App    3.512669    73Ap     3.528985    57App    3.576661
      58App    3.580992    74Ap     3.582047    75Ap     3.669791
      59App    3.670505    76Ap     3.691057    60App    3.725046
      77Ap     3.725131    78Ap     3.780623    61App    3.780964
      79Ap     3.817078    62App    3.920459    80Ap     3.921764
      81Ap     4.042856    82Ap     4.114868    63App    4.116345
      64App    4.151516    83Ap     4.152537    84Ap     4.184568
      65App    4.206700    85Ap     4.208392    86Ap     4.209313
      66App    4.211834    67App    4.320663    87Ap     4.321851
      68App    4.359938    88Ap     4.429608    69App    4.430641
      70App    4.444324    89Ap     4.521160    71App    4.523268
      90Ap     4.587398    72App    4.587449    91Ap     4.624062
      92Ap     4.717759    93Ap     4.778854    73App    4.780733
      74App    4.837467    94Ap     4.966911    95Ap     5.005555
      75App    5.006309    96Ap     5.227930    76App    5.243199
      97Ap     5.243929    98Ap     5.356212    77App    5.358667
      78App    5.478529

    Final Occupation by Irrep:
             Ap   App
    DOCC [    10,    6 ]
    SOCC [     1,    0 ]

  @DF-UKS Final Energy:  -157.81308073013554

   => Energetics <=

    Nuclear Repulsion Energy =            125.3573153676547065
    One-Electron Energy =                -458.6781279816816550
    Two-Electron Energy =                 195.8108581820254415
    DFT Exchange-Correlation Energy =     -20.3031262981339893
    Empirical Dispersion Energy =           0.0000000000000000
    VV10 Nonlocal Energy =                  0.0000000000000000
    Total Energy =                       -157.8130807301355389

  UHF NO Occupations:
  HONO-2 :    9 Ap 1.9995983
  HONO-1 :   10 Ap 1.9989811
  HONO-0 :   11 Ap 1.0000000
  LUNO+0 :   12 Ap 0.0010189
  LUNO+1 :   13 Ap 0.0004017
  LUNO+2 :    7App 0.0001972
  LUNO+3 :   14 Ap 0.0001972

Computation Completed

Properties will be evaluated at   0.000000,   0.000000,   0.000000 [a0]

Properties computed using the SCF density matrix

  Nuclear Dipole Moment: [e a0]
     X:     0.8276      Y:     0.0032      Z:     0.0000

  Electronic Dipole Moment: [e a0]
     X:    -0.7503      Y:    -0.0049      Z:     0.0000

  Dipole Moment: [e a0]
     X:     0.0773      Y:    -0.0017      Z:     0.0000     Total:     0.0773

  Dipole Moment: [D]
     X:     0.1964      Y:    -0.0044      Z:     0.0000     Total:     0.1965

*** tstop() called on n070 at Fri Nov  5 14:25:23 2021
Module time:
	user time   =     588.48 seconds =       9.81 minutes
	system time =      14.62 seconds =       0.24 minutes
	total time  =        152 seconds =       2.53 minutes
Total time:
	user time   =     588.48 seconds =       9.81 minutes
	system time =      14.62 seconds =       0.24 minutes
	total time  =        152 seconds =       2.53 minutes
Grab this energy -157.81308073013554
    Psi4 stopped on: Friday, 05 November 2021 02:25PM
    Psi4 wall time for execution: 0:02:32.10

*** Psi4 exiting successfully. Buy a developer a beer!
