                               Psi4 1.4a2.dev629

  ==> Input File <==

--------------------------------------------------------------------------
import os
memory 14 GB

molecule {
 C   -0.3233408140   -0.0000025626    0.0019976425
 C    0.0612726328   -1.4031318691   -2.4259259977
 C    0.0610209811    2.8017579169   -0.0004458235
 C    0.0610049366   -1.3986264243    2.4268343637
 H    2.0867395467   -1.6473203842   -2.8501644944
 H   -0.7649550066   -0.3855077296   -4.0235010638
 H   -0.7668922051   -3.2933097432   -2.3513292106
 H    2.0867914500    3.2881084026    0.0047153247
 H   -0.7668206074    3.6858127072    1.6759999241
 H   -0.7644678106    3.6746971799   -1.6769858496
 H    2.0871301997   -1.6408757230    2.8447084933
 H   -0.7642473412   -3.2906881852    2.3466430895
 H   -0.7658438388   -0.3909378989    4.0274536018
units bohr
0 2
}

basis {

assign 6-31g_2dfp_

[ 6-31g_2dfp_ ]

spherical

!----------------------------------------------------------------------
! Basis Set Exchange
! Version v0.8.13
! https://www.basissetexchange.org
!----------------------------------------------------------------------
!   Basis set: 6-31G(2df,p)
! Description: 6-31G(2df,p)
!        Role: orbital
!     Version: 0  (Data from the original Basis Set Exchange)
!----------------------------------------------------------------------

****
H     0
S    3   1.00
     18.7311370              0.03349460
      2.8253937              0.23472695
      0.6401217              0.81375733
S    1   1.00
      0.1612778              1.00000000
P    1   1.00
      1.5000000              1.0000000
P    1   1.00
      0.3750000              1.0000000
****
B     0
S    6   1.00
   2068.8823000              0.0018663
    310.6495700              0.0142515
     70.6830330              0.0695516
     19.8610800              0.2325729
      6.2993048              0.4670787
      2.1270270              0.3634314
SP   3   1.00
      4.7279710             -0.1303938              0.0745976
      1.1903377             -0.1307889              0.3078467
      0.3594117              1.1309444              0.7434568
SP   1   1.00
      0.1267512              1.0000000              1.0000000
D    1   1.00
      0.8020000              1.0000000
D    1   1.00
      0.2005000              1.0000000
F    1   1.00
      0.5000000              1.0000000
****
C     0
S    6   1.00
   3047.5249000              0.0018347
    457.3695100              0.0140373
    103.9486900              0.0688426
     29.2101550              0.2321844
      9.2866630              0.4679413
      3.1639270              0.3623120
SP   3   1.00
      7.8682724             -0.1193324              0.0689991
      1.8812885             -0.1608542              0.3164240
      0.5442493              1.1434564              0.7443083
SP   1   1.00
      0.1687144              1.0000000              1.0000000
D    1   1.00
      1.2520000              1.0000000
D    1   1.00
      0.3130000              1.0000000
F    1   1.00
      0.8000000              1.0000000
****
N     0
S    6   1.00
   4173.5110000              0.0018348
    627.4579000              0.0139950
    142.9021000              0.0685870
     40.2343300              0.2322410
     12.8202100              0.4690700
      4.3904370              0.3604550
SP   3   1.00
     11.6263580             -0.1149610              0.0675800
      2.7162800             -0.1691180              0.3239070
      0.7722180              1.1458520              0.7408950
SP   1   1.00
      0.2120313              1.0000000              1.0000000
D    1   1.00
      1.8260000              1.0000000
D    1   1.00
      0.4565000              1.0000000
F    1   1.00
      1.0000000              1.0000000
****
O     0
S    6   1.00
   5484.6717000              0.0018311
    825.2349500              0.0139501
    188.0469600              0.0684451
     52.9645000              0.2327143
     16.8975700              0.4701930
      5.7996353              0.3585209
SP   3   1.00
     15.5396160             -0.1107775              0.0708743
      3.5999336             -0.1480263              0.3397528
      1.0137618              1.1307670              0.7271586
SP   1   1.00
      0.2700058              1.0000000              1.0000000
D    1   1.00
      2.5840000              1.0000000
D    1   1.00
      0.6460000              1.0000000
F    1   1.00
      1.4000000              1.0000000
****
F     0
S    6   1.00
   7001.7130900              0.0018196169
   1051.3660900              0.0139160796
    239.2856900              0.0684053245
     67.3974453              0.233185760
     21.5199573              0.471267439
      7.40310130             0.356618546
SP   3   1.00
     20.8479528             -0.108506975            0.0716287243
      4.80830834            -0.146451658            0.3459121030
      1.34406986             1.128688580            0.7224699570
SP   1   1.00
      0.358151393            1.0000000              1.0000000
D    1   1.00
      3.5000000              1.0000000
D    1   1.00
      0.8750000              1.0000000
F    1   1.00
      1.8500000              1.0000000
****
Al     0
S    6   1.00
  13983.1000000              0.00194267
   2098.7500000              0.0148599
    477.7050000              0.0728494
    134.3600000              0.2468300
     42.8709000              0.4872580
     14.5189000              0.3234960
SP   6   1.00
    239.6680000             -0.00292619             0.00460285
     57.4419000             -0.0374080              0.0331990
     18.2859000             -0.1144870              0.1362820
      6.5991400              0.1156350              0.3304760
      2.4904900              0.6125950              0.4491460
      0.9445400              0.3937990              0.2657040
SP   3   1.00
      1.2779000             -0.2276060             -0.0175130
      0.3975900              0.00144583             0.2445330
      0.1600950              1.0927900              0.8049340
SP   1   1.00
      0.0556577              1.0000000              1.0000000
D    1   1.00
      0.6500000              1.0000000
D    1   1.00
      0.1625000              1.0000000
F    1   1.00
      0.2500000              1.0000000
****
Si     0
S    6   1.00
  16115.9000000              0.00195948
   2425.5800000              0.01492880
    553.8670000              0.07284780
    156.3400000              0.24613000
     50.0683000              0.48591400
     17.0178000              0.32500200
SP   6   1.00
    292.7180000             -0.00278094             0.00443826
     69.8731000             -0.03571460             0.03266790
     22.3363000             -0.11498500             0.13472100
      8.1503900              0.09356340             0.32867800
      3.1345800              0.60301700             0.44964000
      1.2254300              0.41895900             0.26137200
SP   3   1.00
      1.7273800             -0.24463000            -0.01779510
      0.5729220              0.00431572             0.25353900
      0.2221920              1.09818000             0.80066900
SP   1   1.00
      0.0778369              1.00000000             1.00000000
D    1   1.00
      0.9000000              1.0000000
D    1   1.00
      0.2250000              1.0000000
F    1   1.00
      0.3200000              1.0000000
****
P     0
S    6   1.00
  19413.3000000              0.0018516
   2909.4200000              0.0142062
    661.3640000              0.0699995
    185.7590000              0.2400790
     59.1943000              0.4847620
     20.0310000              0.3352000
SP   6   1.00
    339.4780000             -0.00278217             0.00456462
     81.0101000             -0.0360499              0.03369360
     25.8780000             -0.1166310              0.13975500
      9.4522100              0.0968328              0.33936200
      3.6656600              0.6144180              0.45092100
      1.4674600              0.4037980              0.23858600
SP   3   1.00
      2.1562300             -0.2529230             -0.01776530
      0.7489970              0.0328517              0.27405800
      0.2831450              1.0812500              0.78542100
SP   1   1.00
      0.0998317              1.0000000              1.00000000
D    1   1.00
      1.1000000              1.0000000
D    1   1.00
      0.2750000              1.0000000
F    1   1.00
      0.4500000              1.0000000
****
S     0
S    6   1.00
  21917.1000000              0.0018690
   3301.4900000              0.0142300
    754.1460000              0.0696960
    212.7110000              0.2384870
     67.9896000              0.4833070
     23.0515000              0.3380740
SP   6   1.00
    423.7350000             -0.0023767              0.0040610
    100.7100000             -0.0316930              0.0306810
     32.1599000             -0.1133170              0.1304520
     11.8079000              0.0560900              0.3272050
      4.6311000              0.5922550              0.4528510
      1.8702500              0.4550060              0.2560420
SP   3   1.00
      2.6158400             -0.2503740             -0.0145110
      0.9221670              0.0669570              0.3102630
      0.3412870              1.0545100              0.7544830
SP   1   1.00
      0.1171670              1.0000000              1.0000000
D    1   1.00
      1.3000000              1.0000000
D    1   1.00
      0.3250000              1.0000000
F    1   1.00
      0.5500000              1.0000000
****
Cl     0
S    6   1.00
  25180.1000000              0.0018330
   3780.3500000              0.0140340
    860.4740000              0.0690970
    242.1450000              0.2374520
     77.3349000              0.4830340
     26.2470000              0.3398560
SP   6   1.00
    491.7650000             -0.0022974              0.0039894
    116.9840000             -0.0307140              0.0303180
     37.4153000             -0.1125280              0.1298800
     13.7834000              0.0450160              0.3279510
      5.4521500              0.5893530              0.4535270
      2.2258800              0.4652060              0.2521540
SP   3   1.00
      3.1864900             -0.2518300             -0.0142990
      1.1442700              0.0615890              0.3235720
      0.4203770              1.0601800              0.7435070
SP   1   1.00
      0.1426570              1.0000000              1.0000000
D    1   1.00
      1.5000000              1.0000000
D    1   1.00
      0.3750000              1.0000000
F    1   1.00
      0.7000000              1.0000000
****
}

set {
reference uhf
freeze_core true
e_convergence 10
d_convergence 10
dft_spherical_points 1202
dft_radial_points 99
}

e = energy('b3lyp')

print_out('Grab this energy {0}'.format(e))
--------------------------------------------------------------------------

    Molecular point group: c1

    Geometry (in Bohr), charge = 0, multiplicity = 2:

       Center              X                  Y                   Z               Mass
    ------------   -----------------  -----------------  -----------------  -----------------
         C           -0.323340375113    -0.000001567148     0.001523793149    12.000000000000
         C            0.061273071687    -1.403130873648    -2.426399847051    12.000000000000
         C            0.061021419987     2.801758912352    -0.000919672851    12.000000000000
         C            0.061005375487    -1.398625428848     2.426360514349    12.000000000000
         H            2.086739985587    -1.647319388748    -2.850638343751     1.007825032230
         H           -0.764954567713    -0.385506734148    -4.023974913151     1.007825032230
         H           -0.766891766213    -3.293308747748    -2.351803059951     1.007825032230
         H            2.086791888887     3.288109398052     0.004241475349     1.007825032230
         H           -0.766820168513     3.685813702652     1.675526074749     1.007825032230
         H           -0.764467371713     3.674698175352    -1.677459698951     1.007825032230
         H            2.087130638587    -1.640874727548     2.844234643949     1.007825032230
         H           -0.764246902313    -3.290687189748     2.346169240149     1.007825032230
         H           -0.765843399913    -0.390936903448     4.026979752449     1.007825032230

  Charge       = 0
  Multiplicity = 2
  Basis Set: ANONYMOUSF138A509
    Blend: 6-31G_2DFP_
  Basis Set: (ANONYMOUSF138A509 AUX)
    Blend: DEF2-UNIVERSAL-JKFIT

    Orbital Energies [Eh]
    ---------------------

    Alpha Occupied:

       1A    -10.180342     2A    -10.167175     3A    -10.167015
       4A    -10.166855     5A     -0.797767     6A     -0.686308
       7A     -0.686065     8A     -0.530776     9A     -0.441129
      10A     -0.434740    11A     -0.434600    12A     -0.382634
      13A     -0.382564    14A     -0.363611    15A     -0.338063
      16A     -0.337932    17A     -0.168960

    Alpha Virtual:

      18A      0.076072    19A      0.134124    20A      0.134187
      21A      0.142565    22A      0.142688    23A      0.154879
      24A      0.178739    25A      0.178818    26A      0.203546
      27A      0.214806    28A      0.275717    29A      0.276254
      30A      0.399189    31A      0.399261    32A      0.403352
      33A      0.424043    34A      0.424153    35A      0.456592
      36A      0.495331    37A      0.495449    38A      0.512152
      39A      0.513986    40A      0.578529    41A      0.579105
      42A      0.591337    43A      0.591925    44A      0.602576
      45A      0.624747    46A      0.631789    47A      0.636212
      48A      0.636289    49A      0.663378    50A      0.663444
      51A      0.683825    52A      0.683884    53A      0.734994
      54A      0.825191    55A      0.825622    56A      0.853916
      57A      0.914881    58A      0.915158    59A      0.944122
      60A      0.944614    61A      0.960607    62A      0.961985
      63A      1.003463    64A      1.127886    65A      1.128317
      66A      1.142219    67A      1.163172    68A      1.163383
      69A      1.223324    70A      1.274333    71A      1.274643
      72A      1.279347    73A      1.324351    74A      1.324360
      75A      1.355986    76A      1.365894    77A      1.366219
      78A      1.392463    79A      1.403744    80A      1.404370
      81A      1.416710    82A      1.417504    83A      1.427904
      84A      1.491455    85A      1.499124    86A      1.542553
      87A      1.543100    88A      1.574442    89A      1.574459
      90A      1.669830    91A      1.739048    92A      1.739796
      93A      1.768320    94A      1.830905    95A      1.831889
      96A      1.971729    97A      2.018029    98A      2.019042
      99A      2.019327   100A      2.051834   101A      2.053445
     102A      2.738206   103A      2.738761   104A      2.790922
     105A      2.811423   106A      2.889669   107A      2.890200
     108A      2.894987   109A      2.929478   110A      2.929521
     111A      2.958996   112A      2.964226   113A      2.964529
     114A      3.034009   115A      3.071152   116A      3.071415
     117A      3.084347   118A      3.168584   119A      3.168990
     120A      3.180584   121A      3.285269   122A      3.285357
     123A      3.326832   124A      3.327489   125A      3.375620
     126A      3.489991   127A      3.490308   128A      3.513993
     129A      3.525332   130A      3.568043   131A      3.568660
     132A      3.575247   133A      3.666186   134A      3.666530
     135A      3.679628   136A      3.693718   137A      3.694586
     138A      3.775571   139A      3.778051   140A      3.789152
     141A      3.911963   142A      3.912497   143A      4.034451
     144A      4.110102   145A      4.112622   146A      4.147231
     147A      4.148990   148A      4.173282   149A      4.202619
     150A      4.203028   151A      4.203135   152A      4.210863
     153A      4.315146   154A      4.316720   155A      4.359026
     156A      4.424200   157A      4.424709   158A      4.443440
     159A      4.516421   160A      4.517249   161A      4.577928
     162A      4.578592   163A      4.617526   164A      4.709458
     165A      4.773524   166A      4.775662   167A      4.836956
     168A      4.962860   169A      5.002595   170A      5.003302
     171A      5.228038   172A      5.246348   173A      5.247287
     174A      5.354783   175A      5.356221   176A      5.479359

    Beta Occupied:

       1A    -10.167933     2A    -10.167775     3A    -10.167617
       4A    -10.166519     5A     -0.781092     6A     -0.684104
       7A     -0.683875     8A     -0.511747     9A     -0.431105
      10A     -0.430984    11A     -0.421819    12A     -0.376715
      13A     -0.376653    14A     -0.362595    15A     -0.333182
      16A     -0.333059

    Beta Virtual:

      17A     -0.025742    18A      0.077081    19A      0.135021
      20A      0.135068    21A      0.144435    22A      0.144560
      23A      0.163338    24A      0.182428    25A      0.182471
      26A      0.215029    27A      0.218935    28A      0.282075
      29A      0.282592    30A      0.400362    31A      0.400433
      32A      0.419789    33A      0.426854    34A      0.426967
      35A      0.468500    36A      0.497594    37A      0.497707
      38A      0.513894    39A      0.556324    40A      0.584077
      41A      0.584656    42A      0.597531    43A      0.598091
      44A      0.609997    45A      0.628118    46A      0.631951
      47A      0.639478    48A      0.639595    49A      0.666941
      50A      0.667009    51A      0.686439    52A      0.686540
      53A      0.757517    54A      0.830337    55A      0.830812
      56A      0.855269    57A      0.922887    58A      0.923094
      59A      0.945961    60A      0.953536    61A      0.965971
      62A      0.967238    63A      1.008704    64A      1.131840
      65A      1.132420    66A      1.155598    67A      1.168322
      68A      1.168377    69A      1.232296    70A      1.279931
      71A      1.280239    72A      1.285101    73A      1.329331
      74A      1.329358    75A      1.365400    76A      1.371165
      77A      1.371431    78A      1.393526    79A      1.407182
      80A      1.407860    81A      1.421766    82A      1.422549
      83A      1.428174    84A      1.492522    85A      1.509548
      86A      1.546960    87A      1.547509    88A      1.582317
      89A      1.582329    90A      1.674676    91A      1.744802
      92A      1.745566    93A      1.779099    94A      1.834763
      95A      1.835742    96A      1.972589    97A      2.025385
      98A      2.025504    99A      2.039689   100A      2.058521
     101A      2.060186   102A      2.746558   103A      2.747082
     104A      2.811795   105A      2.816097   106A      2.902432
     107A      2.902844   108A      2.924663   109A      2.931972
     110A      2.931989   111A      2.960058   112A      2.968788
     113A      2.969055   114A      3.041944   115A      3.081071
     116A      3.081316   117A      3.086164   118A      3.184305
     119A      3.184777   120A      3.188258   121A      3.290042
     122A      3.290180   123A      3.330654   124A      3.331276
     125A      3.383439   126A      3.492738   127A      3.493019
     128A      3.512369   129A      3.528376   130A      3.574918
     131A      3.581428   132A      3.582133   133A      3.671061
     134A      3.671187   135A      3.692924   136A      3.725646
     137A      3.725888   138A      3.780141   139A      3.782531
     140A      3.817699   141A      3.921797   142A      3.922296
     143A      4.045337   144A      4.117030   145A      4.119327
     146A      4.154417   147A      4.156226   148A      4.187335
     149A      4.208942   150A      4.209065   151A      4.210615
     152A      4.215340   153A      4.322559   154A      4.324180
     155A      4.362394   156A      4.432463   157A      4.432878
     158A      4.446325   159A      4.524221   160A      4.525028
     161A      4.588530   162A      4.589190   163A      4.624722
     164A      4.719802   165A      4.780520   166A      4.782573
     167A      4.839875   168A      4.967654   169A      5.006625
     170A      5.007351   171A      5.233753   172A      5.248124
     173A      5.249079   174A      5.361241   175A      5.362723
     176A      5.481680

    Final Occupation by Irrep:
              A
    DOCC [    16 ]
    SOCC [     1 ]

  @DF-UKS Final Energy:  -157.81306679339269

   => Energetics <=

    Nuclear Repulsion Energy =            125.3946293547822535
    One-Electron Energy =                -458.7489163701489474
    Two-Electron Energy =                 195.8483633553737207
    DFT Exchange-Correlation Energy =     -20.3071431333996948
    Empirical Dispersion Energy =           0.0000000000000000
    VV10 Nonlocal Energy =                  0.0000000000000000
    Total Energy =                       -157.8130667933926929

  UHF NO Occupations:
  HONO-2 :   15  A 1.9996009
  HONO-1 :   16  A 1.9989805
  HONO-0 :   17  A 1.0000000
  LUNO+0 :   18  A 0.0010195
  LUNO+1 :   19  A 0.0003991
  LUNO+2 :   20  A 0.0001979
  LUNO+3 :   21  A 0.0001972

Computation Completed

Properties will be evaluated at   0.000000,   0.000000,   0.000000 [a0]

Properties computed using the SCF density matrix

  Nuclear Dipole Moment: [e a0]
     X:     0.8272      Y:    -0.0000      Z:    -0.0033

  Electronic Dipole Moment: [e a0]
     X:    -0.7493      Y:     0.0000      Z:     0.0034

  Dipole Moment: [e a0]
     X:     0.0779      Y:    -0.0000      Z:     0.0000     Total:     0.0779

  Dipole Moment: [D]
     X:     0.1980      Y:    -0.0000      Z:     0.0001     Total:     0.1980

*** tstop() called on n032 at Fri Nov  5 12:50:30 2021
Module time:
	user time   =     633.19 seconds =      10.55 minutes
	system time =      12.48 seconds =       0.21 minutes
	total time  =        162 seconds =       2.70 minutes
Total time:
	user time   =     633.19 seconds =      10.55 minutes
	system time =      12.48 seconds =       0.21 minutes
	total time  =        162 seconds =       2.70 minutes
Grab this energy -157.8130667933927
    Psi4 stopped on: Friday, 05 November 2021 12:50PM
    Psi4 wall time for execution: 0:02:42.31

*** Psi4 exiting successfully. Buy a developer a beer!
