                               Psi4 1.4a2.dev629

  ==> Input File <==

--------------------------------------------------------------------------
import os
memory 14 GB

molecule {
 C   -0.3218898782   -0.0000020118   -0.0000017745
 C    0.0602838981   -1.4009624969   -2.4264395211
 C    0.0601645875    2.8018535858   -0.0000454823
 C    0.0602848854   -1.4008868846    2.4264849983
 H    2.0869809338   -1.6481086425   -2.8450755403
 H   -0.7612304026   -0.3863365456   -4.0263091861
 H   -0.7694185094   -3.2904284975   -2.3501533971
 H    2.0868438589    3.2880594539   -0.0046526849
 H   -0.7614752890    3.6800270599    1.6785427044
 H   -0.7694907771    3.6804827015   -1.6745603428
 H    2.0869845966   -1.6400432736    2.8497309781
 H   -0.7613920843   -3.2936606798    2.3477723446
 H   -0.7692536965   -0.3900180823    4.0247069038
units bohr
0 2
}

basis {

assign 6-31g_2dfp_

[ 6-31g_2dfp_ ]

spherical

!----------------------------------------------------------------------
! Basis Set Exchange
! Version v0.8.13
! https://www.basissetexchange.org
!----------------------------------------------------------------------
!   Basis set: 6-31G(2df,p)
! Description: 6-31G(2df,p)
!        Role: orbital
!     Version: 0  (Data from the original Basis Set Exchange)
!----------------------------------------------------------------------

****
H     0
S    3   1.00
     18.7311370              0.03349460
      2.8253937              0.23472695
      0.6401217              0.81375733
S    1   1.00
      0.1612778              1.00000000
P    1   1.00
      1.5000000              1.0000000
P    1   1.00
      0.3750000              1.0000000
****
B     0
S    6   1.00
   2068.8823000              0.0018663
    310.6495700              0.0142515
     70.6830330              0.0695516
     19.8610800              0.2325729
      6.2993048              0.4670787
      2.1270270              0.3634314
SP   3   1.00
      4.7279710             -0.1303938              0.0745976
      1.1903377             -0.1307889              0.3078467
      0.3594117              1.1309444              0.7434568
SP   1   1.00
      0.1267512              1.0000000              1.0000000
D    1   1.00
      0.8020000              1.0000000
D    1   1.00
      0.2005000              1.0000000
F    1   1.00
      0.5000000              1.0000000
****
C     0
S    6   1.00
   3047.5249000              0.0018347
    457.3695100              0.0140373
    103.9486900              0.0688426
     29.2101550              0.2321844
      9.2866630              0.4679413
      3.1639270              0.3623120
SP   3   1.00
      7.8682724             -0.1193324              0.0689991
      1.8812885             -0.1608542              0.3164240
      0.5442493              1.1434564              0.7443083
SP   1   1.00
      0.1687144              1.0000000              1.0000000
D    1   1.00
      1.2520000              1.0000000
D    1   1.00
      0.3130000              1.0000000
F    1   1.00
      0.8000000              1.0000000
****
N     0
S    6   1.00
   4173.5110000              0.0018348
    627.4579000              0.0139950
    142.9021000              0.0685870
     40.2343300              0.2322410
     12.8202100              0.4690700
      4.3904370              0.3604550
SP   3   1.00
     11.6263580             -0.1149610              0.0675800
      2.7162800             -0.1691180              0.3239070
      0.7722180              1.1458520              0.7408950
SP   1   1.00
      0.2120313              1.0000000              1.0000000
D    1   1.00
      1.8260000              1.0000000
D    1   1.00
      0.4565000              1.0000000
F    1   1.00
      1.0000000              1.0000000
****
O     0
S    6   1.00
   5484.6717000              0.0018311
    825.2349500              0.0139501
    188.0469600              0.0684451
     52.9645000              0.2327143
     16.8975700              0.4701930
      5.7996353              0.3585209
SP   3   1.00
     15.5396160             -0.1107775              0.0708743
      3.5999336             -0.1480263              0.3397528
      1.0137618              1.1307670              0.7271586
SP   1   1.00
      0.2700058              1.0000000              1.0000000
D    1   1.00
      2.5840000              1.0000000
D    1   1.00
      0.6460000              1.0000000
F    1   1.00
      1.4000000              1.0000000
****
F     0
S    6   1.00
   7001.7130900              0.0018196169
   1051.3660900              0.0139160796
    239.2856900              0.0684053245
     67.3974453              0.233185760
     21.5199573              0.471267439
      7.40310130             0.356618546
SP   3   1.00
     20.8479528             -0.108506975            0.0716287243
      4.80830834            -0.146451658            0.3459121030
      1.34406986             1.128688580            0.7224699570
SP   1   1.00
      0.358151393            1.0000000              1.0000000
D    1   1.00
      3.5000000              1.0000000
D    1   1.00
      0.8750000              1.0000000
F    1   1.00
      1.8500000              1.0000000
****
Al     0
S    6   1.00
  13983.1000000              0.00194267
   2098.7500000              0.0148599
    477.7050000              0.0728494
    134.3600000              0.2468300
     42.8709000              0.4872580
     14.5189000              0.3234960
SP   6   1.00
    239.6680000             -0.00292619             0.00460285
     57.4419000             -0.0374080              0.0331990
     18.2859000             -0.1144870              0.1362820
      6.5991400              0.1156350              0.3304760
      2.4904900              0.6125950              0.4491460
      0.9445400              0.3937990              0.2657040
SP   3   1.00
      1.2779000             -0.2276060             -0.0175130
      0.3975900              0.00144583             0.2445330
      0.1600950              1.0927900              0.8049340
SP   1   1.00
      0.0556577              1.0000000              1.0000000
D    1   1.00
      0.6500000              1.0000000
D    1   1.00
      0.1625000              1.0000000
F    1   1.00
      0.2500000              1.0000000
****
Si     0
S    6   1.00
  16115.9000000              0.00195948
   2425.5800000              0.01492880
    553.8670000              0.07284780
    156.3400000              0.24613000
     50.0683000              0.48591400
     17.0178000              0.32500200
SP   6   1.00
    292.7180000             -0.00278094             0.00443826
     69.8731000             -0.03571460             0.03266790
     22.3363000             -0.11498500             0.13472100
      8.1503900              0.09356340             0.32867800
      3.1345800              0.60301700             0.44964000
      1.2254300              0.41895900             0.26137200
SP   3   1.00
      1.7273800             -0.24463000            -0.01779510
      0.5729220              0.00431572             0.25353900
      0.2221920              1.09818000             0.80066900
SP   1   1.00
      0.0778369              1.00000000             1.00000000
D    1   1.00
      0.9000000              1.0000000
D    1   1.00
      0.2250000              1.0000000
F    1   1.00
      0.3200000              1.0000000
****
P     0
S    6   1.00
  19413.3000000              0.0018516
   2909.4200000              0.0142062
    661.3640000              0.0699995
    185.7590000              0.2400790
     59.1943000              0.4847620
     20.0310000              0.3352000
SP   6   1.00
    339.4780000             -0.00278217             0.00456462
     81.0101000             -0.0360499              0.03369360
     25.8780000             -0.1166310              0.13975500
      9.4522100              0.0968328              0.33936200
      3.6656600              0.6144180              0.45092100
      1.4674600              0.4037980              0.23858600
SP   3   1.00
      2.1562300             -0.2529230             -0.01776530
      0.7489970              0.0328517              0.27405800
      0.2831450              1.0812500              0.78542100
SP   1   1.00
      0.0998317              1.0000000              1.00000000
D    1   1.00
      1.1000000              1.0000000
D    1   1.00
      0.2750000              1.0000000
F    1   1.00
      0.4500000              1.0000000
****
S     0
S    6   1.00
  21917.1000000              0.0018690
   3301.4900000              0.0142300
    754.1460000              0.0696960
    212.7110000              0.2384870
     67.9896000              0.4833070
     23.0515000              0.3380740
SP   6   1.00
    423.7350000             -0.0023767              0.0040610
    100.7100000             -0.0316930              0.0306810
     32.1599000             -0.1133170              0.1304520
     11.8079000              0.0560900              0.3272050
      4.6311000              0.5922550              0.4528510
      1.8702500              0.4550060              0.2560420
SP   3   1.00
      2.6158400             -0.2503740             -0.0145110
      0.9221670              0.0669570              0.3102630
      0.3412870              1.0545100              0.7544830
SP   1   1.00
      0.1171670              1.0000000              1.0000000
D    1   1.00
      1.3000000              1.0000000
D    1   1.00
      0.3250000              1.0000000
F    1   1.00
      0.5500000              1.0000000
****
Cl     0
S    6   1.00
  25180.1000000              0.0018330
   3780.3500000              0.0140340
    860.4740000              0.0690970
    242.1450000              0.2374520
     77.3349000              0.4830340
     26.2470000              0.3398560
SP   6   1.00
    491.7650000             -0.0022974              0.0039894
    116.9840000             -0.0307140              0.0303180
     37.4153000             -0.1125280              0.1298800
     13.7834000              0.0450160              0.3279510
      5.4521500              0.5893530              0.4535270
      2.2258800              0.4652060              0.2521540
SP   3   1.00
      3.1864900             -0.2518300             -0.0142990
      1.1442700              0.0615890              0.3235720
      0.4203770              1.0601800              0.7435070
SP   1   1.00
      0.1426570              1.0000000              1.0000000
D    1   1.00
      1.5000000              1.0000000
D    1   1.00
      0.3750000              1.0000000
F    1   1.00
      0.7000000              1.0000000
****
}

set {
reference uhf
freeze_core true
e_convergence 10
d_convergence 10
dft_spherical_points 1202
dft_radial_points 99
}

e = energy('b3lyp')

print_out('Grab this energy {0}'.format(e))
--------------------------------------------------------------------------

    Molecular point group: c1

    Geometry (in Bohr), charge = 0, multiplicity = 2:

       Center              X                  Y                   Z               Mass
    ------------   -----------------  -----------------  -----------------  -----------------
         C           -0.321674827951    -0.000002004731    -0.000001431738    12.000000000000
         C            0.060498948349    -1.400962489831    -2.426439178338    12.000000000000
         C            0.060379637749     2.801853592869    -0.000045139538    12.000000000000
         C            0.060499935649    -1.400886877531     2.426485341062    12.000000000000
         H            2.087195984049    -1.648108635431    -2.845075197538     1.007825032230
         H           -0.761015352351    -0.386336538531    -4.026308843338     1.007825032230
         H           -0.769203459151    -3.290428490431    -2.350153054338     1.007825032230
         H            2.087058909149     3.288059460969    -0.004652342138     1.007825032230
         H           -0.761260238751     3.680027066969     1.678543047162     1.007825032230
         H           -0.769275726851     3.680482708569    -1.674560000038     1.007825032230
         H            2.087199646849    -1.640043266531     2.849731320862     1.007825032230
         H           -0.761177034051    -3.293660672731     2.347772687362     1.007825032230
         H           -0.769038646251    -0.390018075231     4.024707246562     1.007825032230

  Charge       = 0
  Multiplicity = 2
  Basis Set: ANONYMOUSC02EBCCE
    Blend: 6-31G_2DFP_
  Basis Set: (ANONYMOUSC02EBCCE AUX)
    Blend: DEF2-UNIVERSAL-JKFIT

    Orbital Energies [Eh]
    ---------------------

    Alpha Occupied:

       1A    -10.180276     2A    -10.167039     3A    -10.167038
       4A    -10.166993     5A     -0.797781     6A     -0.686204
       7A     -0.686204     8A     -0.530770     9A     -0.441066
      10A     -0.434734    11A     -0.434734    12A     -0.382493
      13A     -0.382491    14A     -0.363737    15A     -0.338091
      16A     -0.338091    17A     -0.168778

    Alpha Virtual:

      18A      0.076069    19A      0.134159    20A      0.134160
      21A      0.142652    22A      0.142652    23A      0.154799
      24A      0.178708    25A      0.178709    26A      0.203520
      27A      0.214850    28A      0.276157    29A      0.276159
      30A      0.399247    31A      0.399251    32A      0.403424
      33A      0.424125    34A      0.424125    35A      0.456499
      36A      0.495414    37A      0.495415    38A      0.512102
      39A      0.514091    40A      0.578685    41A      0.578693
      42A      0.591606    43A      0.591608    44A      0.602350
      45A      0.624843    46A      0.631838    47A      0.636401
      48A      0.636405    49A      0.663253    50A      0.663253
      51A      0.683960    52A      0.683962    53A      0.735190
      54A      0.825462    55A      0.825465    56A      0.853913
      57A      0.915085    58A      0.915091    59A      0.943962
      60A      0.944672    61A      0.961272    62A      0.961289
      63A      1.003464    64A      1.128010    65A      1.128023
      66A      1.142208    67A      1.162831    68A      1.162844
      69A      1.223487    70A      1.274550    71A      1.274553
      72A      1.279111    73A      1.324608    74A      1.324611
      75A      1.355740    76A      1.366425    77A      1.366430
      78A      1.392466    79A      1.404005    80A      1.404007
      81A      1.416871    82A      1.416877    83A      1.427856
      84A      1.491648    85A      1.498711    86A      1.542779
      87A      1.542781    88A      1.574725    89A      1.574728
      90A      1.670094    91A      1.739653    92A      1.739665
      93A      1.768260    94A      1.831782    95A      1.831783
      96A      1.971987    97A      2.018744    98A      2.018747
      99A      2.019309   100A      2.052244   101A      2.052246
     102A      2.738680   103A      2.738681   104A      2.790718
     105A      2.811458   106A      2.890201   107A      2.890207
     108A      2.894631   109A      2.929471   110A      2.929480
     111A      2.959061   112A      2.964477   113A      2.964491
     114A      3.033654   115A      3.072119   116A      3.072132
     117A      3.084423   118A      3.168659   119A      3.168666
     120A      3.180619   121A      3.284515   122A      3.284515
     123A      3.326804   124A      3.326810   125A      3.375452
     126A      3.490385   127A      3.490404   128A      3.514179
     129A      3.524874   130A      3.568672   131A      3.568692
     132A      3.574530   133A      3.666958   134A      3.666965
     135A      3.679874   136A      3.694045   137A      3.694061
     138A      3.777073   139A      3.777099   140A      3.790383
     141A      3.912242   142A      3.912248   143A      4.034769
     144A      4.111611   145A      4.111616   146A      4.148154
     147A      4.148162   148A      4.173281   149A      4.202797
     150A      4.202800   151A      4.203015   152A      4.210791
     153A      4.315755   154A      4.315775   155A      4.358492
     156A      4.424612   157A      4.424615   158A      4.443684
     159A      4.516539   160A      4.516541   161A      4.578155
     162A      4.578167   163A      4.618027   164A      4.709117
     165A      4.774735   166A      4.774743   167A      4.838094
     168A      4.962765   169A      5.002795   170A      5.002807
     171A      5.228151   172A      5.246915   173A      5.246915
     174A      5.355771   175A      5.355784   176A      5.479712

    Beta Occupied:

       1A    -10.167794     2A    -10.167794     3A    -10.167767
       4A    -10.166458     5A     -0.781102     6A     -0.684009
       7A     -0.684008     8A     -0.511750     9A     -0.431115
      10A     -0.431115    11A     -0.421733    12A     -0.376567
      13A     -0.376566    14A     -0.362722    15A     -0.333210
      16A     -0.333210

    Beta Virtual:

      17A     -0.025641    18A      0.077083    19A      0.135060
      20A      0.135061    21A      0.144519    22A      0.144520
      23A      0.163269    24A      0.182378    25A      0.182379
      26A      0.215078    27A      0.218926    28A      0.282493
      29A      0.282495    30A      0.400417    31A      0.400421
      32A      0.419898    33A      0.426934    34A      0.426934
      35A      0.468393    36A      0.497670    37A      0.497671
      38A      0.513854    39A      0.556425    40A      0.584249
      41A      0.584257    42A      0.597780    43A      0.597781
      44A      0.609800    45A      0.628195    46A      0.631993
      47A      0.639682    48A      0.639686    49A      0.666814
      50A      0.666814    51A      0.686601    52A      0.686602
      53A      0.757693    54A      0.830626    55A      0.830629
      56A      0.855270    57A      0.923046    58A      0.923053
      59A      0.945899    60A      0.953510    61A      0.966611
      62A      0.966627    63A      1.008685    64A      1.132031
      65A      1.132043    66A      1.155618    67A      1.167907
      68A      1.167919    69A      1.232463    70A      1.280131
      71A      1.280135    72A      1.284856    73A      1.329589
      74A      1.329591    75A      1.365176    76A      1.371672
      77A      1.371677    78A      1.393535    79A      1.407472
      80A      1.407475    81A      1.421943    82A      1.421949
      83A      1.428119    84A      1.492713    85A      1.509133
      86A      1.547188    87A      1.547189    88A      1.582598
      89A      1.582598    90A      1.674925    91A      1.745416
      92A      1.745428    93A      1.779061    94A      1.835645
      95A      1.835646    96A      1.972848    97A      2.025153
      98A      2.025156    99A      2.040675   100A      2.058938
     101A      2.058939   102A      2.747016   103A      2.747017
     104A      2.811813   105A      2.815922   106A      2.902845
     107A      2.902851   108A      2.924358   109A      2.931963
     110A      2.931972   111A      2.960124   112A      2.969011
     113A      2.969025   114A      3.041629   115A      3.081990
     116A      3.082002   117A      3.086243   118A      3.184515
     119A      3.184519   120A      3.188243   121A      3.289353
     122A      3.289353   123A      3.330601   124A      3.330606
     125A      3.383260   126A      3.493097   127A      3.493117
     128A      3.512543   129A      3.527905   130A      3.574389
     131A      3.581967   132A      3.581989   133A      3.671720
     134A      3.671731   135A      3.693173   136A      3.725673
     137A      3.725689   138A      3.781558   139A      3.781584
     140A      3.818938   141A      3.922095   142A      3.922102
     143A      4.045628   144A      4.118442   145A      4.118444
     146A      4.155348   147A      4.155357   148A      4.187382
     149A      4.208735   150A      4.208738   151A      4.210971
     152A      4.215286   153A      4.323175   154A      4.323195
     155A      4.361853   156A      4.432870   157A      4.432873
     158A      4.446560   159A      4.524347   160A      4.524349
     161A      4.588723   162A      4.588735   163A      4.625227
     164A      4.719437   165A      4.781674   166A      4.781682
     167A      4.841000   168A      4.967562   169A      5.006848
     170A      5.006860   171A      5.233866   172A      5.248699
     173A      5.248699   174A      5.362243   175A      5.362256
     176A      5.482027

    Final Occupation by Irrep:
              A
    DOCC [    16 ]
    SOCC [     1 ]

  @DF-UKS Final Energy:  -157.81308164098422

   => Energetics <=

    Nuclear Repulsion Energy =            125.3970010086068356
    One-Electron Energy =                -458.7535136530018463
    Two-Electron Energy =                 195.8506410326665446
    DFT Exchange-Correlation Energy =     -20.3072100292557352
    Empirical Dispersion Energy =           0.0000000000000000
    VV10 Nonlocal Energy =                  0.0000000000000000
    Total Energy =                       -157.8130816409842225

  UHF NO Occupations:
  HONO-2 :   15  A 1.9995994
  HONO-1 :   16  A 1.9989790
  HONO-0 :   17  A 1.0000000
  LUNO+0 :   18  A 0.0010210
  LUNO+1 :   19  A 0.0004006
  LUNO+2 :   20  A 0.0001974
  LUNO+3 :   21  A 0.0001974

Computation Completed

Properties will be evaluated at   0.000000,   0.000000,   0.000000 [a0]

Properties computed using the SCF density matrix

  Nuclear Dipole Moment: [e a0]
     X:     0.8287      Y:    -0.0000      Z:     0.0000

  Electronic Dipole Moment: [e a0]
     X:    -0.7516      Y:     0.0000      Z:    -0.0000

  Dipole Moment: [e a0]
     X:     0.0771      Y:     0.0000      Z:     0.0000     Total:     0.0771

  Dipole Moment: [D]
     X:     0.1961      Y:     0.0000      Z:     0.0000     Total:     0.1961

*** tstop() called on n091 at Fri Nov  5 11:40:07 2021
Module time:
	user time   =     491.84 seconds =       8.20 minutes
	system time =       4.57 seconds =       0.08 minutes
	total time  =        125 seconds =       2.08 minutes
Total time:
	user time   =     491.84 seconds =       8.20 minutes
	system time =       4.57 seconds =       0.08 minutes
	total time  =        125 seconds =       2.08 minutes
Grab this energy -157.81308164098422
    Psi4 stopped on: Friday, 05 November 2021 11:40AM
    Psi4 wall time for execution: 0:02:04.84

*** Psi4 exiting successfully. Buy a developer a beer!
