                               Psi4 1.4a2.dev629

  ==> Input File <==

--------------------------------------------------------------------------
import os
memory 14 GB

molecule {
 C   -0.3233155940    0.0053430113   -0.0000000000
 C    0.0613071549   -1.4003649861   -2.4274018530
 C    0.0609662529    2.8024760932   -0.0000000000
 C    0.0613071549   -1.4003649861    2.4274018530
 H    2.0836645736   -1.6451774090   -2.8475777469
 H   -0.7646302347   -0.3910910041   -4.0232099613
 H   -0.7633465220   -3.2904455790   -2.3509852459
 H    2.0838839485    3.2878625266    0.0000000000
 H   -0.7640662139    3.6792260058    1.6741018213
 H   -0.7640662139    3.6792260058   -1.6741018213
 H    2.0836645736   -1.6451774090    2.8475777469
 H   -0.7633465220   -3.2904455790    2.3509852459
 H   -0.7646302347   -0.3910910041    4.0232099613
units bohr
0 2
}

basis {

assign 6-31g_2dfp_

[ 6-31g_2dfp_ ]

spherical

!----------------------------------------------------------------------
! Basis Set Exchange
! Version v0.8.13
! https://www.basissetexchange.org
!----------------------------------------------------------------------
!   Basis set: 6-31G(2df,p)
! Description: 6-31G(2df,p)
!        Role: orbital
!     Version: 0  (Data from the original Basis Set Exchange)
!----------------------------------------------------------------------

****
H     0
S    3   1.00
     18.7311370              0.03349460
      2.8253937              0.23472695
      0.6401217              0.81375733
S    1   1.00
      0.1612778              1.00000000
P    1   1.00
      1.5000000              1.0000000
P    1   1.00
      0.3750000              1.0000000
****
B     0
S    6   1.00
   2068.8823000              0.0018663
    310.6495700              0.0142515
     70.6830330              0.0695516
     19.8610800              0.2325729
      6.2993048              0.4670787
      2.1270270              0.3634314
SP   3   1.00
      4.7279710             -0.1303938              0.0745976
      1.1903377             -0.1307889              0.3078467
      0.3594117              1.1309444              0.7434568
SP   1   1.00
      0.1267512              1.0000000              1.0000000
D    1   1.00
      0.8020000              1.0000000
D    1   1.00
      0.2005000              1.0000000
F    1   1.00
      0.5000000              1.0000000
****
C     0
S    6   1.00
   3047.5249000              0.0018347
    457.3695100              0.0140373
    103.9486900              0.0688426
     29.2101550              0.2321844
      9.2866630              0.4679413
      3.1639270              0.3623120
SP   3   1.00
      7.8682724             -0.1193324              0.0689991
      1.8812885             -0.1608542              0.3164240
      0.5442493              1.1434564              0.7443083
SP   1   1.00
      0.1687144              1.0000000              1.0000000
D    1   1.00
      1.2520000              1.0000000
D    1   1.00
      0.3130000              1.0000000
F    1   1.00
      0.8000000              1.0000000
****
N     0
S    6   1.00
   4173.5110000              0.0018348
    627.4579000              0.0139950
    142.9021000              0.0685870
     40.2343300              0.2322410
     12.8202100              0.4690700
      4.3904370              0.3604550
SP   3   1.00
     11.6263580             -0.1149610              0.0675800
      2.7162800             -0.1691180              0.3239070
      0.7722180              1.1458520              0.7408950
SP   1   1.00
      0.2120313              1.0000000              1.0000000
D    1   1.00
      1.8260000              1.0000000
D    1   1.00
      0.4565000              1.0000000
F    1   1.00
      1.0000000              1.0000000
****
O     0
S    6   1.00
   5484.6717000              0.0018311
    825.2349500              0.0139501
    188.0469600              0.0684451
     52.9645000              0.2327143
     16.8975700              0.4701930
      5.7996353              0.3585209
SP   3   1.00
     15.5396160             -0.1107775              0.0708743
      3.5999336             -0.1480263              0.3397528
      1.0137618              1.1307670              0.7271586
SP   1   1.00
      0.2700058              1.0000000              1.0000000
D    1   1.00
      2.5840000              1.0000000
D    1   1.00
      0.6460000              1.0000000
F    1   1.00
      1.4000000              1.0000000
****
F     0
S    6   1.00
   7001.7130900              0.0018196169
   1051.3660900              0.0139160796
    239.2856900              0.0684053245
     67.3974453              0.233185760
     21.5199573              0.471267439
      7.40310130             0.356618546
SP   3   1.00
     20.8479528             -0.108506975            0.0716287243
      4.80830834            -0.146451658            0.3459121030
      1.34406986             1.128688580            0.7224699570
SP   1   1.00
      0.358151393            1.0000000              1.0000000
D    1   1.00
      3.5000000              1.0000000
D    1   1.00
      0.8750000              1.0000000
F    1   1.00
      1.8500000              1.0000000
****
Al     0
S    6   1.00
  13983.1000000              0.00194267
   2098.7500000              0.0148599
    477.7050000              0.0728494
    134.3600000              0.2468300
     42.8709000              0.4872580
     14.5189000              0.3234960
SP   6   1.00
    239.6680000             -0.00292619             0.00460285
     57.4419000             -0.0374080              0.0331990
     18.2859000             -0.1144870              0.1362820
      6.5991400              0.1156350              0.3304760
      2.4904900              0.6125950              0.4491460
      0.9445400              0.3937990              0.2657040
SP   3   1.00
      1.2779000             -0.2276060             -0.0175130
      0.3975900              0.00144583             0.2445330
      0.1600950              1.0927900              0.8049340
SP   1   1.00
      0.0556577              1.0000000              1.0000000
D    1   1.00
      0.6500000              1.0000000
D    1   1.00
      0.1625000              1.0000000
F    1   1.00
      0.2500000              1.0000000
****
Si     0
S    6   1.00
  16115.9000000              0.00195948
   2425.5800000              0.01492880
    553.8670000              0.07284780
    156.3400000              0.24613000
     50.0683000              0.48591400
     17.0178000              0.32500200
SP   6   1.00
    292.7180000             -0.00278094             0.00443826
     69.8731000             -0.03571460             0.03266790
     22.3363000             -0.11498500             0.13472100
      8.1503900              0.09356340             0.32867800
      3.1345800              0.60301700             0.44964000
      1.2254300              0.41895900             0.26137200
SP   3   1.00
      1.7273800             -0.24463000            -0.01779510
      0.5729220              0.00431572             0.25353900
      0.2221920              1.09818000             0.80066900
SP   1   1.00
      0.0778369              1.00000000             1.00000000
D    1   1.00
      0.9000000              1.0000000
D    1   1.00
      0.2250000              1.0000000
F    1   1.00
      0.3200000              1.0000000
****
P     0
S    6   1.00
  19413.3000000              0.0018516
   2909.4200000              0.0142062
    661.3640000              0.0699995
    185.7590000              0.2400790
     59.1943000              0.4847620
     20.0310000              0.3352000
SP   6   1.00
    339.4780000             -0.00278217             0.00456462
     81.0101000             -0.0360499              0.03369360
     25.8780000             -0.1166310              0.13975500
      9.4522100              0.0968328              0.33936200
      3.6656600              0.6144180              0.45092100
      1.4674600              0.4037980              0.23858600
SP   3   1.00
      2.1562300             -0.2529230             -0.01776530
      0.7489970              0.0328517              0.27405800
      0.2831450              1.0812500              0.78542100
SP   1   1.00
      0.0998317              1.0000000              1.00000000
D    1   1.00
      1.1000000              1.0000000
D    1   1.00
      0.2750000              1.0000000
F    1   1.00
      0.4500000              1.0000000
****
S     0
S    6   1.00
  21917.1000000              0.0018690
   3301.4900000              0.0142300
    754.1460000              0.0696960
    212.7110000              0.2384870
     67.9896000              0.4833070
     23.0515000              0.3380740
SP   6   1.00
    423.7350000             -0.0023767              0.0040610
    100.7100000             -0.0316930              0.0306810
     32.1599000             -0.1133170              0.1304520
     11.8079000              0.0560900              0.3272050
      4.6311000              0.5922550              0.4528510
      1.8702500              0.4550060              0.2560420
SP   3   1.00
      2.6158400             -0.2503740             -0.0145110
      0.9221670              0.0669570              0.3102630
      0.3412870              1.0545100              0.7544830
SP   1   1.00
      0.1171670              1.0000000              1.0000000
D    1   1.00
      1.3000000              1.0000000
D    1   1.00
      0.3250000              1.0000000
F    1   1.00
      0.5500000              1.0000000
****
Cl     0
S    6   1.00
  25180.1000000              0.0018330
   3780.3500000              0.0140340
    860.4740000              0.0690970
    242.1450000              0.2374520
     77.3349000              0.4830340
     26.2470000              0.3398560
SP   6   1.00
    491.7650000             -0.0022974              0.0039894
    116.9840000             -0.0307140              0.0303180
     37.4153000             -0.1125280              0.1298800
     13.7834000              0.0450160              0.3279510
      5.4521500              0.5893530              0.4535270
      2.2258800              0.4652060              0.2521540
SP   3   1.00
      3.1864900             -0.2518300             -0.0142990
      1.1442700              0.0615890              0.3235720
      0.4203770              1.0601800              0.7435070
SP   1   1.00
      0.1426570              1.0000000              1.0000000
D    1   1.00
      1.5000000              1.0000000
D    1   1.00
      0.3750000              1.0000000
F    1   1.00
      0.7000000              1.0000000
****
}

set {
reference uhf
freeze_core true
e_convergence 10
d_convergence 10
dft_spherical_points 1202
dft_radial_points 99
}

e = energy('b3lyp')

print_out('Grab this energy {0}'.format(e))
--------------------------------------------------------------------------

    Molecular point group: cs

    Geometry (in Bohr), charge = 0, multiplicity = 2:

       Center              X                  Y                   Z               Mass
    ------------   -----------------  -----------------  -----------------  -----------------
         C           -0.323374330247     0.003978022722     0.000000000000    12.000000000000
         C            0.061248418653    -1.401729974678    -2.427401853000    12.000000000000
         C            0.060907516653     2.801111104622     0.000000000000    12.000000000000
         C            0.061248418653    -1.401729974678     2.427401853000    12.000000000000
         H            2.083605837353    -1.646542397578    -2.847577746900     1.007825032230
         H           -0.764688970947    -0.392455992678    -4.023209961300     1.007825032230
         H           -0.763405258247    -3.291810567578    -2.350985245900     1.007825032230
         H            2.083825212253     3.286497538022     0.000000000000     1.007825032230
         H           -0.764124950147     3.677861017222     1.674101821300     1.007825032230
         H           -0.764124950147     3.677861017222    -1.674101821300     1.007825032230
         H            2.083605837353    -1.646542397578     2.847577746900     1.007825032230
         H           -0.763405258247    -3.291810567578     2.350985245900     1.007825032230
         H           -0.764688970947    -0.392455992678     4.023209961300     1.007825032230

  Charge       = 0
  Multiplicity = 2
  Basis Set: ANONYMOUSAF01DD1F
    Blend: 6-31G_2DFP_
  Basis Set: (ANONYMOUSAF01DD1F AUX)
    Blend: DEF2-UNIVERSAL-JKFIT

    Orbital Energies [Eh]
    ---------------------

    Alpha Occupied:

       1Ap   -10.180274     1App  -10.166511     2Ap   -10.166490
       3Ap   -10.166435     4Ap    -0.797730     5Ap    -0.686735
       2App   -0.686359     6Ap    -0.531086     7Ap    -0.441231
       3App   -0.435026     8Ap    -0.434590     9Ap    -0.382975
       4App   -0.382744     5App   -0.363924    10Ap    -0.338524
       6App   -0.337483    11Ap    -0.168899

    Alpha Virtual:

      12Ap     0.076403    13Ap     0.134505     7App    0.134537
       8App    0.142860    14Ap     0.143214    15Ap     0.155178
       9App    0.179278    16Ap     0.179292    17Ap     0.203433
      10App    0.215257    11App    0.275718    18Ap     0.276298
      12App    0.399051    19Ap     0.399296    20Ap     0.403551
      13App    0.424371    21Ap     0.424371    22Ap     0.456725
      14App    0.495566    23Ap     0.495662    15App    0.512432
      24Ap     0.514110    16App    0.578958    25Ap     0.579342
      26Ap     0.592240    17App    0.592246    27Ap     0.603227
      28Ap     0.625732    18App    0.632477    19App    0.636660
      29Ap     0.636977    30Ap     0.663683    20App    0.663817
      31Ap     0.684354    21App    0.684458    32Ap     0.735303
      22App    0.826116    33Ap     0.826334    23App    0.854431
      34Ap     0.915622    24App    0.915848    25App    0.944753
      35Ap     0.945410    26App    0.961765    36Ap     0.962131
      37Ap     1.003553    27App    1.128291    38Ap     1.128729
      39Ap     1.143135    28App    1.163143    40Ap     1.163904
      41Ap     1.223771    42Ap     1.274556    29App    1.275500
      43Ap     1.278894    30App    1.324967    44Ap     1.325160
      45Ap     1.356852    31App    1.366276    46Ap     1.366833
      32App    1.393022    33App    1.405018    47Ap     1.405128
      48Ap     1.417722    34App    1.418359    35App    1.428676
      36App    1.492386    49Ap     1.500431    37App    1.543316
      50Ap     1.543326    51Ap     1.574619    38App    1.574667
      52Ap     1.671981    39App    1.740650    53Ap     1.741058
      54Ap     1.769845    40App    1.833630    55Ap     1.834146
      41App    1.973359    56Ap     2.019362    57Ap     2.019699
      42App    2.020820    43App    2.053192    58Ap     2.054263
      44App    2.739224    59Ap     2.739707    60Ap     2.791138
      45App    2.811937    46App    2.889943    61Ap     2.891076
      62Ap     2.895013    47App    2.929508    63Ap     2.930265
      48App    2.959618    64Ap     2.964875    49App    2.965210
      65Ap     3.034915    50App    3.071726    66Ap     3.072765
      51App    3.085280    67Ap     3.167999    52App    3.168207
      68Ap     3.180949    53App    3.284983    69Ap     3.285572
      70Ap     3.326261    54App    3.327047    71Ap     3.374903
      55App    3.488609    72Ap     3.489695    56App    3.513736
      73Ap     3.524724    74Ap     3.568350    57App    3.568794
      58App    3.573484    75Ap     3.666754    59App    3.667406
      76Ap     3.681467    77Ap     3.694959    60App    3.694982
      61App    3.776618    78Ap     3.778044    79Ap     3.789733
      62App    3.912686    80Ap     3.913643    81Ap     4.036769
      63App    4.113508    82Ap     4.114161    64App    4.150454
      83Ap     4.152428    84Ap     4.176247    85Ap     4.203781
      65App    4.204085    86Ap     4.205250    66App    4.214576
      67App    4.317689    87Ap     4.318761    68App    4.361400
      69App    4.426958    88Ap     4.427089    70App    4.445455
      71App    4.519140    89Ap     4.519394    90Ap     4.579308
      72App    4.579893    91Ap     4.618511    92Ap     4.711500
      73App    4.775814    93Ap     4.776946    74App    4.839211
      94Ap     4.963639    95Ap     5.003847    75App    5.004327
      96Ap     5.233334    76App    5.252082    97Ap     5.252147
      77App    5.359549    98Ap     5.360656    78App    5.482593

    Beta Occupied:

       1App  -10.167259     1Ap   -10.167249     2Ap   -10.167208
       3Ap   -10.166431     4Ap    -0.781083     5Ap    -0.684524
       2App   -0.684172     6Ap    -0.512000     3App   -0.431402
       7Ap    -0.430983     8Ap    -0.421954     9Ap    -0.377028
       4App   -0.376879     5App   -0.362911    10Ap    -0.333647
       6App   -0.332587

    Beta Virtual:

      11Ap    -0.025510    12Ap     0.077409     7App    0.135418
      13Ap     0.135419     8App    0.144714    14Ap     0.145047
      15Ap     0.163575     9App    0.182928    16Ap     0.182965
      10App    0.215485    17Ap     0.218836    11App    0.282110
      18Ap     0.282620    12App    0.400218    19Ap     0.400458
      20Ap     0.420013    13App    0.427173    21Ap     0.427195
      22Ap     0.468614    14App    0.497823    23Ap     0.497924
      15App    0.514161    24Ap     0.556511    16App    0.584503
      25Ap     0.584935    17App    0.598436    26Ap     0.598449
      27Ap     0.610638    28Ap     0.629094    18App    0.632627
      19App    0.639910    29Ap     0.640257    30Ap     0.667257
      20App    0.667379    31Ap     0.686952    21App    0.687059
      32Ap     0.757852    22App    0.831286    33Ap     0.831496
      23App    0.855760    34Ap     0.923552    24App    0.923831
      25App    0.946589    35Ap     0.954361    26App    0.967055
      36Ap     0.967437    37Ap     1.008805    27App    1.132329
      38Ap     1.132738    39Ap     1.156486    28App    1.168251
      40Ap     1.168999    41Ap     1.232726    42Ap     1.280196
      29App    1.281032    43Ap     1.284634    30App    1.329995
      44Ap     1.330164    45Ap     1.366291    31App    1.371567
      46Ap     1.372028    32App    1.394075    33App    1.408423
      47Ap     1.408644    48Ap     1.422780    34App    1.423399
      35App    1.428937    36App    1.493440    49Ap     1.510875
      37App    1.547589    50Ap     1.547609    38App    1.582617
      51Ap     1.582625    52Ap     1.676905    39App    1.746414
      53Ap     1.746830    54Ap     1.780567    40App    1.837440
      55Ap     1.837986    41App    1.974214    56Ap     2.026070
      42App    2.027192    57Ap     2.040738    43App    2.059917
      58Ap     2.060968    44App    2.747540    59Ap     2.748086
      45App    2.812353    60Ap     2.816299    46App    2.902760
      61Ap     2.903721    62Ap     2.924760    47App    2.931887
      63Ap     2.932748    48App    2.960688    64Ap     2.969463
      49App    2.969791    65Ap     3.042770    50App    3.081775
      66Ap     3.082656    51App    3.087101    67Ap     3.183710
      52App    3.183821    68Ap     3.188767    53App    3.289768
      69Ap     3.290275    70Ap     3.330072    54App    3.330860
      71Ap     3.382745    55App    3.491372    72Ap     3.492478
      56App    3.512110    73Ap     3.527785    57App    3.573329
      74Ap     3.581757    58App    3.582118    75Ap     3.671869
      59App    3.672357    76Ap     3.694824    77Ap     3.726292
      60App    3.726579    61App    3.781135    78Ap     3.782574
      79Ap     3.818272    62App    3.922492    80Ap     3.923449
      81Ap     4.047781    63App    4.120446    82Ap     4.121008
      64App    4.157653    83Ap     4.159580    84Ap     4.190161
      65App    4.210025    85Ap     4.210603    86Ap     4.212246
      66App    4.219024    67App    4.324982    87Ap     4.326183
      68App    4.364753    69App    4.435143    88Ap     4.435272
      70App    4.448326    71App    4.526873    89Ap     4.527219
      90Ap     4.589854    72App    4.590458    91Ap     4.625719
      92Ap     4.721842    73App    4.782727    93Ap     4.783933
      74App    4.842133    94Ap     4.968404    95Ap     5.007884
      75App    5.008332    96Ap     5.239025    76App    5.253865
      97Ap     5.253920    77App    5.365976    98Ap     5.367135
      78App    5.484902

    Final Occupation by Irrep:
             Ap   App
    DOCC [    10,    6 ]
    SOCC [     1,    0 ]

  @DF-UKS Final Energy:  -157.81301444205457

   => Energetics <=

    Nuclear Repulsion Energy =            125.4321182939280419
    One-Electron Energy =                -458.8199463771454703
    Two-Electron Energy =                 195.8859894695177957
    DFT Exchange-Correlation Energy =     -20.3111758283549335
    Empirical Dispersion Energy =           0.0000000000000000
    VV10 Nonlocal Energy =                  0.0000000000000000
    Total Energy =                       -157.8130144420545662

  UHF NO Occupations:
  HONO-2 :    9 Ap 1.9996034
  HONO-1 :   10 Ap 1.9989797
  HONO-0 :   11 Ap 1.0000000
  LUNO+0 :   12 Ap 0.0010203
  LUNO+1 :   13 Ap 0.0003966
  LUNO+2 :    7App 0.0001990
  LUNO+3 :   14 Ap 0.0001968

Computation Completed

Properties will be evaluated at   0.000000,   0.000000,   0.000000 [a0]

Properties computed using the SCF density matrix

  Nuclear Dipole Moment: [e a0]
     X:     0.8268      Y:    -0.0096      Z:    -0.0000

  Electronic Dipole Moment: [e a0]
     X:    -0.7482      Y:     0.0109      Z:     0.0000

  Dipole Moment: [e a0]
     X:     0.0785      Y:     0.0012      Z:    -0.0000     Total:     0.0786

  Dipole Moment: [D]
     X:     0.1996      Y:     0.0031      Z:    -0.0000     Total:     0.1997

*** tstop() called on n031 at Fri Nov  5 13:45:30 2021
Module time:
	user time   =     633.83 seconds =      10.56 minutes
	system time =      12.18 seconds =       0.20 minutes
	total time  =        162 seconds =       2.70 minutes
Total time:
	user time   =     633.83 seconds =      10.56 minutes
	system time =      12.18 seconds =       0.20 minutes
	total time  =        162 seconds =       2.70 minutes
Grab this energy -157.81301444205457
    Psi4 stopped on: Friday, 05 November 2021 01:45PM
    Psi4 wall time for execution: 0:02:42.43

*** Psi4 exiting successfully. Buy a developer a beer!
