                               Psi4 1.4a2.dev629

  ==> Input File <==

--------------------------------------------------------------------------
import os
memory 14 GB

molecule {
 C   -0.3233180849    0.0004956848    0.0000000000
 C    0.0619217899   -1.4008941162   -2.4270755255
 C    0.0597360663    2.8025155932    0.0000000000
 C    0.0619217899   -1.4008941162    2.4270755255
 H    2.0817233160   -1.6442596500   -2.8480405359
 H   -0.7618894065   -0.3891960369   -4.0241943216
 H   -0.7641260943   -3.2912537405   -2.3496235009
 H    2.0877685946    3.2879714239    0.0000000000
 H   -0.7660268314    3.6801000359    1.6705875734
 H   -0.7660268314    3.6801000359   -1.6705875734
 H    2.0817233160   -1.6442596500    2.8480405359
 H   -0.7641260943   -3.2912537405    2.3496235009
 H   -0.7618894065   -0.3891960369    4.0241943216
units bohr
0 2
}

basis {

assign 6-31g_2dfp_

[ 6-31g_2dfp_ ]

spherical

!----------------------------------------------------------------------
! Basis Set Exchange
! Version v0.8.13
! https://www.basissetexchange.org
!----------------------------------------------------------------------
!   Basis set: 6-31G(2df,p)
! Description: 6-31G(2df,p)
!        Role: orbital
!     Version: 0  (Data from the original Basis Set Exchange)
!----------------------------------------------------------------------

****
H     0
S    3   1.00
     18.7311370              0.03349460
      2.8253937              0.23472695
      0.6401217              0.81375733
S    1   1.00
      0.1612778              1.00000000
P    1   1.00
      1.5000000              1.0000000
P    1   1.00
      0.3750000              1.0000000
****
B     0
S    6   1.00
   2068.8823000              0.0018663
    310.6495700              0.0142515
     70.6830330              0.0695516
     19.8610800              0.2325729
      6.2993048              0.4670787
      2.1270270              0.3634314
SP   3   1.00
      4.7279710             -0.1303938              0.0745976
      1.1903377             -0.1307889              0.3078467
      0.3594117              1.1309444              0.7434568
SP   1   1.00
      0.1267512              1.0000000              1.0000000
D    1   1.00
      0.8020000              1.0000000
D    1   1.00
      0.2005000              1.0000000
F    1   1.00
      0.5000000              1.0000000
****
C     0
S    6   1.00
   3047.5249000              0.0018347
    457.3695100              0.0140373
    103.9486900              0.0688426
     29.2101550              0.2321844
      9.2866630              0.4679413
      3.1639270              0.3623120
SP   3   1.00
      7.8682724             -0.1193324              0.0689991
      1.8812885             -0.1608542              0.3164240
      0.5442493              1.1434564              0.7443083
SP   1   1.00
      0.1687144              1.0000000              1.0000000
D    1   1.00
      1.2520000              1.0000000
D    1   1.00
      0.3130000              1.0000000
F    1   1.00
      0.8000000              1.0000000
****
N     0
S    6   1.00
   4173.5110000              0.0018348
    627.4579000              0.0139950
    142.9021000              0.0685870
     40.2343300              0.2322410
     12.8202100              0.4690700
      4.3904370              0.3604550
SP   3   1.00
     11.6263580             -0.1149610              0.0675800
      2.7162800             -0.1691180              0.3239070
      0.7722180              1.1458520              0.7408950
SP   1   1.00
      0.2120313              1.0000000              1.0000000
D    1   1.00
      1.8260000              1.0000000
D    1   1.00
      0.4565000              1.0000000
F    1   1.00
      1.0000000              1.0000000
****
O     0
S    6   1.00
   5484.6717000              0.0018311
    825.2349500              0.0139501
    188.0469600              0.0684451
     52.9645000              0.2327143
     16.8975700              0.4701930
      5.7996353              0.3585209
SP   3   1.00
     15.5396160             -0.1107775              0.0708743
      3.5999336             -0.1480263              0.3397528
      1.0137618              1.1307670              0.7271586
SP   1   1.00
      0.2700058              1.0000000              1.0000000
D    1   1.00
      2.5840000              1.0000000
D    1   1.00
      0.6460000              1.0000000
F    1   1.00
      1.4000000              1.0000000
****
F     0
S    6   1.00
   7001.7130900              0.0018196169
   1051.3660900              0.0139160796
    239.2856900              0.0684053245
     67.3974453              0.233185760
     21.5199573              0.471267439
      7.40310130             0.356618546
SP   3   1.00
     20.8479528             -0.108506975            0.0716287243
      4.80830834            -0.146451658            0.3459121030
      1.34406986             1.128688580            0.7224699570
SP   1   1.00
      0.358151393            1.0000000              1.0000000
D    1   1.00
      3.5000000              1.0000000
D    1   1.00
      0.8750000              1.0000000
F    1   1.00
      1.8500000              1.0000000
****
Al     0
S    6   1.00
  13983.1000000              0.00194267
   2098.7500000              0.0148599
    477.7050000              0.0728494
    134.3600000              0.2468300
     42.8709000              0.4872580
     14.5189000              0.3234960
SP   6   1.00
    239.6680000             -0.00292619             0.00460285
     57.4419000             -0.0374080              0.0331990
     18.2859000             -0.1144870              0.1362820
      6.5991400              0.1156350              0.3304760
      2.4904900              0.6125950              0.4491460
      0.9445400              0.3937990              0.2657040
SP   3   1.00
      1.2779000             -0.2276060             -0.0175130
      0.3975900              0.00144583             0.2445330
      0.1600950              1.0927900              0.8049340
SP   1   1.00
      0.0556577              1.0000000              1.0000000
D    1   1.00
      0.6500000              1.0000000
D    1   1.00
      0.1625000              1.0000000
F    1   1.00
      0.2500000              1.0000000
****
Si     0
S    6   1.00
  16115.9000000              0.00195948
   2425.5800000              0.01492880
    553.8670000              0.07284780
    156.3400000              0.24613000
     50.0683000              0.48591400
     17.0178000              0.32500200
SP   6   1.00
    292.7180000             -0.00278094             0.00443826
     69.8731000             -0.03571460             0.03266790
     22.3363000             -0.11498500             0.13472100
      8.1503900              0.09356340             0.32867800
      3.1345800              0.60301700             0.44964000
      1.2254300              0.41895900             0.26137200
SP   3   1.00
      1.7273800             -0.24463000            -0.01779510
      0.5729220              0.00431572             0.25353900
      0.2221920              1.09818000             0.80066900
SP   1   1.00
      0.0778369              1.00000000             1.00000000
D    1   1.00
      0.9000000              1.0000000
D    1   1.00
      0.2250000              1.0000000
F    1   1.00
      0.3200000              1.0000000
****
P     0
S    6   1.00
  19413.3000000              0.0018516
   2909.4200000              0.0142062
    661.3640000              0.0699995
    185.7590000              0.2400790
     59.1943000              0.4847620
     20.0310000              0.3352000
SP   6   1.00
    339.4780000             -0.00278217             0.00456462
     81.0101000             -0.0360499              0.03369360
     25.8780000             -0.1166310              0.13975500
      9.4522100              0.0968328              0.33936200
      3.6656600              0.6144180              0.45092100
      1.4674600              0.4037980              0.23858600
SP   3   1.00
      2.1562300             -0.2529230             -0.01776530
      0.7489970              0.0328517              0.27405800
      0.2831450              1.0812500              0.78542100
SP   1   1.00
      0.0998317              1.0000000              1.00000000
D    1   1.00
      1.1000000              1.0000000
D    1   1.00
      0.2750000              1.0000000
F    1   1.00
      0.4500000              1.0000000
****
S     0
S    6   1.00
  21917.1000000              0.0018690
   3301.4900000              0.0142300
    754.1460000              0.0696960
    212.7110000              0.2384870
     67.9896000              0.4833070
     23.0515000              0.3380740
SP   6   1.00
    423.7350000             -0.0023767              0.0040610
    100.7100000             -0.0316930              0.0306810
     32.1599000             -0.1133170              0.1304520
     11.8079000              0.0560900              0.3272050
      4.6311000              0.5922550              0.4528510
      1.8702500              0.4550060              0.2560420
SP   3   1.00
      2.6158400             -0.2503740             -0.0145110
      0.9221670              0.0669570              0.3102630
      0.3412870              1.0545100              0.7544830
SP   1   1.00
      0.1171670              1.0000000              1.0000000
D    1   1.00
      1.3000000              1.0000000
D    1   1.00
      0.3250000              1.0000000
F    1   1.00
      0.5500000              1.0000000
****
Cl     0
S    6   1.00
  25180.1000000              0.0018330
   3780.3500000              0.0140340
    860.4740000              0.0690970
    242.1450000              0.2374520
     77.3349000              0.4830340
     26.2470000              0.3398560
SP   6   1.00
    491.7650000             -0.0022974              0.0039894
    116.9840000             -0.0307140              0.0303180
     37.4153000             -0.1125280              0.1298800
     13.7834000              0.0450160              0.3279510
      5.4521500              0.5893530              0.4535270
      2.2258800              0.4652060              0.2521540
SP   3   1.00
      3.1864900             -0.2518300             -0.0142990
      1.1442700              0.0615890              0.3235720
      0.4203770              1.0601800              0.7435070
SP   1   1.00
      0.1426570              1.0000000              1.0000000
D    1   1.00
      1.5000000              1.0000000
D    1   1.00
      0.3750000              1.0000000
F    1   1.00
      0.7000000              1.0000000
****
}

set {
reference uhf
freeze_core true
e_convergence 10
d_convergence 10
dft_spherical_points 1202
dft_radial_points 99
}

e = energy('b3lyp')

print_out('Grab this energy {0}'.format(e))
--------------------------------------------------------------------------

    Molecular point group: cs

    Geometry (in Bohr), charge = 0, multiplicity = 2:

       Center              X                  Y                   Z               Mass
    ------------   -----------------  -----------------  -----------------  -----------------
         C           -0.323376164842     0.000260546768     0.000000000000    12.000000000000
         C            0.061863709958    -1.401129254232    -2.427075525500    12.000000000000
         C            0.059677986358     2.802280455168     0.000000000000    12.000000000000
         C            0.061863709958    -1.401129254232     2.427075525500    12.000000000000
         H            2.081665236058    -1.644494788032    -2.848040535900     1.007825032230
         H           -0.761947486442    -0.389431174932    -4.024194321600     1.007825032230
         H           -0.764184174242    -3.291488878532    -2.349623500900     1.007825032230
         H            2.087710514658     3.287736285868     0.000000000000     1.007825032230
         H           -0.766084911342     3.679864897868     1.670587573400     1.007825032230
         H           -0.766084911342     3.679864897868    -1.670587573400     1.007825032230
         H            2.081665236058    -1.644494788032     2.848040535900     1.007825032230
         H           -0.764184174242    -3.291488878532     2.349623500900     1.007825032230
         H           -0.761947486442    -0.389431174932     4.024194321600     1.007825032230

  Charge       = 0
  Multiplicity = 2
  Basis Set: ANONYMOUS487B3767
    Blend: 6-31G_2DFP_
  Basis Set: (ANONYMOUS487B3767 AUX)
    Blend: DEF2-UNIVERSAL-JKFIT

    Orbital Energies [Eh]
    ---------------------

    Alpha Occupied:

       1Ap   -10.180275     2Ap   -10.166512     1App  -10.166481
       3Ap   -10.166443     4Ap    -0.797727     2App   -0.686548
       5Ap    -0.686548     6Ap    -0.531089     7Ap    -0.441227
       3App   -0.434833     8Ap    -0.434786     4App   -0.382880
       9Ap    -0.382834     5App   -0.363927    10Ap    -0.338037
       6App   -0.337972    11Ap    -0.168900

    Alpha Virtual:

      12Ap     0.076402    13Ap     0.134353     7App    0.134687
      14Ap     0.142974     8App    0.143099    15Ap     0.155179
      16Ap     0.179199     9App    0.179372    17Ap     0.203438
      10App    0.215258    11App    0.275932    18Ap     0.276086
      12App    0.399142    19Ap     0.399204    20Ap     0.403550
      21Ap     0.424286    13App    0.424456    22Ap     0.456724
      14App    0.495469    23Ap     0.495757    15App    0.512432
      24Ap     0.514114    25Ap     0.578974    16App    0.579330
      26Ap     0.592077    17App    0.592384    27Ap     0.603234
      28Ap     0.625743    18App    0.632458    29Ap     0.636708
      19App    0.636932    30Ap     0.663381    20App    0.664129
      21App    0.684231    31Ap     0.684585    32Ap     0.735305
      22App    0.826198    33Ap     0.826243    23App    0.854436
      34Ap     0.915525    24App    0.915951    25App    0.944753
      35Ap     0.945402    36Ap     0.961833    26App    0.962069
      37Ap     1.003552    38Ap     1.128474    27App    1.128584
      39Ap     1.143084    40Ap     1.163399    28App    1.163658
      41Ap     1.223769    42Ap     1.274854    29App    1.275178
      43Ap     1.278919    44Ap     1.325023    30App    1.325106
      45Ap     1.356817    46Ap     1.366530    31App    1.366569
      32App    1.393033    47Ap     1.404635    33App    1.405535
      34App    1.417506    48Ap     1.418582    35App    1.428662
      36App    1.492386    49Ap     1.500428    50Ap     1.542870
      37App    1.543783    38App    1.574486    51Ap     1.574797
      52Ap     1.671978    53Ap     1.740656    39App    1.741005
      54Ap     1.769884    40App    1.833086    55Ap     1.834699
      41App    1.973341    56Ap     2.019134    57Ap     2.020053
      42App    2.020694    58Ap     2.052795    43App    2.054674
      59Ap     2.739053    44App    2.739876    60Ap     2.791138
      45App    2.811939    61Ap     2.890483    46App    2.890511
      62Ap     2.895047    63Ap     2.929878    47App    2.929896
      48App    2.959625    64Ap     2.964698    49App    2.965381
      65Ap     3.034931    66Ap     3.072226    50App    3.072241
      51App    3.085296    52App    3.167925    67Ap     3.168327
      68Ap     3.180899    53App    3.284956    69Ap     3.285605
      54App    3.326461    70Ap     3.326853    71Ap     3.374923
      55App    3.488985    72Ap     3.489337    56App    3.513728
      73Ap     3.524714    57App    3.568445    74Ap     3.568703
      58App    3.573493    75Ap     3.666370    59App    3.667796
      76Ap     3.681453    60App    3.694842    77Ap     3.695134
      61App    3.777343    78Ap     3.777346    79Ap     3.789686
      62App    3.913062    80Ap     3.913270    81Ap     4.036771
      82Ap     4.113364    63App    4.114288    64App    4.150834
      83Ap     4.152001    84Ap     4.176215    65App    4.203698
      85Ap     4.203726    86Ap     4.205675    66App    4.214608
      87Ap     4.317404    67App    4.319091    68App    4.361399
      69App    4.426716    88Ap     4.427370    70App    4.445440
      89Ap     4.518581    71App    4.519965    72App    4.579622
      90Ap     4.579864    91Ap     4.618229    92Ap     4.711489
      93Ap     4.775904    73App    4.776832    74App    4.839218
      94Ap     4.963682    95Ap     5.003320    75App    5.004792
      96Ap     5.233299    97Ap     5.250042    76App    5.254158
      98Ap     5.358937    77App    5.361332    78App    5.482622

    Beta Occupied:

       1Ap   -10.167268     1App  -10.167229     2Ap   -10.167219
       3Ap   -10.166432     4Ap    -0.781080     5Ap    -0.684354
       2App   -0.684344     6Ap    -0.512002     3App   -0.431206
       7Ap    -0.431177     8Ap    -0.421955     4App   -0.376995
       9Ap    -0.376906     5App   -0.362914    10Ap    -0.333143
       6App   -0.333093

    Beta Virtual:

      11Ap    -0.025510    12Ap     0.077408    13Ap     0.135263
       7App    0.135574    14Ap     0.144843     8App    0.144916
      15Ap     0.163573    16Ap     0.182843     9App    0.183052
      10App    0.215485    17Ap     0.218840    11App    0.282286
      18Ap     0.282447    12App    0.400308    19Ap     0.400368
      20Ap     0.420012    21Ap     0.427100    13App    0.427268
      22Ap     0.468613    14App    0.497721    23Ap     0.498025
      15App    0.514161    24Ap     0.556516    25Ap     0.584556
      16App    0.584881    26Ap     0.598257    17App    0.598608
      27Ap     0.610641    28Ap     0.629107    18App    0.632617
      29Ap     0.639972    19App    0.640186    30Ap     0.666982
      20App    0.667668    21App    0.686848    31Ap     0.687167
      32Ap     0.757853    22App    0.831361    33Ap     0.831412
      23App    0.855767    34Ap     0.923496    24App    0.923894
      25App    0.946589    35Ap     0.954353    36Ap     0.967101
      26App    0.967396    37Ap     1.008804    27App    1.132538
      38Ap     1.132548    39Ap     1.156450    40Ap     1.168470
      28App    1.168795    41Ap     1.232724    42Ap     1.280425
      29App    1.280775    43Ap     1.284662    44Ap     1.330041
      30App    1.330119    45Ap     1.366252    31App    1.371763
      46Ap     1.371820    32App    1.394085    47Ap     1.408058
      33App    1.409037    34App    1.422539    48Ap     1.423651
      35App    1.428919    36App    1.493439    49Ap     1.510872
      50Ap     1.547162    37App    1.548044    38App    1.582480
      51Ap     1.582762    52Ap     1.676901    53Ap     1.746432
      39App    1.746772    54Ap     1.780599    40App    1.836903
      55Ap     1.838533    41App    1.974198    56Ap     2.026146
      42App    2.027115    57Ap     2.040734    58Ap     2.059559
      43App    2.061343    59Ap     2.747411    44App    2.748215
      45App    2.812353    60Ap     2.816299    46App    2.903192
      61Ap     2.903292    62Ap     2.924766    63Ap     2.932277
      47App    2.932355    48App    2.960693    64Ap     2.969275
      49App    2.969980    65Ap     3.042784    66Ap     3.082100
      50App    3.082286    51App    3.087140    52App    3.183518
      67Ap     3.184133    68Ap     3.188641    53App    3.289691
      69Ap     3.290358    54App    3.330248    70Ap     3.330691
      71Ap     3.382764    55App    3.491800    72Ap     3.492075
      56App    3.512098    73Ap     3.527776    57App    3.573325
      58App    3.581778    74Ap     3.582106    75Ap     3.671344
      59App    3.672900    76Ap     3.694812    60App    3.726280
      77Ap     3.726612    78Ap     3.781798    61App    3.781917
      79Ap     3.818255    62App    3.922844    80Ap     3.923094
      81Ap     4.047782    82Ap     4.120273    63App    4.121160
      64App    4.158059    83Ap     4.159136    84Ap     4.190119
      65App    4.209579    85Ap     4.210836    86Ap     4.212461
      66App    4.219051    87Ap     4.324758    67App    4.326451
      68App    4.364752    69App    4.434902    88Ap     4.435559
      70App    4.448302    89Ap     4.526358    71App    4.527747
      72App    4.590178    90Ap     4.590443    91Ap     4.625416
      92Ap     4.721828    93Ap     4.782854    73App    4.783783
      74App    4.842139    94Ap     4.968450    95Ap     5.007359
      75App    5.008793    96Ap     5.238987    97Ap     5.251834
      76App    5.255925    98Ap     5.365380    77App    5.367795
      78App    5.484931

    Final Occupation by Irrep:
             Ap   App
    DOCC [    10,    6 ]
    SOCC [     1,    0 ]

  @DF-UKS Final Energy:  -157.81301225387136

   => Energetics <=

    Nuclear Repulsion Energy =            125.4320655251218568
    One-Electron Energy =                -458.8198332943124456
    Two-Electron Energy =                 195.8859310838833778
    DFT Exchange-Correlation Energy =     -20.3111755685641491
    Empirical Dispersion Energy =           0.0000000000000000
    VV10 Nonlocal Energy =                  0.0000000000000000
    Total Energy =                       -157.8130122538713636

  UHF NO Occupations:
  HONO-2 :    9 Ap 1.9996034
  HONO-1 :   10 Ap 1.9989797
  HONO-0 :   11 Ap 1.0000000
  LUNO+0 :   12 Ap 0.0010203
  LUNO+1 :   13 Ap 0.0003966
  LUNO+2 :    7App 0.0001979
  LUNO+3 :   14 Ap 0.0001979

Computation Completed

Properties will be evaluated at   0.000000,   0.000000,   0.000000 [a0]

Properties computed using the SCF density matrix

  Nuclear Dipole Moment: [e a0]
     X:     0.8268      Y:    -0.0017      Z:     0.0000

  Electronic Dipole Moment: [e a0]
     X:    -0.7482      Y:     0.0023      Z:     0.0000

  Dipole Moment: [e a0]
     X:     0.0785      Y:     0.0006      Z:     0.0000     Total:     0.0785

  Dipole Moment: [D]
     X:     0.1996      Y:     0.0016      Z:     0.0000     Total:     0.1996

*** tstop() called on n082 at Fri Nov  5 14:14:52 2021
Module time:
	user time   =     492.72 seconds =       8.21 minutes
	system time =       4.57 seconds =       0.08 minutes
	total time  =        125 seconds =       2.08 minutes
Total time:
	user time   =     492.72 seconds =       8.21 minutes
	system time =       4.57 seconds =       0.08 minutes
	total time  =        125 seconds =       2.08 minutes
Grab this energy -157.81301225387136
    Psi4 stopped on: Friday, 05 November 2021 02:14PM
    Psi4 wall time for execution: 0:02:05.06

*** Psi4 exiting successfully. Buy a developer a beer!
