                               Psi4 1.4a2.dev629

  ==> Input File <==

--------------------------------------------------------------------------
import os
memory 14 GB

molecule {
 C   -0.3233424669   -0.0022044494   -0.0000000000
 C    0.0608235922   -1.4017067643   -2.4264867728
 C    0.0616466830    2.8007444600   -0.0000000000
 C    0.0608235922   -1.4017067643    2.4264867728
 H    2.0856885105   -1.6417596455   -2.8488704807
 H   -0.7699997819   -0.3884992597   -4.0203951467
 H   -0.7625134536   -3.2951039313   -2.3480329394
 H    2.0892849832    3.2879708473    0.0000000000
 H   -0.7640974053    3.6838020150    1.6761012345
 H   -0.7640974053    3.6838020150   -1.6761012345
 H    2.0856885105   -1.6417596455    2.8488704807
 H   -0.7625134536   -3.2951039313    2.3480329394
 H   -0.7699997819   -0.3884992597    4.0203951467
units bohr
0 2
}

basis {

assign 6-31g_2dfp_

[ 6-31g_2dfp_ ]

spherical

!----------------------------------------------------------------------
! Basis Set Exchange
! Version v0.8.13
! https://www.basissetexchange.org
!----------------------------------------------------------------------
!   Basis set: 6-31G(2df,p)
! Description: 6-31G(2df,p)
!        Role: orbital
!     Version: 0  (Data from the original Basis Set Exchange)
!----------------------------------------------------------------------

****
H     0
S    3   1.00
     18.7311370              0.03349460
      2.8253937              0.23472695
      0.6401217              0.81375733
S    1   1.00
      0.1612778              1.00000000
P    1   1.00
      1.5000000              1.0000000
P    1   1.00
      0.3750000              1.0000000
****
B     0
S    6   1.00
   2068.8823000              0.0018663
    310.6495700              0.0142515
     70.6830330              0.0695516
     19.8610800              0.2325729
      6.2993048              0.4670787
      2.1270270              0.3634314
SP   3   1.00
      4.7279710             -0.1303938              0.0745976
      1.1903377             -0.1307889              0.3078467
      0.3594117              1.1309444              0.7434568
SP   1   1.00
      0.1267512              1.0000000              1.0000000
D    1   1.00
      0.8020000              1.0000000
D    1   1.00
      0.2005000              1.0000000
F    1   1.00
      0.5000000              1.0000000
****
C     0
S    6   1.00
   3047.5249000              0.0018347
    457.3695100              0.0140373
    103.9486900              0.0688426
     29.2101550              0.2321844
      9.2866630              0.4679413
      3.1639270              0.3623120
SP   3   1.00
      7.8682724             -0.1193324              0.0689991
      1.8812885             -0.1608542              0.3164240
      0.5442493              1.1434564              0.7443083
SP   1   1.00
      0.1687144              1.0000000              1.0000000
D    1   1.00
      1.2520000              1.0000000
D    1   1.00
      0.3130000              1.0000000
F    1   1.00
      0.8000000              1.0000000
****
N     0
S    6   1.00
   4173.5110000              0.0018348
    627.4579000              0.0139950
    142.9021000              0.0685870
     40.2343300              0.2322410
     12.8202100              0.4690700
      4.3904370              0.3604550
SP   3   1.00
     11.6263580             -0.1149610              0.0675800
      2.7162800             -0.1691180              0.3239070
      0.7722180              1.1458520              0.7408950
SP   1   1.00
      0.2120313              1.0000000              1.0000000
D    1   1.00
      1.8260000              1.0000000
D    1   1.00
      0.4565000              1.0000000
F    1   1.00
      1.0000000              1.0000000
****
O     0
S    6   1.00
   5484.6717000              0.0018311
    825.2349500              0.0139501
    188.0469600              0.0684451
     52.9645000              0.2327143
     16.8975700              0.4701930
      5.7996353              0.3585209
SP   3   1.00
     15.5396160             -0.1107775              0.0708743
      3.5999336             -0.1480263              0.3397528
      1.0137618              1.1307670              0.7271586
SP   1   1.00
      0.2700058              1.0000000              1.0000000
D    1   1.00
      2.5840000              1.0000000
D    1   1.00
      0.6460000              1.0000000
F    1   1.00
      1.4000000              1.0000000
****
F     0
S    6   1.00
   7001.7130900              0.0018196169
   1051.3660900              0.0139160796
    239.2856900              0.0684053245
     67.3974453              0.233185760
     21.5199573              0.471267439
      7.40310130             0.356618546
SP   3   1.00
     20.8479528             -0.108506975            0.0716287243
      4.80830834            -0.146451658            0.3459121030
      1.34406986             1.128688580            0.7224699570
SP   1   1.00
      0.358151393            1.0000000              1.0000000
D    1   1.00
      3.5000000              1.0000000
D    1   1.00
      0.8750000              1.0000000
F    1   1.00
      1.8500000              1.0000000
****
Al     0
S    6   1.00
  13983.1000000              0.00194267
   2098.7500000              0.0148599
    477.7050000              0.0728494
    134.3600000              0.2468300
     42.8709000              0.4872580
     14.5189000              0.3234960
SP   6   1.00
    239.6680000             -0.00292619             0.00460285
     57.4419000             -0.0374080              0.0331990
     18.2859000             -0.1144870              0.1362820
      6.5991400              0.1156350              0.3304760
      2.4904900              0.6125950              0.4491460
      0.9445400              0.3937990              0.2657040
SP   3   1.00
      1.2779000             -0.2276060             -0.0175130
      0.3975900              0.00144583             0.2445330
      0.1600950              1.0927900              0.8049340
SP   1   1.00
      0.0556577              1.0000000              1.0000000
D    1   1.00
      0.6500000              1.0000000
D    1   1.00
      0.1625000              1.0000000
F    1   1.00
      0.2500000              1.0000000
****
Si     0
S    6   1.00
  16115.9000000              0.00195948
   2425.5800000              0.01492880
    553.8670000              0.07284780
    156.3400000              0.24613000
     50.0683000              0.48591400
     17.0178000              0.32500200
SP   6   1.00
    292.7180000             -0.00278094             0.00443826
     69.8731000             -0.03571460             0.03266790
     22.3363000             -0.11498500             0.13472100
      8.1503900              0.09356340             0.32867800
      3.1345800              0.60301700             0.44964000
      1.2254300              0.41895900             0.26137200
SP   3   1.00
      1.7273800             -0.24463000            -0.01779510
      0.5729220              0.00431572             0.25353900
      0.2221920              1.09818000             0.80066900
SP   1   1.00
      0.0778369              1.00000000             1.00000000
D    1   1.00
      0.9000000              1.0000000
D    1   1.00
      0.2250000              1.0000000
F    1   1.00
      0.3200000              1.0000000
****
P     0
S    6   1.00
  19413.3000000              0.0018516
   2909.4200000              0.0142062
    661.3640000              0.0699995
    185.7590000              0.2400790
     59.1943000              0.4847620
     20.0310000              0.3352000
SP   6   1.00
    339.4780000             -0.00278217             0.00456462
     81.0101000             -0.0360499              0.03369360
     25.8780000             -0.1166310              0.13975500
      9.4522100              0.0968328              0.33936200
      3.6656600              0.6144180              0.45092100
      1.4674600              0.4037980              0.23858600
SP   3   1.00
      2.1562300             -0.2529230             -0.01776530
      0.7489970              0.0328517              0.27405800
      0.2831450              1.0812500              0.78542100
SP   1   1.00
      0.0998317              1.0000000              1.00000000
D    1   1.00
      1.1000000              1.0000000
D    1   1.00
      0.2750000              1.0000000
F    1   1.00
      0.4500000              1.0000000
****
S     0
S    6   1.00
  21917.1000000              0.0018690
   3301.4900000              0.0142300
    754.1460000              0.0696960
    212.7110000              0.2384870
     67.9896000              0.4833070
     23.0515000              0.3380740
SP   6   1.00
    423.7350000             -0.0023767              0.0040610
    100.7100000             -0.0316930              0.0306810
     32.1599000             -0.1133170              0.1304520
     11.8079000              0.0560900              0.3272050
      4.6311000              0.5922550              0.4528510
      1.8702500              0.4550060              0.2560420
SP   3   1.00
      2.6158400             -0.2503740             -0.0145110
      0.9221670              0.0669570              0.3102630
      0.3412870              1.0545100              0.7544830
SP   1   1.00
      0.1171670              1.0000000              1.0000000
D    1   1.00
      1.3000000              1.0000000
D    1   1.00
      0.3250000              1.0000000
F    1   1.00
      0.5500000              1.0000000
****
Cl     0
S    6   1.00
  25180.1000000              0.0018330
   3780.3500000              0.0140340
    860.4740000              0.0690970
    242.1450000              0.2374520
     77.3349000              0.4830340
     26.2470000              0.3398560
SP   6   1.00
    491.7650000             -0.0022974              0.0039894
    116.9840000             -0.0307140              0.0303180
     37.4153000             -0.1125280              0.1298800
     13.7834000              0.0450160              0.3279510
      5.4521500              0.5893530              0.4535270
      2.2258800              0.4652060              0.2521540
SP   3   1.00
      3.1864900             -0.2518300             -0.0142990
      1.1442700              0.0615890              0.3235720
      0.4203770              1.0601800              0.7435070
SP   1   1.00
      0.1426570              1.0000000              1.0000000
D    1   1.00
      1.5000000              1.0000000
D    1   1.00
      0.3750000              1.0000000
F    1   1.00
      0.7000000              1.0000000
****
}

set {
reference uhf
freeze_core true
e_convergence 10
d_convergence 10
dft_spherical_points 1202
dft_radial_points 99
}

e = energy('b3lyp')

print_out('Grab this energy {0}'.format(e))
--------------------------------------------------------------------------

    Molecular point group: cs

    Geometry (in Bohr), charge = 0, multiplicity = 2:

       Center              X                  Y                   Z               Mass
    ------------   -----------------  -----------------  -----------------  -----------------
         C           -0.323340807652    -0.001265345368     0.000000000000    12.000000000000
         C            0.060825251448    -1.400767660268    -2.426486772800    12.000000000000
         C            0.061648342248     2.801683564032     0.000000000000    12.000000000000
         C            0.060825251448    -1.400767660268     2.426486772800    12.000000000000
         H            2.085690169748    -1.640820541468    -2.848870480700     1.007825032230
         H           -0.769998122652    -0.387560155668    -4.020395146700     1.007825032230
         H           -0.762511794352    -3.294164827268    -2.348032939400     1.007825032230
         H            2.089286642448     3.288909951332     0.000000000000     1.007825032230
         H           -0.764095746052     3.684741119032     1.676101234500     1.007825032230
         H           -0.764095746052     3.684741119032    -1.676101234500     1.007825032230
         H            2.085690169748    -1.640820541468     2.848870480700     1.007825032230
         H           -0.762511794352    -3.294164827268     2.348032939400     1.007825032230
         H           -0.769998122652    -0.387560155668     4.020395146700     1.007825032230

  Charge       = 0
  Multiplicity = 2
  Basis Set: ANONYMOUSD6132DF5
    Blend: 6-31G_2DFP_
  Basis Set: (ANONYMOUSD6132DF5 AUX)
    Blend: DEF2-UNIVERSAL-JKFIT

    Orbital Energies [Eh]
    ---------------------

    Alpha Occupied:

       1Ap   -10.180342     2Ap   -10.167275     1App  -10.166901
       3Ap   -10.166869     4Ap    -0.797766     2App   -0.686353
       5Ap    -0.686020     6Ap    -0.530776     7Ap    -0.441125
       8Ap    -0.434824     3App   -0.434519     4App   -0.382734
       9Ap    -0.382463     5App   -0.363608    10Ap    -0.338058
       6App   -0.337940    11Ap    -0.168961

    Alpha Virtual:

      12Ap     0.076073    13Ap     0.134074     7App    0.134238
       8App    0.142553    14Ap     0.142703    15Ap     0.154880
      16Ap     0.178697     9App    0.178856    17Ap     0.203549
      10App    0.214802    18Ap     0.275875    11App    0.276095
      19Ap     0.399227    12App    0.399228    20Ap     0.403347
      13App    0.424088    21Ap     0.424108    22Ap     0.456593
      14App    0.495317    23Ap     0.495461    15App    0.512160
      24Ap     0.513979    25Ap     0.578661    16App    0.578971
      26Ap     0.591344    17App    0.591922    27Ap     0.602575
      28Ap     0.624761    18App    0.631757    19App    0.636187
      29Ap     0.636327    30Ap     0.663269    20App    0.663556
      31Ap     0.683849    21App    0.683854    32Ap     0.734993
      33Ap     0.825324    22App    0.825492    23App    0.853916
      34Ap     0.914911    24App    0.915143    25App    0.944124
      35Ap     0.944615    36Ap     0.961225    26App    0.961358
      37Ap     1.003452    27App    1.127996    38Ap     1.128182
      39Ap     1.142250    28App    1.162878    40Ap     1.163674
      41Ap     1.223319    29App    1.274370    42Ap     1.274620
      43Ap     1.279358    44Ap     1.324298    30App    1.324413
      45Ap     1.355999    46Ap     1.365917    31App    1.366187
      32App    1.392422    47Ap     1.403551    33App    1.404566
      48Ap     1.416996    34App    1.417227    35App    1.427919
      36App    1.491492    49Ap     1.499083    50Ap     1.542757
      37App    1.542893    38App    1.574028    51Ap     1.574859
      52Ap     1.669828    53Ap     1.739016    39App    1.739829
      54Ap     1.768306    55Ap     1.830485    40App    1.832310
      41App    1.971736    56Ap     2.018295    42App    2.018544
      57Ap     2.019553    58Ap     2.052358    43App    2.052934
      59Ap     2.738311    44App    2.738661    60Ap     2.790927
      45App    2.811424    61Ap     2.889589    46App    2.890304
      62Ap     2.894959    47App    2.929266    63Ap     2.929723
      48App    2.958990    49App    2.964047    64Ap     2.964712
      65Ap     3.034009    66Ap     3.070861    50App    3.071702
      51App    3.084351    52App    3.168653    67Ap     3.168918
      68Ap     3.180583    69Ap     3.285280    53App    3.285347
      70Ap     3.326895    54App    3.327421    71Ap     3.375623
      55App    3.490053    72Ap     3.490268    56App    3.514021
      73Ap     3.525321    74Ap     3.567649    57App    3.569128
      58App    3.575140    75Ap     3.665758    59App    3.666869
      76Ap     3.679779    77Ap     3.693667    60App    3.694580
      61App    3.775298    78Ap     3.778292    79Ap     3.789154
      62App    3.911969    80Ap     3.912484    81Ap     4.034447
      82Ap     4.110512    63App    4.112234    83Ap     4.147871
      64App    4.148390    84Ap     4.173249    85Ap     4.202643
      86Ap     4.203020    65App    4.203130    66App    4.210851
      67App    4.315717    87Ap     4.316163    68App    4.358997
      69App    4.422870    88Ap     4.425890    70App    4.443580
      89Ap     4.516733    71App    4.516969    90Ap     4.577621
      72App    4.578920    91Ap     4.617496    92Ap     4.709442
      73App    4.774283    93Ap     4.774921    74App    4.836913
      94Ap     4.962781    95Ap     5.001713    75App    5.004284
      96Ap     5.228019    76App    5.246485    97Ap     5.247141
      98Ap     5.354624    77App    5.356397    78App    5.479348

    Beta Occupied:

       1Ap   -10.168034     1App  -10.167653     2Ap   -10.167637
       3Ap   -10.166519     4Ap    -0.781092     2App   -0.684149
       5Ap    -0.683829     6Ap    -0.511747     7Ap    -0.431205
       3App   -0.430881     8Ap    -0.421823     4App   -0.376828
       9Ap    -0.376540     5App   -0.362592    10Ap    -0.333182
       6App   -0.333063

    Beta Virtual:

      11Ap    -0.025742    12Ap     0.077082    13Ap     0.134981
       7App    0.135110     8App    0.144429    14Ap     0.144567
      15Ap     0.163339    16Ap     0.182373     9App    0.182524
      10App    0.215031    17Ap     0.218931    18Ap     0.282225
      11App    0.282441    12App    0.400395    19Ap     0.400401
      20Ap     0.419791    21Ap     0.426908    13App    0.426911
      22Ap     0.468501    14App    0.497578    23Ap     0.497721
      15App    0.513895    24Ap     0.556324    25Ap     0.584205
      16App    0.584527    26Ap     0.597544    17App    0.598081
      27Ap     0.609998    28Ap     0.628137    18App    0.631921
      19App    0.639491    29Ap     0.639587    30Ap     0.666850
      20App    0.667103    31Ap     0.686485    21App    0.686489
      32Ap     0.757516    33Ap     0.830515    22App    0.830637
      23App    0.855270    34Ap     0.922882    24App    0.923115
      25App    0.945960    35Ap     0.953543    36Ap     0.966505
      26App    0.966691    37Ap     1.008692    27App    1.131975
      38Ap     1.132274    39Ap     1.155616    28App    1.167996
      40Ap     1.168701    41Ap     1.232292    29App    1.279969
      42Ap     1.280217    43Ap     1.285110    44Ap     1.329287
      30App    1.329404    45Ap     1.365415    46Ap     1.371172
      31App    1.371418    32App    1.393484    47Ap     1.407041
      33App    1.408007    48Ap     1.422037    34App    1.422284
      35App    1.428188    36App    1.492540    49Ap     1.509527
      50Ap     1.547202    37App    1.547263    38App    1.581937
      51Ap     1.582694    52Ap     1.674675    53Ap     1.744761
      39App    1.745607    54Ap     1.779087    55Ap     1.834344
      40App    1.836162    41App    1.972595    42App    2.024983
      56Ap     2.025910    57Ap     2.039679    58Ap     2.059107
      43App    2.059614    59Ap     2.746643    44App    2.747000
      45App    2.811836    60Ap     2.816062    61Ap     2.902330
      46App    2.902956    62Ap     2.924647    47App    2.931764
      63Ap     2.932189    48App    2.960054    49App    2.968591
      64Ap     2.969257    65Ap     3.041944    66Ap     3.080818
      50App    3.081556    51App    3.086177    52App    3.184464
      67Ap     3.184616    68Ap     3.188257    69Ap     3.290049
      53App    3.290176    70Ap     3.330698    54App    3.331225
      71Ap     3.383442    55App    3.492780    72Ap     3.492999
      56App    3.512387    73Ap     3.528367    57App    3.574999
      74Ap     3.581036    58App    3.582417    75Ap     3.670401
      59App    3.671777    76Ap     3.693020    77Ap     3.725445
      60App    3.726068    61App    3.779824    78Ap     3.782844
      79Ap     3.817673    62App    3.921793    80Ap     3.922294
      81Ap     4.045334    82Ap     4.117433    63App    4.118944
      83Ap     4.155049    64App    4.155628    84Ap     4.187311
      85Ap     4.208948    65App    4.209069    86Ap     4.210621
      66App    4.215322    67App    4.323157    87Ap     4.323599
      68App    4.362361    69App    4.431082    88Ap     4.434054
      70App    4.446522    89Ap     4.524529    71App    4.524751
      90Ap     4.588234    72App    4.589509    91Ap     4.624690
      92Ap     4.719785    73App    4.781257    93Ap     4.781854
      74App    4.839830    94Ap     4.967575    95Ap     5.005748
      75App    5.008326    96Ap     5.233734    76App    5.248265
      97Ap     5.248931    98Ap     5.361104    77App    5.362878
      78App    5.481669

    Final Occupation by Irrep:
             Ap   App
    DOCC [    10,    6 ]
    SOCC [     1,    0 ]

  @DF-UKS Final Energy:  -157.81306874124678

   => Energetics <=

    Nuclear Repulsion Energy =            125.3945998848566887
    One-Electron Energy =                -458.7488626673531940
    Two-Electron Energy =                 195.8483362454651626
    DFT Exchange-Correlation Energy =     -20.3071422042154275
    Empirical Dispersion Energy =           0.0000000000000000
    VV10 Nonlocal Energy =                  0.0000000000000000
    Total Energy =                       -157.8130687412467807

  UHF NO Occupations:
  HONO-2 :    9 Ap 1.9996009
  HONO-1 :   10 Ap 1.9989805
  HONO-0 :   11 Ap 1.0000000
  LUNO+0 :   12 Ap 0.0010195
  LUNO+1 :   13 Ap 0.0003991
  LUNO+2 :   14 Ap 0.0001977
  LUNO+3 :    7App 0.0001973

Computation Completed

Properties will be evaluated at   0.000000,   0.000000,   0.000000 [a0]

Properties computed using the SCF density matrix

  Nuclear Dipole Moment: [e a0]
     X:     0.8272      Y:     0.0066      Z:     0.0000

  Electronic Dipole Moment: [e a0]
     X:    -0.7493      Y:    -0.0066      Z:     0.0000

  Dipole Moment: [e a0]
     X:     0.0779      Y:    -0.0000      Z:     0.0000     Total:     0.0779

  Dipole Moment: [D]
     X:     0.1980      Y:    -0.0001      Z:     0.0000     Total:     0.1980

*** tstop() called on n066 at Fri Nov  5 13:04:37 2021
Module time:
	user time   =     544.96 seconds =       9.08 minutes
	system time =      11.95 seconds =       0.20 minutes
	total time  =        140 seconds =       2.33 minutes
Total time:
	user time   =     544.96 seconds =       9.08 minutes
	system time =      11.95 seconds =       0.20 minutes
	total time  =        140 seconds =       2.33 minutes
Grab this energy -157.81306874124678
    Psi4 stopped on: Friday, 05 November 2021 01:04PM
    Psi4 wall time for execution: 0:02:20.04

*** Psi4 exiting successfully. Buy a developer a beer!
