                               Psi4 1.4a2.dev629

  ==> Input File <==

--------------------------------------------------------------------------
import os
memory 14 GB

molecule {
 C   -0.3233534606   -0.0000021273   -0.0000000197
 C    0.0609558185   -1.3993644327   -2.4253601754
 C    0.0608362297    2.8001204607    0.0008003535
 C    0.0609558925   -1.4007506758    2.4245598066
 H    2.0868825561   -1.6429770654   -2.8486666460
 H   -0.7646093022   -0.3899042751   -4.0301919134
 H   -0.7661216103   -3.2890580438   -2.3461287419
 H    2.0867437622    3.2886041608    0.0015833467
 H   -0.7648505659    3.6851741225    1.6773979597
 H   -0.7661991822    3.6763064683   -1.6753823251
 H    2.0868827439   -1.6457198736    2.8470841476
 H   -0.7647724950   -3.2952372318    2.3527999873
 H   -0.7659582632   -0.3872158004    4.0215042200
units bohr
0 2
}

basis {

assign 6-31g_2dfp_

[ 6-31g_2dfp_ ]

spherical

!----------------------------------------------------------------------
! Basis Set Exchange
! Version v0.8.13
! https://www.basissetexchange.org
!----------------------------------------------------------------------
!   Basis set: 6-31G(2df,p)
! Description: 6-31G(2df,p)
!        Role: orbital
!     Version: 0  (Data from the original Basis Set Exchange)
!----------------------------------------------------------------------

****
H     0
S    3   1.00
     18.7311370              0.03349460
      2.8253937              0.23472695
      0.6401217              0.81375733
S    1   1.00
      0.1612778              1.00000000
P    1   1.00
      1.5000000              1.0000000
P    1   1.00
      0.3750000              1.0000000
****
B     0
S    6   1.00
   2068.8823000              0.0018663
    310.6495700              0.0142515
     70.6830330              0.0695516
     19.8610800              0.2325729
      6.2993048              0.4670787
      2.1270270              0.3634314
SP   3   1.00
      4.7279710             -0.1303938              0.0745976
      1.1903377             -0.1307889              0.3078467
      0.3594117              1.1309444              0.7434568
SP   1   1.00
      0.1267512              1.0000000              1.0000000
D    1   1.00
      0.8020000              1.0000000
D    1   1.00
      0.2005000              1.0000000
F    1   1.00
      0.5000000              1.0000000
****
C     0
S    6   1.00
   3047.5249000              0.0018347
    457.3695100              0.0140373
    103.9486900              0.0688426
     29.2101550              0.2321844
      9.2866630              0.4679413
      3.1639270              0.3623120
SP   3   1.00
      7.8682724             -0.1193324              0.0689991
      1.8812885             -0.1608542              0.3164240
      0.5442493              1.1434564              0.7443083
SP   1   1.00
      0.1687144              1.0000000              1.0000000
D    1   1.00
      1.2520000              1.0000000
D    1   1.00
      0.3130000              1.0000000
F    1   1.00
      0.8000000              1.0000000
****
N     0
S    6   1.00
   4173.5110000              0.0018348
    627.4579000              0.0139950
    142.9021000              0.0685870
     40.2343300              0.2322410
     12.8202100              0.4690700
      4.3904370              0.3604550
SP   3   1.00
     11.6263580             -0.1149610              0.0675800
      2.7162800             -0.1691180              0.3239070
      0.7722180              1.1458520              0.7408950
SP   1   1.00
      0.2120313              1.0000000              1.0000000
D    1   1.00
      1.8260000              1.0000000
D    1   1.00
      0.4565000              1.0000000
F    1   1.00
      1.0000000              1.0000000
****
O     0
S    6   1.00
   5484.6717000              0.0018311
    825.2349500              0.0139501
    188.0469600              0.0684451
     52.9645000              0.2327143
     16.8975700              0.4701930
      5.7996353              0.3585209
SP   3   1.00
     15.5396160             -0.1107775              0.0708743
      3.5999336             -0.1480263              0.3397528
      1.0137618              1.1307670              0.7271586
SP   1   1.00
      0.2700058              1.0000000              1.0000000
D    1   1.00
      2.5840000              1.0000000
D    1   1.00
      0.6460000              1.0000000
F    1   1.00
      1.4000000              1.0000000
****
F     0
S    6   1.00
   7001.7130900              0.0018196169
   1051.3660900              0.0139160796
    239.2856900              0.0684053245
     67.3974453              0.233185760
     21.5199573              0.471267439
      7.40310130             0.356618546
SP   3   1.00
     20.8479528             -0.108506975            0.0716287243
      4.80830834            -0.146451658            0.3459121030
      1.34406986             1.128688580            0.7224699570
SP   1   1.00
      0.358151393            1.0000000              1.0000000
D    1   1.00
      3.5000000              1.0000000
D    1   1.00
      0.8750000              1.0000000
F    1   1.00
      1.8500000              1.0000000
****
Al     0
S    6   1.00
  13983.1000000              0.00194267
   2098.7500000              0.0148599
    477.7050000              0.0728494
    134.3600000              0.2468300
     42.8709000              0.4872580
     14.5189000              0.3234960
SP   6   1.00
    239.6680000             -0.00292619             0.00460285
     57.4419000             -0.0374080              0.0331990
     18.2859000             -0.1144870              0.1362820
      6.5991400              0.1156350              0.3304760
      2.4904900              0.6125950              0.4491460
      0.9445400              0.3937990              0.2657040
SP   3   1.00
      1.2779000             -0.2276060             -0.0175130
      0.3975900              0.00144583             0.2445330
      0.1600950              1.0927900              0.8049340
SP   1   1.00
      0.0556577              1.0000000              1.0000000
D    1   1.00
      0.6500000              1.0000000
D    1   1.00
      0.1625000              1.0000000
F    1   1.00
      0.2500000              1.0000000
****
Si     0
S    6   1.00
  16115.9000000              0.00195948
   2425.5800000              0.01492880
    553.8670000              0.07284780
    156.3400000              0.24613000
     50.0683000              0.48591400
     17.0178000              0.32500200
SP   6   1.00
    292.7180000             -0.00278094             0.00443826
     69.8731000             -0.03571460             0.03266790
     22.3363000             -0.11498500             0.13472100
      8.1503900              0.09356340             0.32867800
      3.1345800              0.60301700             0.44964000
      1.2254300              0.41895900             0.26137200
SP   3   1.00
      1.7273800             -0.24463000            -0.01779510
      0.5729220              0.00431572             0.25353900
      0.2221920              1.09818000             0.80066900
SP   1   1.00
      0.0778369              1.00000000             1.00000000
D    1   1.00
      0.9000000              1.0000000
D    1   1.00
      0.2250000              1.0000000
F    1   1.00
      0.3200000              1.0000000
****
P     0
S    6   1.00
  19413.3000000              0.0018516
   2909.4200000              0.0142062
    661.3640000              0.0699995
    185.7590000              0.2400790
     59.1943000              0.4847620
     20.0310000              0.3352000
SP   6   1.00
    339.4780000             -0.00278217             0.00456462
     81.0101000             -0.0360499              0.03369360
     25.8780000             -0.1166310              0.13975500
      9.4522100              0.0968328              0.33936200
      3.6656600              0.6144180              0.45092100
      1.4674600              0.4037980              0.23858600
SP   3   1.00
      2.1562300             -0.2529230             -0.01776530
      0.7489970              0.0328517              0.27405800
      0.2831450              1.0812500              0.78542100
SP   1   1.00
      0.0998317              1.0000000              1.00000000
D    1   1.00
      1.1000000              1.0000000
D    1   1.00
      0.2750000              1.0000000
F    1   1.00
      0.4500000              1.0000000
****
S     0
S    6   1.00
  21917.1000000              0.0018690
   3301.4900000              0.0142300
    754.1460000              0.0696960
    212.7110000              0.2384870
     67.9896000              0.4833070
     23.0515000              0.3380740
SP   6   1.00
    423.7350000             -0.0023767              0.0040610
    100.7100000             -0.0316930              0.0306810
     32.1599000             -0.1133170              0.1304520
     11.8079000              0.0560900              0.3272050
      4.6311000              0.5922550              0.4528510
      1.8702500              0.4550060              0.2560420
SP   3   1.00
      2.6158400             -0.2503740             -0.0145110
      0.9221670              0.0669570              0.3102630
      0.3412870              1.0545100              0.7544830
SP   1   1.00
      0.1171670              1.0000000              1.0000000
D    1   1.00
      1.3000000              1.0000000
D    1   1.00
      0.3250000              1.0000000
F    1   1.00
      0.5500000              1.0000000
****
Cl     0
S    6   1.00
  25180.1000000              0.0018330
   3780.3500000              0.0140340
    860.4740000              0.0690970
    242.1450000              0.2374520
     77.3349000              0.4830340
     26.2470000              0.3398560
SP   6   1.00
    491.7650000             -0.0022974              0.0039894
    116.9840000             -0.0307140              0.0303180
     37.4153000             -0.1125280              0.1298800
     13.7834000              0.0450160              0.3279510
      5.4521500              0.5893530              0.4535270
      2.2258800              0.4652060              0.2521540
SP   3   1.00
      3.1864900             -0.2518300             -0.0142990
      1.1442700              0.0615890              0.3235720
      0.4203770              1.0601800              0.7435070
SP   1   1.00
      0.1426570              1.0000000              1.0000000
D    1   1.00
      1.5000000              1.0000000
D    1   1.00
      0.3750000              1.0000000
F    1   1.00
      0.7000000              1.0000000
****
}

set {
reference uhf
freeze_core true
e_convergence 10
d_convergence 10
dft_spherical_points 1202
dft_radial_points 99
}

e = energy('b3lyp')

print_out('Grab this energy {0}'.format(e))
--------------------------------------------------------------------------

    Molecular point group: c1

    Geometry (in Bohr), charge = 0, multiplicity = 2:

       Center              X                  Y                   Z               Mass
    ------------   -----------------  -----------------  -----------------  -----------------
         C           -0.323244534478    -0.000002319077    -0.000000012957    12.000000000000
         C            0.061064744622    -1.399364624477    -2.425360168657    12.000000000000
         C            0.060945155822     2.800120268923     0.000800360243    12.000000000000
         C            0.061064818622    -1.400750867577     2.424559813343    12.000000000000
         H            2.086991482222    -1.642977257177    -2.848666639257     1.007825032230
         H           -0.764500376078    -0.389904466877    -4.030191906657     1.007825032230
         H           -0.766012684178    -3.289058235577    -2.346128735157     1.007825032230
         H            2.086852688322     3.288603969023     0.001583353443     1.007825032230
         H           -0.764741639778     3.685173930723     1.677397966443     1.007825032230
         H           -0.766090256078     3.676306276523    -1.675382318357     1.007825032230
         H            2.086991670022    -1.645720065377     2.847084154343     1.007825032230
         H           -0.764663568878    -3.295237423577     2.352799994043     1.007825032230
         H           -0.765849337078    -0.387215992177     4.021504226743     1.007825032230

  Charge       = 0
  Multiplicity = 2
  Basis Set: ANONYMOUS668F3F04
    Blend: 6-31G_2DFP_
  Basis Set: (ANONYMOUS668F3F04 AUX)
    Blend: DEF2-UNIVERSAL-JKFIT

    Orbital Energies [Eh]
    ---------------------

    Alpha Occupied:

       1A    -10.180291     2A    -10.167083     3A    -10.167083
       4A    -10.167037     5A     -0.798024     6A     -0.686197
       7A     -0.686196     8A     -0.530942     9A     -0.441134
      10A     -0.434741    11A     -0.434741    12A     -0.382461
      13A     -0.382459    14A     -0.363409    15A     -0.338158
      16A     -0.338158    17A     -0.168982

    Alpha Virtual:

      18A      0.076065    19A      0.134096    20A      0.134097
      21A      0.142495    22A      0.142496    23A      0.154985
      24A      0.178613    25A      0.178613    26A      0.203818
      27A      0.214696    28A      0.276225    29A      0.276227
      30A      0.399221    31A      0.399225    32A      0.403252
      33A      0.424044    34A      0.424045    35A      0.456774
      36A      0.495380    37A      0.495381    38A      0.512105
      39A      0.513922    40A      0.578770    41A      0.578778
      42A      0.591534    43A      0.591536    44A      0.602527
      45A      0.624567    46A      0.631624    47A      0.636302
      48A      0.636306    49A      0.663526    50A      0.663527
      51A      0.683838    52A      0.683839    53A      0.734861
      54A      0.825427    55A      0.825430    56A      0.854052
      57A      0.914981    58A      0.914987    59A      0.944092
      60A      0.944989    61A      0.961217    62A      0.961234
      63A      1.003298    64A      1.128178    65A      1.128190
      66A      1.142634    67A      1.162653    68A      1.162666
      69A      1.223753    70A      1.274624    71A      1.274627
      72A      1.279513    73A      1.324555    74A      1.324557
      75A      1.356314    76A      1.366187    77A      1.366191
      78A      1.391972    79A      1.403309    80A      1.403311
      81A      1.417110    82A      1.417116    83A      1.427663
      84A      1.492017    85A      1.498500    86A      1.542988
      87A      1.542990    88A      1.574546    89A      1.574549
      90A      1.669048    91A      1.739918    92A      1.739929
      93A      1.768294    94A      1.830970    95A      1.830971
      96A      1.972327    97A      2.018087    98A      2.019790
      99A      2.019795   100A      2.053074   101A      2.053075
     102A      2.738660   103A      2.738661   104A      2.791143
     105A      2.811516   106A      2.890059   107A      2.890065
     108A      2.895345   109A      2.929334   110A      2.929343
     111A      2.958947   112A      2.964341   113A      2.964355
     114A      3.034187   115A      3.071227   116A      3.071241
     117A      3.084750   118A      3.168881   119A      3.168888
     120A      3.181180   121A      3.284971   122A      3.284971
     123A      3.327417   124A      3.327423   125A      3.375516
     126A      3.490228   127A      3.490248   128A      3.514077
     129A      3.525763   130A      3.568620   131A      3.568640
     132A      3.575009   133A      3.665592   134A      3.665600
     135A      3.679082   136A      3.694005   137A      3.694022
     138A      3.776865   139A      3.776891   140A      3.788821
     141A      3.913338   142A      3.913345   143A      4.035021
     144A      4.111092   145A      4.111096   146A      4.148120
     147A      4.148128   148A      4.173910   149A      4.203516
     150A      4.203737   151A      4.203741   152A      4.211215
     153A      4.315822   154A      4.315842   155A      4.358322
     156A      4.423284   157A      4.423288   158A      4.441475
     159A      4.517180   160A      4.517181   161A      4.578985
     162A      4.578997   163A      4.617921   164A      4.710715
     165A      4.775378   166A      4.775386   167A      4.838237
     168A      4.961579   169A      5.002072   170A      5.002085
     171A      5.227514   172A      5.246534   173A      5.246534
     174A      5.355658   175A      5.355671   176A      5.480568

    Beta Occupied:

       1A    -10.167838     2A    -10.167837     3A    -10.167811
       4A    -10.166479     5A     -0.781334     6A     -0.683994
       7A     -0.683993     8A     -0.511959     9A     -0.431093
      10A     -0.431092    11A     -0.421790    12A     -0.376530
      13A     -0.376528    14A     -0.362389    15A     -0.333296
      16A     -0.333296

    Beta Virtual:

      17A     -0.025913    18A      0.077078    19A      0.134994
      20A      0.134995    21A      0.144368    22A      0.144368
      23A      0.163487    24A      0.182299    25A      0.182300
      26A      0.214865    27A      0.219214    28A      0.282553
      29A      0.282555    30A      0.400397    31A      0.400401
      32A      0.419707    33A      0.426857    34A      0.426857
      35A      0.468758    36A      0.497648    37A      0.497649
      38A      0.513850    39A      0.556236    40A      0.584319
      41A      0.584327    42A      0.597704    43A      0.597705
      44A      0.609944    45A      0.627920    46A      0.631843
      47A      0.639605    48A      0.639609    49A      0.667092
      50A      0.667092    51A      0.686483    52A      0.686485
      53A      0.757307    54A      0.830611    55A      0.830613
      56A      0.855417    57A      0.922949    58A      0.922956
      59A      0.945992    60A      0.953876    61A      0.966533
      62A      0.966549    63A      1.008528    64A      1.132198
      65A      1.132210    66A      1.156052    67A      1.167718
      68A      1.167731    69A      1.232667    70A      1.280252
      71A      1.280256    72A      1.285242    73A      1.329566
      74A      1.329568    75A      1.365739    76A      1.371367
      77A      1.371371    78A      1.393041    79A      1.406812
      80A      1.406815    81A      1.422158    82A      1.422165
      83A      1.427919    84A      1.493079    85A      1.508964
      86A      1.547419    87A      1.547419    88A      1.582401
      89A      1.582401    90A      1.673889    91A      1.745676
      92A      1.745688    93A      1.779115    94A      1.834850
      95A      1.834852    96A      1.973195    97A      2.026254
      98A      2.026258    99A      2.039468   100A      2.059749
     101A      2.059749   102A      2.746964   103A      2.746965
     104A      2.811917   105A      2.816255   106A      2.902708
     107A      2.902713   108A      2.925090   109A      2.931842
     110A      2.931851   111A      2.960011   112A      2.968917
     113A      2.968931   114A      3.042164   115A      3.081182
     116A      3.081194   117A      3.086574   118A      3.184543
     119A      3.184548   120A      3.188826   121A      3.289817
     122A      3.289817   123A      3.331218   124A      3.331223
     125A      3.383366   126A      3.492968   127A      3.492988
     128A      3.512461   129A      3.528749   130A      3.574876
     131A      3.581884   132A      3.581905   133A      3.670165
     134A      3.670175   135A      3.692374   136A      3.725746
     137A      3.725762   138A      3.781454   139A      3.781480
     140A      3.817313   141A      3.923116   142A      3.923123
     143A      4.045829   144A      4.118004   145A      4.118007
     146A      4.155275   147A      4.155284   148A      4.188024
     149A      4.209674   150A      4.209677   151A      4.211516
     152A      4.215713   153A      4.323170   154A      4.323191
     155A      4.361708   156A      4.431568   157A      4.431571
     158A      4.444356   159A      4.525034   160A      4.525035
     161A      4.589606   162A      4.589618   163A      4.625132
     164A      4.721060   165A      4.782330   166A      4.782337
     167A      4.841154   168A      4.966395   169A      5.006134
     170A      5.006147   171A      5.233247   172A      5.248328
     173A      5.248328   174A      5.362167   175A      5.362180
     176A      5.482897

    Final Occupation by Irrep:
              A
    DOCC [    16 ]
    SOCC [     1 ]

  @DF-UKS Final Energy:  -157.81308840354680

   => Energetics <=

    Nuclear Repulsion Energy =            125.4225637631424775
    One-Electron Energy =                -458.8038810587356693
    Two-Electron Energy =                 195.8752556391960411
    DFT Exchange-Correlation Energy =     -20.3070267471496493
    Empirical Dispersion Energy =           0.0000000000000000
    VV10 Nonlocal Energy =                  0.0000000000000000
    Total Energy =                       -157.8130884035468000

  UHF NO Occupations:
  HONO-2 :   15  A 1.9995993
  HONO-1 :   16  A 1.9989827
  HONO-0 :   17  A 1.0000000
  LUNO+0 :   18  A 0.0010173
  LUNO+1 :   19  A 0.0004007
  LUNO+2 :   20  A 0.0001968
  LUNO+3 :   21  A 0.0001968

Computation Completed

Properties will be evaluated at   0.000000,   0.000000,   0.000000 [a0]

Properties computed using the SCF density matrix

  Nuclear Dipole Moment: [e a0]
     X:     0.8280      Y:    -0.0000      Z:     0.0000

  Electronic Dipole Moment: [e a0]
     X:    -0.7502      Y:     0.0000      Z:    -0.0000

  Dipole Moment: [e a0]
     X:     0.0778      Y:     0.0000      Z:    -0.0000     Total:     0.0778

  Dipole Moment: [D]
     X:     0.1977      Y:     0.0000      Z:    -0.0000     Total:     0.1977

*** tstop() called on n062 at Fri Nov  5 13:25:37 2021
Module time:
	user time   =     543.06 seconds =       9.05 minutes
	system time =      12.41 seconds =       0.21 minutes
	total time  =        140 seconds =       2.33 minutes
Total time:
	user time   =     543.06 seconds =       9.05 minutes
	system time =      12.41 seconds =       0.21 minutes
	total time  =        140 seconds =       2.33 minutes
Grab this energy -157.8130884035468
    Psi4 stopped on: Friday, 05 November 2021 01:25PM
    Psi4 wall time for execution: 0:02:19.69

*** Psi4 exiting successfully. Buy a developer a beer!
