                               Psi4 1.4a2.dev629

  ==> Input File <==

--------------------------------------------------------------------------
import os
memory 14 GB

molecule {
 C   -0.3243876613   -0.0000020616    0.0000000000
 C    0.0599867432   -1.4006253094   -2.4259436358
 C    0.0598669132    2.8012548073   -0.0000000000
 C    0.0599867432   -1.4006253094    2.4259436358
 H    2.0934036187   -1.6441261921   -2.8474890050
 H   -0.7678876161   -0.3878152130   -4.0256550132
 H   -0.7680503485   -3.2923522533   -2.3487229395
 H    2.0932646124    3.2881591286   -0.0000000000
 H   -0.7681282678    3.6802008737    1.6769378260
 H   -0.7681282678    3.6802008737   -1.6769378260
 H    2.0934036187   -1.6441261921    2.8474890050
 H   -0.7680503485   -3.2923522533    2.3487229395
 H   -0.7678876161   -0.3878152130    4.0256550132
units bohr
0 2
}

basis {

assign 6-31g_2dfp_

[ 6-31g_2dfp_ ]

spherical

!----------------------------------------------------------------------
! Basis Set Exchange
! Version v0.8.13
! https://www.basissetexchange.org
!----------------------------------------------------------------------
!   Basis set: 6-31G(2df,p)
! Description: 6-31G(2df,p)
!        Role: orbital
!     Version: 0  (Data from the original Basis Set Exchange)
!----------------------------------------------------------------------

****
H     0
S    3   1.00
     18.7311370              0.03349460
      2.8253937              0.23472695
      0.6401217              0.81375733
S    1   1.00
      0.1612778              1.00000000
P    1   1.00
      1.5000000              1.0000000
P    1   1.00
      0.3750000              1.0000000
****
B     0
S    6   1.00
   2068.8823000              0.0018663
    310.6495700              0.0142515
     70.6830330              0.0695516
     19.8610800              0.2325729
      6.2993048              0.4670787
      2.1270270              0.3634314
SP   3   1.00
      4.7279710             -0.1303938              0.0745976
      1.1903377             -0.1307889              0.3078467
      0.3594117              1.1309444              0.7434568
SP   1   1.00
      0.1267512              1.0000000              1.0000000
D    1   1.00
      0.8020000              1.0000000
D    1   1.00
      0.2005000              1.0000000
F    1   1.00
      0.5000000              1.0000000
****
C     0
S    6   1.00
   3047.5249000              0.0018347
    457.3695100              0.0140373
    103.9486900              0.0688426
     29.2101550              0.2321844
      9.2866630              0.4679413
      3.1639270              0.3623120
SP   3   1.00
      7.8682724             -0.1193324              0.0689991
      1.8812885             -0.1608542              0.3164240
      0.5442493              1.1434564              0.7443083
SP   1   1.00
      0.1687144              1.0000000              1.0000000
D    1   1.00
      1.2520000              1.0000000
D    1   1.00
      0.3130000              1.0000000
F    1   1.00
      0.8000000              1.0000000
****
N     0
S    6   1.00
   4173.5110000              0.0018348
    627.4579000              0.0139950
    142.9021000              0.0685870
     40.2343300              0.2322410
     12.8202100              0.4690700
      4.3904370              0.3604550
SP   3   1.00
     11.6263580             -0.1149610              0.0675800
      2.7162800             -0.1691180              0.3239070
      0.7722180              1.1458520              0.7408950
SP   1   1.00
      0.2120313              1.0000000              1.0000000
D    1   1.00
      1.8260000              1.0000000
D    1   1.00
      0.4565000              1.0000000
F    1   1.00
      1.0000000              1.0000000
****
O     0
S    6   1.00
   5484.6717000              0.0018311
    825.2349500              0.0139501
    188.0469600              0.0684451
     52.9645000              0.2327143
     16.8975700              0.4701930
      5.7996353              0.3585209
SP   3   1.00
     15.5396160             -0.1107775              0.0708743
      3.5999336             -0.1480263              0.3397528
      1.0137618              1.1307670              0.7271586
SP   1   1.00
      0.2700058              1.0000000              1.0000000
D    1   1.00
      2.5840000              1.0000000
D    1   1.00
      0.6460000              1.0000000
F    1   1.00
      1.4000000              1.0000000
****
F     0
S    6   1.00
   7001.7130900              0.0018196169
   1051.3660900              0.0139160796
    239.2856900              0.0684053245
     67.3974453              0.233185760
     21.5199573              0.471267439
      7.40310130             0.356618546
SP   3   1.00
     20.8479528             -0.108506975            0.0716287243
      4.80830834            -0.146451658            0.3459121030
      1.34406986             1.128688580            0.7224699570
SP   1   1.00
      0.358151393            1.0000000              1.0000000
D    1   1.00
      3.5000000              1.0000000
D    1   1.00
      0.8750000              1.0000000
F    1   1.00
      1.8500000              1.0000000
****
Al     0
S    6   1.00
  13983.1000000              0.00194267
   2098.7500000              0.0148599
    477.7050000              0.0728494
    134.3600000              0.2468300
     42.8709000              0.4872580
     14.5189000              0.3234960
SP   6   1.00
    239.6680000             -0.00292619             0.00460285
     57.4419000             -0.0374080              0.0331990
     18.2859000             -0.1144870              0.1362820
      6.5991400              0.1156350              0.3304760
      2.4904900              0.6125950              0.4491460
      0.9445400              0.3937990              0.2657040
SP   3   1.00
      1.2779000             -0.2276060             -0.0175130
      0.3975900              0.00144583             0.2445330
      0.1600950              1.0927900              0.8049340
SP   1   1.00
      0.0556577              1.0000000              1.0000000
D    1   1.00
      0.6500000              1.0000000
D    1   1.00
      0.1625000              1.0000000
F    1   1.00
      0.2500000              1.0000000
****
Si     0
S    6   1.00
  16115.9000000              0.00195948
   2425.5800000              0.01492880
    553.8670000              0.07284780
    156.3400000              0.24613000
     50.0683000              0.48591400
     17.0178000              0.32500200
SP   6   1.00
    292.7180000             -0.00278094             0.00443826
     69.8731000             -0.03571460             0.03266790
     22.3363000             -0.11498500             0.13472100
      8.1503900              0.09356340             0.32867800
      3.1345800              0.60301700             0.44964000
      1.2254300              0.41895900             0.26137200
SP   3   1.00
      1.7273800             -0.24463000            -0.01779510
      0.5729220              0.00431572             0.25353900
      0.2221920              1.09818000             0.80066900
SP   1   1.00
      0.0778369              1.00000000             1.00000000
D    1   1.00
      0.9000000              1.0000000
D    1   1.00
      0.2250000              1.0000000
F    1   1.00
      0.3200000              1.0000000
****
P     0
S    6   1.00
  19413.3000000              0.0018516
   2909.4200000              0.0142062
    661.3640000              0.0699995
    185.7590000              0.2400790
     59.1943000              0.4847620
     20.0310000              0.3352000
SP   6   1.00
    339.4780000             -0.00278217             0.00456462
     81.0101000             -0.0360499              0.03369360
     25.8780000             -0.1166310              0.13975500
      9.4522100              0.0968328              0.33936200
      3.6656600              0.6144180              0.45092100
      1.4674600              0.4037980              0.23858600
SP   3   1.00
      2.1562300             -0.2529230             -0.01776530
      0.7489970              0.0328517              0.27405800
      0.2831450              1.0812500              0.78542100
SP   1   1.00
      0.0998317              1.0000000              1.00000000
D    1   1.00
      1.1000000              1.0000000
D    1   1.00
      0.2750000              1.0000000
F    1   1.00
      0.4500000              1.0000000
****
S     0
S    6   1.00
  21917.1000000              0.0018690
   3301.4900000              0.0142300
    754.1460000              0.0696960
    212.7110000              0.2384870
     67.9896000              0.4833070
     23.0515000              0.3380740
SP   6   1.00
    423.7350000             -0.0023767              0.0040610
    100.7100000             -0.0316930              0.0306810
     32.1599000             -0.1133170              0.1304520
     11.8079000              0.0560900              0.3272050
      4.6311000              0.5922550              0.4528510
      1.8702500              0.4550060              0.2560420
SP   3   1.00
      2.6158400             -0.2503740             -0.0145110
      0.9221670              0.0669570              0.3102630
      0.3412870              1.0545100              0.7544830
SP   1   1.00
      0.1171670              1.0000000              1.0000000
D    1   1.00
      1.3000000              1.0000000
D    1   1.00
      0.3250000              1.0000000
F    1   1.00
      0.5500000              1.0000000
****
Cl     0
S    6   1.00
  25180.1000000              0.0018330
   3780.3500000              0.0140340
    860.4740000              0.0690970
    242.1450000              0.2374520
     77.3349000              0.4830340
     26.2470000              0.3398560
SP   6   1.00
    491.7650000             -0.0022974              0.0039894
    116.9840000             -0.0307140              0.0303180
     37.4153000             -0.1125280              0.1298800
     13.7834000              0.0450160              0.3279510
      5.4521500              0.5893530              0.4535270
      2.2258800              0.4652060              0.2521540
SP   3   1.00
      3.1864900             -0.2518300             -0.0142990
      1.1442700              0.0615890              0.3235720
      0.4203770              1.0601800              0.7435070
SP   1   1.00
      0.1426570              1.0000000              1.0000000
D    1   1.00
      1.5000000              1.0000000
D    1   1.00
      0.3750000              1.0000000
F    1   1.00
      0.7000000              1.0000000
****
}

set {
reference uhf
freeze_core true
e_convergence 10
d_convergence 10
dft_spherical_points 1202
dft_radial_points 99
}

e = energy('b3lyp')

print_out('Grab this energy {0}'.format(e))
--------------------------------------------------------------------------

    Molecular point group: cs

    Geometry (in Bohr), charge = 0, multiplicity = 2:

       Center              X                  Y                   Z               Mass
    ------------   -----------------  -----------------  -----------------  -----------------
         C           -0.323519527313    -0.000002041889     0.000000000000    12.000000000000
         C            0.060854877187    -1.400625289689    -2.425943635800    12.000000000000
         C            0.060735047187     2.801254827011     0.000000000000    12.000000000000
         C            0.060854877187    -1.400625289689     2.425943635800    12.000000000000
         H            2.094271752687    -1.644126172389    -2.847489005000     1.007825032230
         H           -0.767019482113    -0.387815193289    -4.025655013200     1.007825032230
         H           -0.767182214513    -3.292352233589    -2.348722939500     1.007825032230
         H            2.094132746387     3.288159148311     0.000000000000     1.007825032230
         H           -0.767260133813     3.680200893411     1.676937826000     1.007825032230
         H           -0.767260133813     3.680200893411    -1.676937826000     1.007825032230
         H            2.094271752687    -1.644126172389     2.847489005000     1.007825032230
         H           -0.767182214513    -3.292352233589     2.348722939500     1.007825032230
         H           -0.767019482113    -0.387815193289     4.025655013200     1.007825032230

  Charge       = 0
  Multiplicity = 2
  Basis Set: ANONYMOUS9A93DEED
    Blend: 6-31G_2DFP_
  Basis Set: (ANONYMOUS9A93DEED AUX)
    Blend: DEF2-UNIVERSAL-JKFIT

    Orbital Energies [Eh]
    ---------------------

    Alpha Occupied:

       1Ap   -10.180469     2Ap   -10.167569     1App  -10.167568
       3Ap   -10.167523     4Ap    -0.797769     5Ap    -0.685824
       2App   -0.685823     6Ap    -0.530458     7Ap    -0.440925
       3App   -0.434577     8Ap    -0.434577     9Ap    -0.382203
       4App   -0.382202     5App   -0.363474     6App   -0.338048
      10Ap    -0.338048    11Ap    -0.169061

    Alpha Virtual:

      12Ap     0.075825    13Ap     0.133783     7App    0.133784
      14Ap     0.142287     8App    0.142288    15Ap     0.154414
      16Ap     0.178100     9App    0.178100    17Ap     0.203615
      10App    0.214621    11App    0.275936    18Ap     0.275938
      19Ap     0.399162    12App    0.399166    20Ap     0.403046
      13App    0.424011    21Ap     0.424012    22Ap     0.456383
      23Ap     0.495345    14App    0.495346    15App    0.511775
      24Ap     0.513694    25Ap     0.578304    16App    0.578313
      17App    0.590768    26Ap     0.590769    27Ap     0.601175
      28Ap     0.624299    18App    0.631462    19App    0.636053
      29Ap     0.636057    30Ap     0.662601    20App    0.662602
      31Ap     0.683551    21App    0.683553    32Ap     0.734747
      22App    0.824556    33Ap     0.824559    23App    0.853118
      24App    0.914090    34Ap     0.914095    25App    0.943792
      35Ap     0.943965    26App    0.960533    36Ap     0.960550
      37Ap     1.003164    38Ap     1.127932    27App    1.127945
      39Ap     1.140630    40Ap     1.163275    28App    1.163288
      41Ap     1.223293    42Ap     1.273714    29App    1.273718
      43Ap     1.279641    30App    1.323429    44Ap     1.323431
      45Ap     1.355657    31App    1.365464    46Ap     1.365468
      32App    1.391818    47Ap     1.401994    33App    1.401996
      34App    1.417150    48Ap     1.417157    35App    1.426940
      36App    1.490599    49Ap     1.496791    37App    1.541948
      50Ap     1.541951    51Ap     1.574647    38App    1.574650
      52Ap     1.668929    53Ap     1.737138    39App    1.737150
      54Ap     1.764949    40App    1.830313    55Ap     1.830314
      41App    1.971116    56Ap     2.017131    57Ap     2.017821
      42App    2.017823    58Ap     2.050331    43App    2.050332
      44App    2.737831    59Ap     2.737832    60Ap     2.790324
      45App    2.811369    61Ap     2.889011    46App    2.889017
      62Ap     2.894521    63Ap     2.929320    47App    2.929328
      48App    2.958248    64Ap     2.963307    49App    2.963321
      65Ap     3.032428    50App    3.070300    66Ap     3.070314
      51App    3.084829    67Ap     3.169321    52App    3.169329
      68Ap     3.180248    53App    3.285255    69Ap     3.285255
      70Ap     3.328305    54App    3.328311    71Ap     3.376488
      55App    3.490922    72Ap     3.490942    56App    3.513090
      73Ap     3.527153    57App    3.567786    74Ap     3.567806
      58App    3.575991    75Ap     3.665235    59App    3.665244
      76Ap     3.678425    60App    3.693527    77Ap     3.693544
      78Ap     3.776658    61App    3.776684    79Ap     3.787771
      80Ap     3.911844    62App    3.911850    81Ap     4.032554
      82Ap     4.108858    63App    4.108862    83Ap     4.144179
      64App    4.144188    84Ap     4.168509    85Ap     4.201270
      65App    4.202525    86Ap     4.202528    66App    4.205975
      87Ap     4.313272    67App    4.313291    68App    4.357803
      88Ap     4.421142    69App    4.421145    70App    4.441654
      71App    4.513774    89Ap     4.513775    72App    4.577485
      90Ap     4.577498    91Ap     4.616722    92Ap     4.706909
      93Ap     4.772948    73App    4.772956    74App    4.835918
      94Ap     4.962393    75App    5.000536    95Ap     5.000548
      96Ap     5.220035    76App    5.244520    97Ap     5.244520
      98Ap     5.348968    77App    5.348981    78App    5.478081

    Beta Occupied:

       1Ap   -10.168326     1App  -10.168326     2Ap   -10.168296
       3Ap   -10.166667     4Ap    -0.781074     5Ap    -0.683640
       2App   -0.683640     6Ap    -0.511536     3App   -0.430963
       7Ap    -0.430963     8Ap    -0.421528     9Ap    -0.376255
       4App   -0.376253     5App   -0.362465     6App   -0.333177
      10Ap    -0.333177

    Beta Virtual:

      11Ap    -0.026106    12Ap     0.076855    13Ap     0.134737
       7App    0.134737    14Ap     0.144160     8App    0.144160
      15Ap     0.162956    16Ap     0.181751     9App    0.181752
      10App    0.214845    17Ap     0.218977    11App    0.282280
      18Ap     0.282282    19Ap     0.400338    12App    0.400342
      20Ap     0.419576    13App    0.426820    21Ap     0.426821
      22Ap     0.468209    23Ap     0.497616    14App    0.497616
      15App    0.513523    24Ap     0.555943    25Ap     0.583865
      16App    0.583874    17App    0.596919    26Ap     0.596920
      27Ap     0.608736    28Ap     0.627561    18App    0.631622
      19App    0.639322    29Ap     0.639326    30Ap     0.666191
      20App    0.666192    31Ap     0.686209    21App    0.686211
      32Ap     0.757241    22App    0.829748    33Ap     0.829750
      23App    0.854503    24App    0.922093    34Ap     0.922100
      25App    0.945620    35Ap     0.952921    26App    0.965813
      36Ap     0.965829    37Ap     1.008353    38Ap     1.132010
      27App    1.132022    39Ap     1.154099    40Ap     1.168295
      28App    1.168307    41Ap     1.232267    42Ap     1.279301
      29App    1.279305    43Ap     1.285349    30App    1.328439
      44Ap     1.328441    45Ap     1.365031    31App    1.370783
      46Ap     1.370787    32App    1.392896    47Ap     1.405403
      33App    1.405405    34App    1.422167    48Ap     1.422173
      35App    1.427225    36App    1.491615    49Ap     1.507241
      37App    1.546517    50Ap     1.546518    51Ap     1.582397
      38App    1.582398    52Ap     1.673752    53Ap     1.742888
      39App    1.742900    54Ap     1.775776    40App    1.834199
      55Ap     1.834201    41App    1.971965    56Ap     2.024096
      42App    2.024098    57Ap     2.038519    58Ap     2.057172
      43App    2.057174    44App    2.746163    59Ap     2.746164
      45App    2.811780    60Ap     2.815397    61Ap     2.901629
      46App    2.901634    62Ap     2.923993    63Ap     2.931849
      47App    2.931858    48App    2.959301    64Ap     2.967776
      49App    2.967791    65Ap     3.040660    50App    3.080141
      66Ap     3.080152    51App    3.086639    67Ap     3.185137
      52App    3.185141    68Ap     3.187851    69Ap     3.290141
      53App    3.290141    70Ap     3.332067    54App    3.332072
      71Ap     3.384258    55App    3.493567    72Ap     3.493587
      56App    3.511446    73Ap     3.530167    57App    3.575851
      58App    3.581273    74Ap     3.581294    75Ap     3.669655
      59App    3.669666    76Ap     3.691633    60App    3.725278
      77Ap     3.725294    78Ap     3.781134    61App    3.781160
      79Ap     3.816316    80Ap     3.921731    62App    3.921738
      81Ap     4.043377    82Ap     4.115600    63App    4.115601
      83Ap     4.151421    64App    4.151430    84Ap     4.182731
      65App    4.208581    85Ap     4.208584    86Ap     4.209260
      66App    4.210594    87Ap     4.320731    67App    4.320751
      68App    4.361130    88Ap     4.429385    69App    4.429387
      70App    4.444502    71App    4.521610    89Ap     4.521611
      72App    4.588078    90Ap     4.588090    91Ap     4.623829
      92Ap     4.717375    93Ap     4.779856    73App    4.779864
      74App    4.838818    94Ap     4.967228    75App    5.004622
      95Ap     5.004634    96Ap     5.225739    76App    5.246296
      97Ap     5.246296    98Ap     5.355448    77App    5.355461
      78App    5.480401

    Final Occupation by Irrep:
             Ap   App
    DOCC [    10,    6 ]
    SOCC [     1,    0 ]

  @DF-UKS Final Energy:  -157.81308109298914

   => Energetics <=

    Nuclear Repulsion Energy =            125.3519527409037551
    One-Electron Energy =                -458.6673765191051757
    Two-Electron Energy =                 195.8053593062834921
    DFT Exchange-Correlation Energy =     -20.3030166210712082
    Empirical Dispersion Energy =           0.0000000000000000
    VV10 Nonlocal Energy =                  0.0000000000000000
    Total Energy =                       -157.8130810929891368

  UHF NO Occupations:
  HONO-2 :    9 Ap 1.9995959
  HONO-1 :   10 Ap 1.9989802
  HONO-0 :   11 Ap 1.0000000
  LUNO+0 :   12 Ap 0.0010198
  LUNO+1 :   13 Ap 0.0004041
  LUNO+2 :    7App 0.0001972
  LUNO+3 :   14 Ap 0.0001972

Computation Completed

Properties will be evaluated at   0.000000,   0.000000,   0.000000 [a0]

Properties computed using the SCF density matrix

  Nuclear Dipole Moment: [e a0]
     X:     0.8333      Y:    -0.0000      Z:     0.0000

  Electronic Dipole Moment: [e a0]
     X:    -0.7592      Y:     0.0000      Z:     0.0000

  Dipole Moment: [e a0]
     X:     0.0741      Y:    -0.0000      Z:     0.0000     Total:     0.0741

  Dipole Moment: [D]
     X:     0.1883      Y:    -0.0000      Z:     0.0000     Total:     0.1883

*** tstop() called on n079 at Fri Nov  5 14:47:38 2021
Module time:
	user time   =     494.44 seconds =       8.24 minutes
	system time =       4.57 seconds =       0.08 minutes
	total time  =        126 seconds =       2.10 minutes
Total time:
	user time   =     494.44 seconds =       8.24 minutes
	system time =       4.57 seconds =       0.08 minutes
	total time  =        126 seconds =       2.10 minutes
Grab this energy -157.81308109298914
    Psi4 stopped on: Friday, 05 November 2021 02:47PM
    Psi4 wall time for execution: 0:02:05.49

*** Psi4 exiting successfully. Buy a developer a beer!
