                               Psi4 1.4a2.dev629

  ==> Input File <==

--------------------------------------------------------------------------
import os
memory 14 GB

molecule {
 C   -0.3233265882   -0.0000031955    0.0053452011
 C    0.0614509932   -1.4021489467   -2.4274834944
 C    0.0612025429    2.8033946391    0.0011053137
 C    0.0611949522   -1.4012417230    2.4281227773
 H    2.0867829233   -1.6436748905   -2.8477124980
 H   -0.7651540717   -0.3884337520   -4.0261237458
 H   -0.7661538228   -3.2913794805   -2.3491226630
 H    2.0868478133    3.2876034497   -0.0009999682
 H   -0.7666002418    3.6789111869    1.6758686233
 H   -0.7649297982    3.6806222947   -1.6773391910
 H    2.0871931181   -1.6440209800    2.8463120274
 H   -0.7652225090   -3.2923108236    2.3479171430
 H   -0.7658931879   -0.3873420922    4.0241104746
units bohr
0 2
}

basis {

assign 6-31g_2dfp_

[ 6-31g_2dfp_ ]

spherical

!----------------------------------------------------------------------
! Basis Set Exchange
! Version v0.8.13
! https://www.basissetexchange.org
!----------------------------------------------------------------------
!   Basis set: 6-31G(2df,p)
! Description: 6-31G(2df,p)
!        Role: orbital
!     Version: 0  (Data from the original Basis Set Exchange)
!----------------------------------------------------------------------

****
H     0
S    3   1.00
     18.7311370              0.03349460
      2.8253937              0.23472695
      0.6401217              0.81375733
S    1   1.00
      0.1612778              1.00000000
P    1   1.00
      1.5000000              1.0000000
P    1   1.00
      0.3750000              1.0000000
****
B     0
S    6   1.00
   2068.8823000              0.0018663
    310.6495700              0.0142515
     70.6830330              0.0695516
     19.8610800              0.2325729
      6.2993048              0.4670787
      2.1270270              0.3634314
SP   3   1.00
      4.7279710             -0.1303938              0.0745976
      1.1903377             -0.1307889              0.3078467
      0.3594117              1.1309444              0.7434568
SP   1   1.00
      0.1267512              1.0000000              1.0000000
D    1   1.00
      0.8020000              1.0000000
D    1   1.00
      0.2005000              1.0000000
F    1   1.00
      0.5000000              1.0000000
****
C     0
S    6   1.00
   3047.5249000              0.0018347
    457.3695100              0.0140373
    103.9486900              0.0688426
     29.2101550              0.2321844
      9.2866630              0.4679413
      3.1639270              0.3623120
SP   3   1.00
      7.8682724             -0.1193324              0.0689991
      1.8812885             -0.1608542              0.3164240
      0.5442493              1.1434564              0.7443083
SP   1   1.00
      0.1687144              1.0000000              1.0000000
D    1   1.00
      1.2520000              1.0000000
D    1   1.00
      0.3130000              1.0000000
F    1   1.00
      0.8000000              1.0000000
****
N     0
S    6   1.00
   4173.5110000              0.0018348
    627.4579000              0.0139950
    142.9021000              0.0685870
     40.2343300              0.2322410
     12.8202100              0.4690700
      4.3904370              0.3604550
SP   3   1.00
     11.6263580             -0.1149610              0.0675800
      2.7162800             -0.1691180              0.3239070
      0.7722180              1.1458520              0.7408950
SP   1   1.00
      0.2120313              1.0000000              1.0000000
D    1   1.00
      1.8260000              1.0000000
D    1   1.00
      0.4565000              1.0000000
F    1   1.00
      1.0000000              1.0000000
****
O     0
S    6   1.00
   5484.6717000              0.0018311
    825.2349500              0.0139501
    188.0469600              0.0684451
     52.9645000              0.2327143
     16.8975700              0.4701930
      5.7996353              0.3585209
SP   3   1.00
     15.5396160             -0.1107775              0.0708743
      3.5999336             -0.1480263              0.3397528
      1.0137618              1.1307670              0.7271586
SP   1   1.00
      0.2700058              1.0000000              1.0000000
D    1   1.00
      2.5840000              1.0000000
D    1   1.00
      0.6460000              1.0000000
F    1   1.00
      1.4000000              1.0000000
****
F     0
S    6   1.00
   7001.7130900              0.0018196169
   1051.3660900              0.0139160796
    239.2856900              0.0684053245
     67.3974453              0.233185760
     21.5199573              0.471267439
      7.40310130             0.356618546
SP   3   1.00
     20.8479528             -0.108506975            0.0716287243
      4.80830834            -0.146451658            0.3459121030
      1.34406986             1.128688580            0.7224699570
SP   1   1.00
      0.358151393            1.0000000              1.0000000
D    1   1.00
      3.5000000              1.0000000
D    1   1.00
      0.8750000              1.0000000
F    1   1.00
      1.8500000              1.0000000
****
Al     0
S    6   1.00
  13983.1000000              0.00194267
   2098.7500000              0.0148599
    477.7050000              0.0728494
    134.3600000              0.2468300
     42.8709000              0.4872580
     14.5189000              0.3234960
SP   6   1.00
    239.6680000             -0.00292619             0.00460285
     57.4419000             -0.0374080              0.0331990
     18.2859000             -0.1144870              0.1362820
      6.5991400              0.1156350              0.3304760
      2.4904900              0.6125950              0.4491460
      0.9445400              0.3937990              0.2657040
SP   3   1.00
      1.2779000             -0.2276060             -0.0175130
      0.3975900              0.00144583             0.2445330
      0.1600950              1.0927900              0.8049340
SP   1   1.00
      0.0556577              1.0000000              1.0000000
D    1   1.00
      0.6500000              1.0000000
D    1   1.00
      0.1625000              1.0000000
F    1   1.00
      0.2500000              1.0000000
****
Si     0
S    6   1.00
  16115.9000000              0.00195948
   2425.5800000              0.01492880
    553.8670000              0.07284780
    156.3400000              0.24613000
     50.0683000              0.48591400
     17.0178000              0.32500200
SP   6   1.00
    292.7180000             -0.00278094             0.00443826
     69.8731000             -0.03571460             0.03266790
     22.3363000             -0.11498500             0.13472100
      8.1503900              0.09356340             0.32867800
      3.1345800              0.60301700             0.44964000
      1.2254300              0.41895900             0.26137200
SP   3   1.00
      1.7273800             -0.24463000            -0.01779510
      0.5729220              0.00431572             0.25353900
      0.2221920              1.09818000             0.80066900
SP   1   1.00
      0.0778369              1.00000000             1.00000000
D    1   1.00
      0.9000000              1.0000000
D    1   1.00
      0.2250000              1.0000000
F    1   1.00
      0.3200000              1.0000000
****
P     0
S    6   1.00
  19413.3000000              0.0018516
   2909.4200000              0.0142062
    661.3640000              0.0699995
    185.7590000              0.2400790
     59.1943000              0.4847620
     20.0310000              0.3352000
SP   6   1.00
    339.4780000             -0.00278217             0.00456462
     81.0101000             -0.0360499              0.03369360
     25.8780000             -0.1166310              0.13975500
      9.4522100              0.0968328              0.33936200
      3.6656600              0.6144180              0.45092100
      1.4674600              0.4037980              0.23858600
SP   3   1.00
      2.1562300             -0.2529230             -0.01776530
      0.7489970              0.0328517              0.27405800
      0.2831450              1.0812500              0.78542100
SP   1   1.00
      0.0998317              1.0000000              1.00000000
D    1   1.00
      1.1000000              1.0000000
D    1   1.00
      0.2750000              1.0000000
F    1   1.00
      0.4500000              1.0000000
****
S     0
S    6   1.00
  21917.1000000              0.0018690
   3301.4900000              0.0142300
    754.1460000              0.0696960
    212.7110000              0.2384870
     67.9896000              0.4833070
     23.0515000              0.3380740
SP   6   1.00
    423.7350000             -0.0023767              0.0040610
    100.7100000             -0.0316930              0.0306810
     32.1599000             -0.1133170              0.1304520
     11.8079000              0.0560900              0.3272050
      4.6311000              0.5922550              0.4528510
      1.8702500              0.4550060              0.2560420
SP   3   1.00
      2.6158400             -0.2503740             -0.0145110
      0.9221670              0.0669570              0.3102630
      0.3412870              1.0545100              0.7544830
SP   1   1.00
      0.1171670              1.0000000              1.0000000
D    1   1.00
      1.3000000              1.0000000
D    1   1.00
      0.3250000              1.0000000
F    1   1.00
      0.5500000              1.0000000
****
Cl     0
S    6   1.00
  25180.1000000              0.0018330
   3780.3500000              0.0140340
    860.4740000              0.0690970
    242.1450000              0.2374520
     77.3349000              0.4830340
     26.2470000              0.3398560
SP   6   1.00
    491.7650000             -0.0022974              0.0039894
    116.9840000             -0.0307140              0.0303180
     37.4153000             -0.1125280              0.1298800
     13.7834000              0.0450160              0.3279510
      5.4521500              0.5893530              0.4535270
      2.2258800              0.4652060              0.2521540
SP   3   1.00
      3.1864900             -0.2518300             -0.0142990
      1.1442700              0.0615890              0.3235720
      0.4203770              1.0601800              0.7435070
SP   1   1.00
      0.1426570              1.0000000              1.0000000
D    1   1.00
      1.5000000              1.0000000
D    1   1.00
      0.3750000              1.0000000
F    1   1.00
      0.7000000              1.0000000
****
}

set {
reference uhf
freeze_core true
e_convergence 10
d_convergence 10
dft_spherical_points 1202
dft_radial_points 99
}

e = energy('b3lyp')

print_out('Grab this energy {0}'.format(e))
--------------------------------------------------------------------------

    Molecular point group: c1

    Geometry (in Bohr), charge = 0, multiplicity = 2:

       Center              X                  Y                   Z               Mass
    ------------   -----------------  -----------------  -----------------  -----------------
         C           -0.323434811289    -0.000002915197     0.003979654998    12.000000000000
         C            0.061342770111    -1.402148666397    -2.428849040502    12.000000000000
         C            0.061094319811     2.803394919403    -0.000260232402    12.000000000000
         C            0.061086729111    -1.401241442697     2.426757231198    12.000000000000
         H            2.086674700211    -1.643674610197    -2.849078044102     1.007825032230
         H           -0.765262294789    -0.388433471697    -4.027489291902     1.007825032230
         H           -0.766262045889    -3.291379200197    -2.350488209102     1.007825032230
         H            2.086739590211     3.287603730003    -0.002365514302     1.007825032230
         H           -0.766708464889     3.678911467203     1.674503077198     1.007825032230
         H           -0.765038021289     3.680622575003    -1.678704737102     1.007825032230
         H            2.087084895011    -1.644020699697     2.844946481298     1.007825032230
         H           -0.765330732089    -3.292310543297     2.346551596898     1.007825032230
         H           -0.766001410989    -0.387341811897     4.022744928498     1.007825032230

  Charge       = 0
  Multiplicity = 2
  Basis Set: ANONYMOUS03960FF6
    Blend: 6-31G_2DFP_
  Basis Set: (ANONYMOUS03960FF6 AUX)
    Blend: DEF2-UNIVERSAL-JKFIT

    Orbital Energies [Eh]
    ---------------------

    Alpha Occupied:

       1A    -10.180393     2A    -10.166998     3A    -10.166967
       4A    -10.166921     5A     -0.797512     6A     -0.686366
       7A     -0.685989     8A     -0.530609     9A     -0.441121
      10A     -0.434816    11A     -0.434387    12A     -0.382854
      13A     -0.382622    14A     -0.363810    15A     -0.338358
      16A     -0.337317    17A     -0.168940

    Alpha Virtual:

      18A      0.076080    19A      0.134200    20A      0.134228
      21A      0.142585    22A      0.142935    23A      0.154774
      24A      0.178937    25A      0.178951    26A      0.203252
      27A      0.214927    28A      0.275454    29A      0.276032
      30A      0.399111    31A      0.399359    32A      0.403435
      33A      0.424150    34A      0.424152    35A      0.456412
      36A      0.495351    37A      0.495447    38A      0.512215
      39A      0.514035    40A      0.578657    41A      0.579053
      42A      0.591735    43A      0.591751    44A      0.602617
      45A      0.624871    46A      0.632005    47A      0.636049
      48A      0.636349    49A      0.663231    50A      0.663365
      51A      0.683816    52A      0.683916    53A      0.735125
      54A      0.825279    55A      0.825495    56A      0.853780
      57A      0.914951    58A      0.915177    59A      0.944080
      60A      0.944307    61A      0.961184    62A      0.961532
      63A      1.003622    64A      1.127768    65A      1.128258
      66A      1.141847    67A      1.163488    68A      1.164265
      69A      1.222908    70A      1.273898    71A      1.274829
      72A      1.279187    73A      1.324061    74A      1.324251
      75A      1.355658    76A      1.365645    77A      1.366189
      78A      1.392929    79A      1.404727    80A      1.404816
      81A      1.416809    82A      1.417433    83A      1.428181
      84A      1.490968    85A      1.499660    86A      1.542667
      87A      1.542673    88A      1.574322    89A      1.574368
      90A      1.670611    91A      1.738710    92A      1.739116
      93A      1.768338    94A      1.831574    95A      1.832092
      96A      1.971138    97A      2.017723    98A      2.018520
      99A      2.018869   100A      2.051701   101A      2.052749
     102A      2.738074   103A      2.738551   104A      2.790699
     105A      2.811337   106A      2.889288   107A      2.890403
     108A      2.894530   109A      2.929263   110A      2.930038
     111A      2.959040   112A      2.964256   113A      2.964558
     114A      3.033829   115A      3.070839   116A      3.071843
     117A      3.083947   118A      3.168580   119A      3.168723
     120A      3.180062   121A      3.285347   122A      3.285938
     123A      3.326526   124A      3.327293   125A      3.375693
     126A      3.489532   127A      3.490584   128A      3.513871
     129A      3.524985   130A      3.567915   131A      3.568378
     132A      3.575284   133A      3.666841   134A      3.667469
     135A      3.680235   136A      3.694214   137A      3.694260
     138A      3.776000   139A      3.777472   140A      3.789459
     141A      3.910660   142A      3.911589   143A      4.033884
     144A      4.111330   145A      4.111952   146A      4.147148
     147A      4.149111   148A      4.172583   149A      4.201376
     150A      4.202217   151A      4.202985   152A      4.210520
     153A      4.315504   154A      4.316642   155A      4.359615
     156A      4.425571   157A      4.425697   158A      4.445404
     159A      4.516388   160A      4.516632   161A      4.577194
     162A      4.577615   163A      4.617442   164A      4.708182
     165A      4.773242   166A      4.774356   167A      4.835556
     168A      4.964141   169A      5.003616   170A      5.004111
     171A      5.228568   172A      5.247071   173A      5.247128
     174A      5.354788   175A      5.355899   176A      5.478133

    Beta Occupied:

       1A    -10.167749     2A    -10.167722     3A    -10.167691
       4A    -10.166559     5A     -0.780852     6A     -0.684162
       7A     -0.683809     8A     -0.511534     9A     -0.431207
      10A     -0.430785    11A     -0.421851    12A     -0.376914
      13A     -0.376764    14A     -0.362797    15A     -0.333476
      16A     -0.332416

    Beta Virtual:

      17A     -0.025573    18A      0.077085    19A      0.135093
      20A      0.135098    21A      0.144464    22A      0.144794
      23A      0.163191    24A      0.182581    25A      0.182619
      26A      0.215154    27A      0.218684    28A      0.281856
      29A      0.282364    30A      0.400277    31A      0.400519
      32A      0.419875    33A      0.426949    34A      0.426972
      35A      0.468244    36A      0.497601    37A      0.497703
      38A      0.513942    39A      0.556409    40A      0.584187
      41A      0.584629    42A      0.597928    43A      0.597933
      44A      0.610047    45A      0.628208    46A      0.632157
      47A      0.639305    48A      0.639633    49A      0.666799
      50A      0.666921    51A      0.686439    52A      0.686542
      53A      0.757725    54A      0.830436    55A      0.830644
      56A      0.855121    57A      0.922898    58A      0.923178
      59A      0.945910    60A      0.953222    61A      0.966474
      62A      0.966837    63A      1.008872    64A      1.131837
      65A      1.132278    66A      1.155170    67A      1.168577
      68A      1.169341    69A      1.231938    70A      1.279517
      71A      1.280341    72A      1.284963    73A      1.329040
      74A      1.329207    75A      1.365064    76A      1.370998
      77A      1.371446    78A      1.393978    79A      1.408106
      80A      1.408303    81A      1.421863    82A      1.422474
      83A      1.428465    84A      1.492004    85A      1.510082
      86A      1.547047    87A      1.547064    88A      1.582232
      89A      1.582239    90A      1.675464    91A      1.744469
      92A      1.744883    93A      1.779077    94A      1.835391
      95A      1.835938    96A      1.971990    97A      2.024086
      98A      2.025188    99A      2.039887   100A      2.058472
     101A      2.059491   102A      2.746410   103A      2.746949
     104A      2.811750   105A      2.815869   106A      2.902101
     107A      2.903043   108A      2.924201   109A      2.931662
     110A      2.932544   111A      2.960107   112A      2.968771
     113A      2.969069   114A      3.041722   115A      3.080783
     116A      3.081631   117A      3.085754   118A      3.184319
     119A      3.184532   120A      3.187910   121A      3.290137
     122A      3.290647   123A      3.330334   124A      3.331105
     125A      3.383480   126A      3.492243   127A      3.493311
     128A      3.512242   129A      3.528067   130A      3.575132
     131A      3.581374   132A      3.581747   133A      3.671862
     134A      3.672323   135A      3.693533   136A      3.725605
     137A      3.725891   138A      3.780482   139A      3.781938
     140A      3.818028   141A      3.920519   142A      3.921445
     143A      4.044850   144A      4.118094   145A      4.118630
     146A      4.154434   147A      4.156343   148A      4.186590
     149A      4.207820   150A      4.208608   151A      4.209952
     152A      4.214980   153A      4.322970   154A      4.324239
     155A      4.362956   156A      4.433726   157A      4.433838
     158A      4.448290   159A      4.524067   160A      4.524406
     161A      4.587758   162A      4.588193   163A      4.624635
     164A      4.718527   165A      4.780161   166A      4.781348
     167A      4.838476   168A      4.968911   169A      5.007649
     170A      5.008114   171A      5.234267   172A      5.248851
     173A      5.248897   174A      5.361214   175A      5.362377
     176A      5.480447

    Final Occupation by Irrep:
              A
    DOCC [    16 ]
    SOCC [     1 ]

  @DF-UKS Final Energy:  -157.81304062703066

   => Energetics <=

    Nuclear Repulsion Energy =            125.3667332004978050
    One-Electron Energy =                -458.6940130557712791
    Two-Electron Energy =                 195.8215011346627819
    DFT Exchange-Correlation Energy =     -20.3072619064199884
    Empirical Dispersion Energy =           0.0000000000000000
    VV10 Nonlocal Energy =                  0.0000000000000000
    Total Energy =                       -157.8130406270306594

  UHF NO Occupations:
  HONO-2 :   15  A 1.9996025
  HONO-1 :   16  A 1.9989782
  HONO-0 :   17  A 1.0000000
  LUNO+0 :   18  A 0.0010218
  LUNO+1 :   19  A 0.0003975
  LUNO+2 :   20  A 0.0001994
  LUNO+3 :   21  A 0.0001973

Computation Completed

Properties will be evaluated at   0.000000,   0.000000,   0.000000 [a0]

Properties computed using the SCF density matrix

  Nuclear Dipole Moment: [e a0]
     X:     0.8264      Y:    -0.0000      Z:    -0.0096

  Electronic Dipole Moment: [e a0]
     X:    -0.7484      Y:     0.0000      Z:     0.0108

  Dipole Moment: [e a0]
     X:     0.0780      Y:     0.0000      Z:     0.0012     Total:     0.0781

  Dipole Moment: [D]
     X:     0.1984      Y:     0.0000      Z:     0.0031     Total:     0.1984

*** tstop() called on n061 at Fri Nov  5 13:20:08 2021
Module time:
	user time   =     545.58 seconds =       9.09 minutes
	system time =      12.35 seconds =       0.21 minutes
	total time  =        141 seconds =       2.35 minutes
Total time:
	user time   =     545.58 seconds =       9.09 minutes
	system time =      12.35 seconds =       0.21 minutes
	total time  =        141 seconds =       2.35 minutes
Grab this energy -157.81304062703066
    Psi4 stopped on: Friday, 05 November 2021 01:20PM
    Psi4 wall time for execution: 0:02:20.32

*** Psi4 exiting successfully. Buy a developer a beer!
