                               Psi4 1.4a2.dev629

  ==> Input File <==

--------------------------------------------------------------------------
import os
memory 14 GB

molecule {
 C   -0.3233411144   -0.0004982773   -0.0002248226
 C    0.0603067270   -1.3999970482   -2.4246756425
 C    0.0623957255    2.8016634018   -0.0004827834
 C    0.0605959851   -1.4023804539    2.4278375607
 H    2.0889280994   -1.6444876778   -2.8476186793
 H   -0.7673141667   -0.3900085004   -4.0256116327
 H   -0.7653409436   -3.2904358185   -2.3501090042
 H    2.0826746693    3.2885877699    0.0001832677
 H   -0.7636741857    3.6801912277    1.6797212252
 H   -0.7637988832    3.6802161542   -1.6795350145
 H    2.0890669177   -1.6437334254    2.8466825557
 H   -0.7656269641   -3.2900224201    2.3490428474
 H   -0.7674797431   -0.3891192455    4.0247901224
units bohr
0 2
}

basis {

assign 6-31g_2dfp_

[ 6-31g_2dfp_ ]

spherical

!----------------------------------------------------------------------
! Basis Set Exchange
! Version v0.8.13
! https://www.basissetexchange.org
!----------------------------------------------------------------------
!   Basis set: 6-31G(2df,p)
! Description: 6-31G(2df,p)
!        Role: orbital
!     Version: 0  (Data from the original Basis Set Exchange)
!----------------------------------------------------------------------

****
H     0
S    3   1.00
     18.7311370              0.03349460
      2.8253937              0.23472695
      0.6401217              0.81375733
S    1   1.00
      0.1612778              1.00000000
P    1   1.00
      1.5000000              1.0000000
P    1   1.00
      0.3750000              1.0000000
****
B     0
S    6   1.00
   2068.8823000              0.0018663
    310.6495700              0.0142515
     70.6830330              0.0695516
     19.8610800              0.2325729
      6.2993048              0.4670787
      2.1270270              0.3634314
SP   3   1.00
      4.7279710             -0.1303938              0.0745976
      1.1903377             -0.1307889              0.3078467
      0.3594117              1.1309444              0.7434568
SP   1   1.00
      0.1267512              1.0000000              1.0000000
D    1   1.00
      0.8020000              1.0000000
D    1   1.00
      0.2005000              1.0000000
F    1   1.00
      0.5000000              1.0000000
****
C     0
S    6   1.00
   3047.5249000              0.0018347
    457.3695100              0.0140373
    103.9486900              0.0688426
     29.2101550              0.2321844
      9.2866630              0.4679413
      3.1639270              0.3623120
SP   3   1.00
      7.8682724             -0.1193324              0.0689991
      1.8812885             -0.1608542              0.3164240
      0.5442493              1.1434564              0.7443083
SP   1   1.00
      0.1687144              1.0000000              1.0000000
D    1   1.00
      1.2520000              1.0000000
D    1   1.00
      0.3130000              1.0000000
F    1   1.00
      0.8000000              1.0000000
****
N     0
S    6   1.00
   4173.5110000              0.0018348
    627.4579000              0.0139950
    142.9021000              0.0685870
     40.2343300              0.2322410
     12.8202100              0.4690700
      4.3904370              0.3604550
SP   3   1.00
     11.6263580             -0.1149610              0.0675800
      2.7162800             -0.1691180              0.3239070
      0.7722180              1.1458520              0.7408950
SP   1   1.00
      0.2120313              1.0000000              1.0000000
D    1   1.00
      1.8260000              1.0000000
D    1   1.00
      0.4565000              1.0000000
F    1   1.00
      1.0000000              1.0000000
****
O     0
S    6   1.00
   5484.6717000              0.0018311
    825.2349500              0.0139501
    188.0469600              0.0684451
     52.9645000              0.2327143
     16.8975700              0.4701930
      5.7996353              0.3585209
SP   3   1.00
     15.5396160             -0.1107775              0.0708743
      3.5999336             -0.1480263              0.3397528
      1.0137618              1.1307670              0.7271586
SP   1   1.00
      0.2700058              1.0000000              1.0000000
D    1   1.00
      2.5840000              1.0000000
D    1   1.00
      0.6460000              1.0000000
F    1   1.00
      1.4000000              1.0000000
****
F     0
S    6   1.00
   7001.7130900              0.0018196169
   1051.3660900              0.0139160796
    239.2856900              0.0684053245
     67.3974453              0.233185760
     21.5199573              0.471267439
      7.40310130             0.356618546
SP   3   1.00
     20.8479528             -0.108506975            0.0716287243
      4.80830834            -0.146451658            0.3459121030
      1.34406986             1.128688580            0.7224699570
SP   1   1.00
      0.358151393            1.0000000              1.0000000
D    1   1.00
      3.5000000              1.0000000
D    1   1.00
      0.8750000              1.0000000
F    1   1.00
      1.8500000              1.0000000
****
Al     0
S    6   1.00
  13983.1000000              0.00194267
   2098.7500000              0.0148599
    477.7050000              0.0728494
    134.3600000              0.2468300
     42.8709000              0.4872580
     14.5189000              0.3234960
SP   6   1.00
    239.6680000             -0.00292619             0.00460285
     57.4419000             -0.0374080              0.0331990
     18.2859000             -0.1144870              0.1362820
      6.5991400              0.1156350              0.3304760
      2.4904900              0.6125950              0.4491460
      0.9445400              0.3937990              0.2657040
SP   3   1.00
      1.2779000             -0.2276060             -0.0175130
      0.3975900              0.00144583             0.2445330
      0.1600950              1.0927900              0.8049340
SP   1   1.00
      0.0556577              1.0000000              1.0000000
D    1   1.00
      0.6500000              1.0000000
D    1   1.00
      0.1625000              1.0000000
F    1   1.00
      0.2500000              1.0000000
****
Si     0
S    6   1.00
  16115.9000000              0.00195948
   2425.5800000              0.01492880
    553.8670000              0.07284780
    156.3400000              0.24613000
     50.0683000              0.48591400
     17.0178000              0.32500200
SP   6   1.00
    292.7180000             -0.00278094             0.00443826
     69.8731000             -0.03571460             0.03266790
     22.3363000             -0.11498500             0.13472100
      8.1503900              0.09356340             0.32867800
      3.1345800              0.60301700             0.44964000
      1.2254300              0.41895900             0.26137200
SP   3   1.00
      1.7273800             -0.24463000            -0.01779510
      0.5729220              0.00431572             0.25353900
      0.2221920              1.09818000             0.80066900
SP   1   1.00
      0.0778369              1.00000000             1.00000000
D    1   1.00
      0.9000000              1.0000000
D    1   1.00
      0.2250000              1.0000000
F    1   1.00
      0.3200000              1.0000000
****
P     0
S    6   1.00
  19413.3000000              0.0018516
   2909.4200000              0.0142062
    661.3640000              0.0699995
    185.7590000              0.2400790
     59.1943000              0.4847620
     20.0310000              0.3352000
SP   6   1.00
    339.4780000             -0.00278217             0.00456462
     81.0101000             -0.0360499              0.03369360
     25.8780000             -0.1166310              0.13975500
      9.4522100              0.0968328              0.33936200
      3.6656600              0.6144180              0.45092100
      1.4674600              0.4037980              0.23858600
SP   3   1.00
      2.1562300             -0.2529230             -0.01776530
      0.7489970              0.0328517              0.27405800
      0.2831450              1.0812500              0.78542100
SP   1   1.00
      0.0998317              1.0000000              1.00000000
D    1   1.00
      1.1000000              1.0000000
D    1   1.00
      0.2750000              1.0000000
F    1   1.00
      0.4500000              1.0000000
****
S     0
S    6   1.00
  21917.1000000              0.0018690
   3301.4900000              0.0142300
    754.1460000              0.0696960
    212.7110000              0.2384870
     67.9896000              0.4833070
     23.0515000              0.3380740
SP   6   1.00
    423.7350000             -0.0023767              0.0040610
    100.7100000             -0.0316930              0.0306810
     32.1599000             -0.1133170              0.1304520
     11.8079000              0.0560900              0.3272050
      4.6311000              0.5922550              0.4528510
      1.8702500              0.4550060              0.2560420
SP   3   1.00
      2.6158400             -0.2503740             -0.0145110
      0.9221670              0.0669570              0.3102630
      0.3412870              1.0545100              0.7544830
SP   1   1.00
      0.1171670              1.0000000              1.0000000
D    1   1.00
      1.3000000              1.0000000
D    1   1.00
      0.3250000              1.0000000
F    1   1.00
      0.5500000              1.0000000
****
Cl     0
S    6   1.00
  25180.1000000              0.0018330
   3780.3500000              0.0140340
    860.4740000              0.0690970
    242.1450000              0.2374520
     77.3349000              0.4830340
     26.2470000              0.3398560
SP   6   1.00
    491.7650000             -0.0022974              0.0039894
    116.9840000             -0.0307140              0.0303180
     37.4153000             -0.1125280              0.1298800
     13.7834000              0.0450160              0.3279510
      5.4521500              0.5893530              0.4535270
      2.2258800              0.4652060              0.2521540
SP   3   1.00
      3.1864900             -0.2518300             -0.0142990
      1.1442700              0.0615890              0.3235720
      0.4203770              1.0601800              0.7435070
SP   1   1.00
      0.1426570              1.0000000              1.0000000
D    1   1.00
      1.5000000              1.0000000
D    1   1.00
      0.3750000              1.0000000
F    1   1.00
      0.7000000              1.0000000
****
}

set {
reference uhf
freeze_core true
e_convergence 10
d_convergence 10
dft_spherical_points 1202
dft_radial_points 99
}

e = energy('b3lyp')

print_out('Grab this energy {0}'.format(e))
--------------------------------------------------------------------------

    Molecular point group: c1

    Geometry (in Bohr), charge = 0, multiplicity = 2:

       Center              X                  Y                   Z               Mass
    ------------   -----------------  -----------------  -----------------  -----------------
         C           -0.323340595908    -0.000264335282    -0.000697540805    12.000000000000
         C            0.060307245492    -1.399763106182    -2.425148360705    12.000000000000
         C            0.062396243992     2.801897343818    -0.000955501605    12.000000000000
         C            0.060596503592    -1.402146511882     2.427364842495    12.000000000000
         H            2.088928617892    -1.644253735782    -2.848091397505     1.007825032230
         H           -0.767313648208    -0.389774558382    -4.026084350905     1.007825032230
         H           -0.765340425108    -3.290201876482    -2.350581722405     1.007825032230
         H            2.082675187792     3.288821711918    -0.000289450505     1.007825032230
         H           -0.763673667208     3.680425169718     1.679248506995     1.007825032230
         H           -0.763798364708     3.680450096218    -1.680007732705     1.007825032230
         H            2.089067436192    -1.643499483382     2.846209837495     1.007825032230
         H           -0.765626445608    -3.289788478082     2.348570129195     1.007825032230
         H           -0.767479224608    -0.388885303482     4.024317404195     1.007825032230

  Charge       = 0
  Multiplicity = 2
  Basis Set: ANONYMOUS52D80F9A
    Blend: 6-31G_2DFP_
  Basis Set: (ANONYMOUS52D80F9A AUX)
    Blend: DEF2-UNIVERSAL-JKFIT

    Orbital Energies [Eh]
    ---------------------

    Alpha Occupied:

       1A    -10.180342     2A    -10.167069     3A    -10.167006
       4A    -10.166970     5A     -0.797766     6A     -0.686211
       7A     -0.686164     8A     -0.530778     9A     -0.441126
      10A     -0.434755    11A     -0.434585    12A     -0.382691
      13A     -0.382505    14A     -0.363612    15A     -0.338209
      16A     -0.337788    17A     -0.168961

    Alpha Virtual:

      18A      0.076071    19A      0.133987    20A      0.134320
      21A      0.142538    22A      0.142716    23A      0.154881
      24A      0.178660    25A      0.178898    26A      0.203546
      27A      0.214803    28A      0.275749    29A      0.276224
      30A      0.399191    31A      0.399263    32A      0.403345
      33A      0.424002    34A      0.424193    35A      0.456592
      36A      0.495241    37A      0.495535    38A      0.512161
      39A      0.513982    40A      0.578638    41A      0.578989
      42A      0.591476    43A      0.591786    44A      0.602583
      45A      0.624762    46A      0.631753    47A      0.636058
      48A      0.636458    49A      0.663037    50A      0.663799
      51A      0.683680    52A      0.684029    53A      0.734995
      54A      0.825347    55A      0.825460    56A      0.853921
      57A      0.914808    58A      0.915242    59A      0.944126
      60A      0.944610    61A      0.961156    62A      0.961436
      63A      1.003451    64A      1.128018    65A      1.128194
      66A      1.142219    67A      1.162969    68A      1.163578
      69A      1.223326    70A      1.274124    71A      1.274828
      72A      1.279386    73A      1.324278    74A      1.324436
      75A      1.355959    76A      1.365897    77A      1.366209
      78A      1.392448    79A      1.403552    80A      1.404556
      81A      1.416564    82A      1.417665    83A      1.427923
      84A      1.491487    85A      1.499077    86A      1.542363
      87A      1.543312    88A      1.574193    89A      1.574695
      90A      1.669816    91A      1.739227    92A      1.739574
      93A      1.768352    94A      1.830448    95A      1.832351
      96A      1.971715    97A      2.017947    98A      2.018655
      99A      2.019794   100A      2.051485   101A      2.053833
     102A      2.738058   103A      2.738913   104A      2.790924
     105A      2.811425   106A      2.889872   107A      2.890002
     108A      2.894974   109A      2.929434   110A      2.929558
     111A      2.958997   112A      2.964047   113A      2.964705
     114A      3.034017   115A      3.071144   116A      3.071414
     117A      3.084366   118A      3.168469   119A      3.169071
     120A      3.180621   121A      3.284989   122A      3.285641
     123A      3.326877   124A      3.327439   125A      3.375622
     126A      3.489797   127A      3.490506   128A      3.514015
     129A      3.525327   130A      3.568265   131A      3.568522
     132A      3.575155   133A      3.665368   134A      3.667380
     135A      3.679660   136A      3.693941   137A      3.694326
     138A      3.776616   139A      3.776984   140A      3.789129
     141A      3.911471   142A      3.912988   143A      4.034436
     144A      4.110891   145A      4.111825   146A      4.147448
     147A      4.148741   148A      4.173233   149A      4.201582
     150A      4.203278   151A      4.203902   152A      4.210935
     153A      4.314874   154A      4.317085   155A      4.358984
     156A      4.423411   157A      4.425434   158A      4.443524
     159A      4.515878   160A      4.517819   161A      4.578139
     162A      4.578384   163A      4.617564   164A      4.709453
     165A      4.774040   166A      4.775115   167A      4.836917
     168A      4.962832   169A      5.001952   170A      5.003984
     171A      5.228007   172A      5.244714   173A      5.248896
     174A      5.354296   175A      5.356776   176A      5.479375

    Beta Occupied:

       1A    -10.167829     2A    -10.167757     3A    -10.167738
       4A    -10.166519     5A     -0.781092     6A     -0.684020
       7A     -0.683961     8A     -0.511750     9A     -0.431128
      10A     -0.430959    11A     -0.421819    12A     -0.376802
      13A     -0.376564    14A     -0.362596    15A     -0.333332
      16A     -0.332911

    Beta Virtual:

      17A     -0.025743    18A      0.077080    19A      0.134889
      20A      0.135200    21A      0.144438    22A      0.144557
      23A      0.163338    24A      0.182325    25A      0.182576
      26A      0.215032    27A      0.218928    28A      0.282104
      29A      0.282564    30A      0.400363    31A      0.400432
      32A      0.419791    33A      0.426812    34A      0.427005
      35A      0.468500    36A      0.497494    37A      0.497805
      38A      0.513896    39A      0.556326    40A      0.584202
      41A      0.584525    42A      0.597634    43A      0.597989
      44A      0.610004    45A      0.628137    46A      0.631919
      47A      0.639343    48A      0.639733    49A      0.666631
      50A      0.667334    51A      0.686334    52A      0.686645
      53A      0.757518    54A      0.830509    55A      0.830634
      56A      0.855275    57A      0.922793    58A      0.923200
      59A      0.945963    60A      0.953539    61A      0.966434
      62A      0.966769    63A      1.008691    64A      1.132066
      65A      1.132207    66A      1.155587    67A      1.168016
      68A      1.168683    69A      1.232298    70A      1.279711
      71A      1.280432    72A      1.285142    73A      1.329280
      74A      1.329414    75A      1.365369    76A      1.371168
      77A      1.371426    78A      1.393507    79A      1.406992
      80A      1.408048    81A      1.421598    82A      1.422727
      83A      1.428197    84A      1.492535    85A      1.509520
      86A      1.546783    87A      1.547704    88A      1.582072
      89A      1.582563    90A      1.674662    91A      1.744987
      92A      1.745344    93A      1.779125    94A      1.834303
      95A      1.836207    96A      1.972576    97A      2.024728
      98A      2.026171    99A      2.039660   100A      2.058236
     101A      2.060524   102A      2.746408   103A      2.747234
     104A      2.811836   105A      2.816060   106A      2.902556
     107A      2.902723   108A      2.924648   109A      2.931919
     110A      2.932037   111A      2.960059   112A      2.968575
     113A      2.969271   114A      3.041950   115A      3.081000
     116A      3.081353   117A      3.086209   118A      3.184098
     119A      3.184880   120A      3.188365   121A      3.289777
     122A      3.290450   123A      3.330669   124A      3.331256
     125A      3.383440   126A      3.492521   127A      3.493242
     128A      3.512382   129A      3.528373   130A      3.574988
     131A      3.581559   132A      3.581931   133A      3.670072
     134A      3.672182   135A      3.692955   136A      3.725558
     137A      3.725963   138A      3.781102   139A      3.781554
     140A      3.817671   141A      3.921333   142A      3.922758
     143A      4.045322   144A      4.117676   145A      4.118667
     146A      4.154754   147A      4.155863   148A      4.187281
     149A      4.207891   150A      4.209787   151A      4.210934
     152A      4.215415   153A      4.322294   154A      4.324541
     155A      4.362347   156A      4.431634   157A      4.433613
     158A      4.446434   159A      4.523671   160A      4.525605
     161A      4.588725   162A      4.588999   163A      4.624758
     164A      4.719797   165A      4.781004   166A      4.782058
     167A      4.839835   168A      4.967629   169A      5.006014
     170A      5.008001   171A      5.233721   172A      5.246510
     173A      5.250669   174A      5.360766   175A      5.363267
     176A      5.481696

    Final Occupation by Irrep:
              A
    DOCC [    16 ]
    SOCC [     1 ]

  @DF-UKS Final Energy:  -157.81306085959926

   => Energetics <=

    Nuclear Repulsion Energy =            125.3946308941566912
    One-Electron Energy =                -458.7488989327287072
    Two-Electron Energy =                 195.8483528238646159
    DFT Exchange-Correlation Energy =     -20.3071456448918717
    Empirical Dispersion Energy =           0.0000000000000000
    VV10 Nonlocal Energy =                  0.0000000000000000
    Total Energy =                       -157.8130608595992612

  UHF NO Occupations:
  HONO-2 :   15  A 1.9996008
  HONO-1 :   16  A 1.9989804
  HONO-0 :   17  A 1.0000000
  LUNO+0 :   18  A 0.0010196
  LUNO+1 :   19  A 0.0003992
  LUNO+2 :   20  A 0.0001979
  LUNO+3 :   21  A 0.0001972

Computation Completed

Properties will be evaluated at   0.000000,   0.000000,   0.000000 [a0]

Properties computed using the SCF density matrix

  Nuclear Dipole Moment: [e a0]
     X:     0.8272      Y:     0.0016      Z:    -0.0033

  Electronic Dipole Moment: [e a0]
     X:    -0.7493      Y:    -0.0023      Z:     0.0034

  Dipole Moment: [e a0]
     X:     0.0779      Y:    -0.0006      Z:     0.0001     Total:     0.0779

  Dipole Moment: [D]
     X:     0.1980      Y:    -0.0016      Z:     0.0002     Total:     0.1980

*** tstop() called on n083 at Fri Nov  5 13:09:16 2021
Module time:
	user time   =     469.00 seconds =       7.82 minutes
	system time =       4.47 seconds =       0.07 minutes
	total time  =        119 seconds =       1.98 minutes
Total time:
	user time   =     469.00 seconds =       7.82 minutes
	system time =       4.47 seconds =       0.07 minutes
	total time  =        119 seconds =       1.98 minutes
Grab this energy -157.81306085959926
    Psi4 stopped on: Friday, 05 November 2021 01:09PM
    Psi4 wall time for execution: 0:01:59.09

*** Psi4 exiting successfully. Buy a developer a beer!
