                               Psi4 1.4a2.dev629

  ==> Input File <==

--------------------------------------------------------------------------
import os
memory 14 GB

molecule {
 C   -0.3233437145   -0.0000022388   -0.0026848353
 C    0.0586746112   -1.4001275464   -2.4255672790
 C    0.0610174578    2.8017585269   -0.0004834992
 C    0.0636048895   -1.4016245787    2.4271935200
 H    2.0848849786   -1.6457939031   -2.8472730248
 H   -0.7638315769   -0.3858432002   -4.0256338425
 H   -0.7684815983   -3.2888642961   -2.3462822199
 H    2.0867935087    3.2880998122    0.0031180488
 H   -0.7701372021    3.6774056489    1.6729866870
 H   -0.7611467924    3.6831057444   -1.6799989094
 H    2.0889878180   -1.6423977318    2.8476061005
 H   -0.7626533284   -3.2951313224    2.3516920797
 H   -0.7669769279   -0.3906092285    4.0253271741
units bohr
0 2
}

basis {

assign 6-31g_2dfp_

[ 6-31g_2dfp_ ]

spherical

!----------------------------------------------------------------------
! Basis Set Exchange
! Version v0.8.13
! https://www.basissetexchange.org
!----------------------------------------------------------------------
!   Basis set: 6-31G(2df,p)
! Description: 6-31G(2df,p)
!        Role: orbital
!     Version: 0  (Data from the original Basis Set Exchange)
!----------------------------------------------------------------------

****
H     0
S    3   1.00
     18.7311370              0.03349460
      2.8253937              0.23472695
      0.6401217              0.81375733
S    1   1.00
      0.1612778              1.00000000
P    1   1.00
      1.5000000              1.0000000
P    1   1.00
      0.3750000              1.0000000
****
B     0
S    6   1.00
   2068.8823000              0.0018663
    310.6495700              0.0142515
     70.6830330              0.0695516
     19.8610800              0.2325729
      6.2993048              0.4670787
      2.1270270              0.3634314
SP   3   1.00
      4.7279710             -0.1303938              0.0745976
      1.1903377             -0.1307889              0.3078467
      0.3594117              1.1309444              0.7434568
SP   1   1.00
      0.1267512              1.0000000              1.0000000
D    1   1.00
      0.8020000              1.0000000
D    1   1.00
      0.2005000              1.0000000
F    1   1.00
      0.5000000              1.0000000
****
C     0
S    6   1.00
   3047.5249000              0.0018347
    457.3695100              0.0140373
    103.9486900              0.0688426
     29.2101550              0.2321844
      9.2866630              0.4679413
      3.1639270              0.3623120
SP   3   1.00
      7.8682724             -0.1193324              0.0689991
      1.8812885             -0.1608542              0.3164240
      0.5442493              1.1434564              0.7443083
SP   1   1.00
      0.1687144              1.0000000              1.0000000
D    1   1.00
      1.2520000              1.0000000
D    1   1.00
      0.3130000              1.0000000
F    1   1.00
      0.8000000              1.0000000
****
N     0
S    6   1.00
   4173.5110000              0.0018348
    627.4579000              0.0139950
    142.9021000              0.0685870
     40.2343300              0.2322410
     12.8202100              0.4690700
      4.3904370              0.3604550
SP   3   1.00
     11.6263580             -0.1149610              0.0675800
      2.7162800             -0.1691180              0.3239070
      0.7722180              1.1458520              0.7408950
SP   1   1.00
      0.2120313              1.0000000              1.0000000
D    1   1.00
      1.8260000              1.0000000
D    1   1.00
      0.4565000              1.0000000
F    1   1.00
      1.0000000              1.0000000
****
O     0
S    6   1.00
   5484.6717000              0.0018311
    825.2349500              0.0139501
    188.0469600              0.0684451
     52.9645000              0.2327143
     16.8975700              0.4701930
      5.7996353              0.3585209
SP   3   1.00
     15.5396160             -0.1107775              0.0708743
      3.5999336             -0.1480263              0.3397528
      1.0137618              1.1307670              0.7271586
SP   1   1.00
      0.2700058              1.0000000              1.0000000
D    1   1.00
      2.5840000              1.0000000
D    1   1.00
      0.6460000              1.0000000
F    1   1.00
      1.4000000              1.0000000
****
F     0
S    6   1.00
   7001.7130900              0.0018196169
   1051.3660900              0.0139160796
    239.2856900              0.0684053245
     67.3974453              0.233185760
     21.5199573              0.471267439
      7.40310130             0.356618546
SP   3   1.00
     20.8479528             -0.108506975            0.0716287243
      4.80830834            -0.146451658            0.3459121030
      1.34406986             1.128688580            0.7224699570
SP   1   1.00
      0.358151393            1.0000000              1.0000000
D    1   1.00
      3.5000000              1.0000000
D    1   1.00
      0.8750000              1.0000000
F    1   1.00
      1.8500000              1.0000000
****
Al     0
S    6   1.00
  13983.1000000              0.00194267
   2098.7500000              0.0148599
    477.7050000              0.0728494
    134.3600000              0.2468300
     42.8709000              0.4872580
     14.5189000              0.3234960
SP   6   1.00
    239.6680000             -0.00292619             0.00460285
     57.4419000             -0.0374080              0.0331990
     18.2859000             -0.1144870              0.1362820
      6.5991400              0.1156350              0.3304760
      2.4904900              0.6125950              0.4491460
      0.9445400              0.3937990              0.2657040
SP   3   1.00
      1.2779000             -0.2276060             -0.0175130
      0.3975900              0.00144583             0.2445330
      0.1600950              1.0927900              0.8049340
SP   1   1.00
      0.0556577              1.0000000              1.0000000
D    1   1.00
      0.6500000              1.0000000
D    1   1.00
      0.1625000              1.0000000
F    1   1.00
      0.2500000              1.0000000
****
Si     0
S    6   1.00
  16115.9000000              0.00195948
   2425.5800000              0.01492880
    553.8670000              0.07284780
    156.3400000              0.24613000
     50.0683000              0.48591400
     17.0178000              0.32500200
SP   6   1.00
    292.7180000             -0.00278094             0.00443826
     69.8731000             -0.03571460             0.03266790
     22.3363000             -0.11498500             0.13472100
      8.1503900              0.09356340             0.32867800
      3.1345800              0.60301700             0.44964000
      1.2254300              0.41895900             0.26137200
SP   3   1.00
      1.7273800             -0.24463000            -0.01779510
      0.5729220              0.00431572             0.25353900
      0.2221920              1.09818000             0.80066900
SP   1   1.00
      0.0778369              1.00000000             1.00000000
D    1   1.00
      0.9000000              1.0000000
D    1   1.00
      0.2250000              1.0000000
F    1   1.00
      0.3200000              1.0000000
****
P     0
S    6   1.00
  19413.3000000              0.0018516
   2909.4200000              0.0142062
    661.3640000              0.0699995
    185.7590000              0.2400790
     59.1943000              0.4847620
     20.0310000              0.3352000
SP   6   1.00
    339.4780000             -0.00278217             0.00456462
     81.0101000             -0.0360499              0.03369360
     25.8780000             -0.1166310              0.13975500
      9.4522100              0.0968328              0.33936200
      3.6656600              0.6144180              0.45092100
      1.4674600              0.4037980              0.23858600
SP   3   1.00
      2.1562300             -0.2529230             -0.01776530
      0.7489970              0.0328517              0.27405800
      0.2831450              1.0812500              0.78542100
SP   1   1.00
      0.0998317              1.0000000              1.00000000
D    1   1.00
      1.1000000              1.0000000
D    1   1.00
      0.2750000              1.0000000
F    1   1.00
      0.4500000              1.0000000
****
S     0
S    6   1.00
  21917.1000000              0.0018690
   3301.4900000              0.0142300
    754.1460000              0.0696960
    212.7110000              0.2384870
     67.9896000              0.4833070
     23.0515000              0.3380740
SP   6   1.00
    423.7350000             -0.0023767              0.0040610
    100.7100000             -0.0316930              0.0306810
     32.1599000             -0.1133170              0.1304520
     11.8079000              0.0560900              0.3272050
      4.6311000              0.5922550              0.4528510
      1.8702500              0.4550060              0.2560420
SP   3   1.00
      2.6158400             -0.2503740             -0.0145110
      0.9221670              0.0669570              0.3102630
      0.3412870              1.0545100              0.7544830
SP   1   1.00
      0.1171670              1.0000000              1.0000000
D    1   1.00
      1.3000000              1.0000000
D    1   1.00
      0.3250000              1.0000000
F    1   1.00
      0.5500000              1.0000000
****
Cl     0
S    6   1.00
  25180.1000000              0.0018330
   3780.3500000              0.0140340
    860.4740000              0.0690970
    242.1450000              0.2374520
     77.3349000              0.4830340
     26.2470000              0.3398560
SP   6   1.00
    491.7650000             -0.0022974              0.0039894
    116.9840000             -0.0307140              0.0303180
     37.4153000             -0.1125280              0.1298800
     13.7834000              0.0450160              0.3279510
      5.4521500              0.5893530              0.4535270
      2.2258800              0.4652060              0.2521540
SP   3   1.00
      3.1864900             -0.2518300             -0.0142990
      1.1442700              0.0615890              0.3235720
      0.4203770              1.0601800              0.7435070
SP   1   1.00
      0.1426570              1.0000000              1.0000000
D    1   1.00
      1.5000000              1.0000000
D    1   1.00
      0.3750000              1.0000000
F    1   1.00
      0.7000000              1.0000000
****
}

set {
reference uhf
freeze_core true
e_convergence 10
d_convergence 10
dft_spherical_points 1202
dft_radial_points 99
}

e = energy('b3lyp')

print_out('Grab this energy {0}'.format(e))
--------------------------------------------------------------------------

    Molecular point group: c1

    Geometry (in Bohr), charge = 0, multiplicity = 2:

       Center              X                  Y                   Z               Mass
    ------------   -----------------  -----------------  -----------------  -----------------
         C           -0.323342410327    -0.000002611262    -0.002387816985    12.000000000000
         C            0.058675915373    -1.400127918862    -2.425270260685    12.000000000000
         C            0.061018761973     2.801758154438    -0.000186480885    12.000000000000
         C            0.063606193673    -1.401624951162     2.427490538315    12.000000000000
         H            2.084886282773    -1.645794275562    -2.846976006485     1.007825032230
         H           -0.763830272727    -0.385843572662    -4.025336824185     1.007825032230
         H           -0.768480294127    -3.288864668562    -2.345985201585     1.007825032230
         H            2.086794812873     3.288099439738     0.003415067115     1.007825032230
         H           -0.770135897927     3.677405276438     1.673283705315     1.007825032230
         H           -0.761145488227     3.683105371938    -1.679701891085     1.007825032230
         H            2.088989122173    -1.642398104262     2.847903118815     1.007825032230
         H           -0.762652024227    -3.295131694862     2.351989098015     1.007825032230
         H           -0.766975623727    -0.390609600962     4.025624192415     1.007825032230

  Charge       = 0
  Multiplicity = 2
  Basis Set: ANONYMOUS9F528D9F
    Blend: 6-31G_2DFP_
  Basis Set: (ANONYMOUS9F528D9F AUX)
    Blend: DEF2-UNIVERSAL-JKFIT

    Orbital Energies [Eh]
    ---------------------

    Alpha Occupied:

       1A    -10.180341     2A    -10.167176     3A    -10.167015
       4A    -10.166853     5A     -0.797767     6A     -0.686362
       7A     -0.686011     8A     -0.530776     9A     -0.441127
      10A     -0.434843    11A     -0.434498    12A     -0.382706
      13A     -0.382495    14A     -0.363608    15A     -0.338232
      16A     -0.337765    17A     -0.168960

    Alpha Virtual:

      18A      0.076073    19A      0.134126    20A      0.134186
      21A      0.142552    22A      0.142701    23A      0.154881
      24A      0.178661    25A      0.178895    26A      0.203545
      27A      0.214802    28A      0.275595    29A      0.276376
      30A      0.399064    31A      0.399392    32A      0.403346
      33A      0.424015    34A      0.424179    35A      0.456594
      36A      0.495367    37A      0.495411    38A      0.512161
      39A      0.513978    40A      0.578710    41A      0.578913
      42A      0.591533    43A      0.591747    44A      0.602569
      45A      0.624760    46A      0.631764    47A      0.636238
      48A      0.636274    49A      0.663378    50A      0.663447
      51A      0.683724    52A      0.683981    53A      0.734996
      54A      0.825364    55A      0.825452    56A      0.853916
      57A      0.914914    58A      0.915139    59A      0.944123
      60A      0.944614    61A      0.961256    62A      0.961332
      63A      1.003452    64A      1.127942    65A      1.128236
      66A      1.142220    67A      1.163077    68A      1.163509
      69A      1.223308    70A      1.274452    71A      1.274537
      72A      1.279352    73A      1.324223    74A      1.324487
      75A      1.355990    76A      1.365454    77A      1.366656
      78A      1.392445    79A      1.403855    80A      1.404255
      81A      1.417084    82A      1.417142    83A      1.427911
      84A      1.491494    85A      1.499078    86A      1.542737
      87A      1.542926    88A      1.574374    89A      1.574511
      90A      1.669831    91A      1.739282    92A      1.739560
      93A      1.768313    94A      1.830782    95A      1.832001
      96A      1.971733    97A      2.018295    98A      2.018473
      99A      2.019627   100A      2.052043   101A      2.053237
     102A      2.738469   103A      2.738497   104A      2.790925
     105A      2.811421   106A      2.889227   107A      2.890600
     108A      2.895027   109A      2.929358   110A      2.929639
     111A      2.958994   112A      2.964007   113A      2.964743
     114A      3.034011   115A      3.070871   116A      3.071697
     117A      3.084348   118A      3.168709   119A      3.168849
     120A      3.180598   121A      3.285304   122A      3.285326
     123A      3.326870   124A      3.327447   125A      3.375621
     126A      3.489618   127A      3.490708   128A      3.514005
     129A      3.525306   130A      3.567672   131A      3.569122
     132A      3.575139   133A      3.665874   134A      3.666873
     135A      3.679679   136A      3.693770   137A      3.694482
     138A      3.775400   139A      3.778153   140A      3.789183
     141A      3.911659   142A      3.912802   143A      4.034442
     144A      4.110254   145A      4.112481   146A      4.147514
     147A      4.148734   148A      4.173250   149A      4.202122
     150A      4.203009   151A      4.203666   152A      4.210858
     153A      4.315012   154A      4.316902   155A      4.358967
     156A      4.424084   157A      4.424837   158A      4.443399
     159A      4.516554   160A      4.517142   161A      4.577386
     162A      4.579138   163A      4.617536   164A      4.709439
     165A      4.773492   166A      4.775739   167A      4.836923
     168A      4.962854   169A      5.002778   170A      5.003120
     171A      5.228026   172A      5.246670   173A      5.246955
     174A      5.354294   175A      5.356736   176A      5.479356

    Beta Occupied:

       1A    -10.167931     2A    -10.167775     3A    -10.167618
       4A    -10.166518     5A     -0.781092     6A     -0.684154
       7A     -0.683825     8A     -0.511747     9A     -0.431228
      10A     -0.430859    11A     -0.421821    12A     -0.376812
      13A     -0.376560    14A     -0.362591    15A     -0.333357
      16A     -0.332886

    Beta Virtual:

      17A     -0.025742    18A      0.077081    19A      0.135004
      20A      0.135088    21A      0.144417    22A      0.144578
      23A      0.163339    24A      0.182338    25A      0.182560
      26A      0.215031    27A      0.218928    28A      0.281956
      29A      0.282711    30A      0.400238    31A      0.400558
      32A      0.419791    33A      0.426810    34A      0.427006
      35A      0.468503    36A      0.497631    37A      0.497668
      38A      0.513896    39A      0.556321    40A      0.584244
      41A      0.584480    42A      0.597737    43A      0.597901
      44A      0.609992    45A      0.628136    46A      0.631925
      47A      0.639535    48A      0.639545    49A      0.666937
      50A      0.667016    51A      0.686345    52A      0.686631
      53A      0.757518    54A      0.830562    55A      0.830590
      56A      0.855269    57A      0.922881    58A      0.923115
      59A      0.945959    60A      0.953543    61A      0.966584
      62A      0.966616    63A      1.008692    64A      1.131881
      65A      1.132356    66A      1.155593    67A      1.168261
      68A      1.168472    69A      1.232280    70A      1.280048
      71A      1.280135    72A      1.285107    73A      1.329190
      74A      1.329500    75A      1.365406    76A      1.370735
      77A      1.371860    78A      1.393504    79A      1.407307
      80A      1.407734    81A      1.422142    82A      1.422184
      83A      1.428180    84A      1.492542    85A      1.509521
      86A      1.547105    87A      1.547373    88A      1.582235
      89A      1.582394    90A      1.674679    91A      1.745065
      92A      1.745301    93A      1.779092    94A      1.834631
      95A      1.835863    96A      1.972593    97A      2.024888
      98A      2.026005    99A      2.039679   100A      2.058766
     101A      2.059946   102A      2.746773   103A      2.746864
     104A      2.811834   105A      2.816061   106A      2.902012
     107A      2.903260   108A      2.924649   109A      2.931847
     110A      2.932130   111A      2.960056   112A      2.968571
     113A      2.969267   114A      3.041945   115A      3.080826
     116A      3.081557   117A      3.086170   118A      3.184496
     119A      3.184550   120A      3.188294   121A      3.290090
     122A      3.290137   123A      3.330696   124A      3.331231
     125A      3.383440   126A      3.492328   127A      3.493457
     128A      3.512374   129A      3.528354   130A      3.574996
     131A      3.580978   132A      3.582491   133A      3.670817
     134A      3.671445   135A      3.692956   136A      3.725712
     137A      3.725800   138A      3.779997   139A      3.782642
     140A      3.817695   141A      3.921504   142A      3.922591
     143A      4.045329   144A      4.117125   145A      4.119240
     146A      4.154744   147A      4.155921   148A      4.187311
     149A      4.208586   150A      4.209181   151A      4.210872
     152A      4.215334   153A      4.322396   154A      4.324399
     155A      4.362329   156A      4.432310   157A      4.433042
     158A      4.446282   159A      4.524336   160A      4.524939
     161A      4.587995   162A      4.589726   163A      4.624735
     164A      4.719783   165A      4.780504   166A      4.782634
     167A      4.839841   168A      4.967648   169A      5.006782
     170A      5.007196   171A      5.233740   172A      5.248442
     173A      5.248752   174A      5.360755   175A      5.363237
     176A      5.481677

    Final Occupation by Irrep:
              A
    DOCC [    16 ]
    SOCC [     1 ]

  @DF-UKS Final Energy:  -157.81306694177465

   => Energetics <=

    Nuclear Repulsion Energy =            125.3946358695953052
    One-Electron Energy =                -458.7489298189332203
    Two-Electron Energy =                 195.8483712621493567
    DFT Exchange-Correlation Energy =     -20.3071442545860776
    Empirical Dispersion Energy =           0.0000000000000000
    VV10 Nonlocal Energy =                  0.0000000000000000
    Total Energy =                       -157.8130669417746503

  UHF NO Occupations:
  HONO-2 :   15  A 1.9996009
  HONO-1 :   16  A 1.9989805
  HONO-0 :   17  A 1.0000000
  LUNO+0 :   18  A 0.0010195
  LUNO+1 :   19  A 0.0003991
  LUNO+2 :   20  A 0.0001982
  LUNO+3 :   21  A 0.0001969

Computation Completed

Properties will be evaluated at   0.000000,   0.000000,   0.000000 [a0]

Properties computed using the SCF density matrix

  Nuclear Dipole Moment: [e a0]
     X:     0.8272      Y:    -0.0000      Z:     0.0021

  Electronic Dipole Moment: [e a0]
     X:    -0.7493      Y:     0.0000      Z:    -0.0022

  Dipole Moment: [e a0]
     X:     0.0779      Y:     0.0000      Z:    -0.0001     Total:     0.0779

  Dipole Moment: [D]
     X:     0.1980      Y:     0.0000      Z:    -0.0002     Total:     0.1980

*** tstop() called on n058 at Fri Nov  5 12:25:22 2021
Module time:
	user time   =     544.93 seconds =       9.08 minutes
	system time =      12.02 seconds =       0.20 minutes
	total time  =        140 seconds =       2.33 minutes
Total time:
	user time   =     544.93 seconds =       9.08 minutes
	system time =      12.02 seconds =       0.20 minutes
	total time  =        140 seconds =       2.33 minutes
Grab this energy -157.81306694177465
    Psi4 stopped on: Friday, 05 November 2021 12:25PM
    Psi4 wall time for execution: 0:02:20.04

*** Psi4 exiting successfully. Buy a developer a beer!
