                               Psi4 1.4a2.dev629

  ==> Input File <==

--------------------------------------------------------------------------
import os
memory 14 GB

molecule {
 C   -0.3233283802   -0.0000019734    0.0000017726
 C    0.0613236554   -1.4016574245   -2.4278258926
 C    0.0612031916    2.8033987322    0.0000484018
 C    0.0613226659   -1.4017380976    2.4277774903
 H    2.0869851573   -1.6398169630   -2.8493390048
 H   -0.7695334593   -0.3897367434   -4.0243130010
 H   -0.7616721496   -3.2934598314   -2.3473288007
 H    2.0868443896    3.2876072644    0.0046527791
 H   -0.7697704123    3.6800012858    1.6746069826
 H   -0.7617552850    3.6795429266   -1.6785904012
 H    2.0869814932   -1.6478824961    2.8446834703
 H   -0.7696982194   -3.2902280806    2.3497127501
 H   -0.7615105239   -0.3860529127    4.0259134533
units bohr
0 2
}

basis {

assign 6-31g_2dfp_

[ 6-31g_2dfp_ ]

spherical

!----------------------------------------------------------------------
! Basis Set Exchange
! Version v0.8.13
! https://www.basissetexchange.org
!----------------------------------------------------------------------
!   Basis set: 6-31G(2df,p)
! Description: 6-31G(2df,p)
!        Role: orbital
!     Version: 0  (Data from the original Basis Set Exchange)
!----------------------------------------------------------------------

****
H     0
S    3   1.00
     18.7311370              0.03349460
      2.8253937              0.23472695
      0.6401217              0.81375733
S    1   1.00
      0.1612778              1.00000000
P    1   1.00
      1.5000000              1.0000000
P    1   1.00
      0.3750000              1.0000000
****
B     0
S    6   1.00
   2068.8823000              0.0018663
    310.6495700              0.0142515
     70.6830330              0.0695516
     19.8610800              0.2325729
      6.2993048              0.4670787
      2.1270270              0.3634314
SP   3   1.00
      4.7279710             -0.1303938              0.0745976
      1.1903377             -0.1307889              0.3078467
      0.3594117              1.1309444              0.7434568
SP   1   1.00
      0.1267512              1.0000000              1.0000000
D    1   1.00
      0.8020000              1.0000000
D    1   1.00
      0.2005000              1.0000000
F    1   1.00
      0.5000000              1.0000000
****
C     0
S    6   1.00
   3047.5249000              0.0018347
    457.3695100              0.0140373
    103.9486900              0.0688426
     29.2101550              0.2321844
      9.2866630              0.4679413
      3.1639270              0.3623120
SP   3   1.00
      7.8682724             -0.1193324              0.0689991
      1.8812885             -0.1608542              0.3164240
      0.5442493              1.1434564              0.7443083
SP   1   1.00
      0.1687144              1.0000000              1.0000000
D    1   1.00
      1.2520000              1.0000000
D    1   1.00
      0.3130000              1.0000000
F    1   1.00
      0.8000000              1.0000000
****
N     0
S    6   1.00
   4173.5110000              0.0018348
    627.4579000              0.0139950
    142.9021000              0.0685870
     40.2343300              0.2322410
     12.8202100              0.4690700
      4.3904370              0.3604550
SP   3   1.00
     11.6263580             -0.1149610              0.0675800
      2.7162800             -0.1691180              0.3239070
      0.7722180              1.1458520              0.7408950
SP   1   1.00
      0.2120313              1.0000000              1.0000000
D    1   1.00
      1.8260000              1.0000000
D    1   1.00
      0.4565000              1.0000000
F    1   1.00
      1.0000000              1.0000000
****
O     0
S    6   1.00
   5484.6717000              0.0018311
    825.2349500              0.0139501
    188.0469600              0.0684451
     52.9645000              0.2327143
     16.8975700              0.4701930
      5.7996353              0.3585209
SP   3   1.00
     15.5396160             -0.1107775              0.0708743
      3.5999336             -0.1480263              0.3397528
      1.0137618              1.1307670              0.7271586
SP   1   1.00
      0.2700058              1.0000000              1.0000000
D    1   1.00
      2.5840000              1.0000000
D    1   1.00
      0.6460000              1.0000000
F    1   1.00
      1.4000000              1.0000000
****
F     0
S    6   1.00
   7001.7130900              0.0018196169
   1051.3660900              0.0139160796
    239.2856900              0.0684053245
     67.3974453              0.233185760
     21.5199573              0.471267439
      7.40310130             0.356618546
SP   3   1.00
     20.8479528             -0.108506975            0.0716287243
      4.80830834            -0.146451658            0.3459121030
      1.34406986             1.128688580            0.7224699570
SP   1   1.00
      0.358151393            1.0000000              1.0000000
D    1   1.00
      3.5000000              1.0000000
D    1   1.00
      0.8750000              1.0000000
F    1   1.00
      1.8500000              1.0000000
****
Al     0
S    6   1.00
  13983.1000000              0.00194267
   2098.7500000              0.0148599
    477.7050000              0.0728494
    134.3600000              0.2468300
     42.8709000              0.4872580
     14.5189000              0.3234960
SP   6   1.00
    239.6680000             -0.00292619             0.00460285
     57.4419000             -0.0374080              0.0331990
     18.2859000             -0.1144870              0.1362820
      6.5991400              0.1156350              0.3304760
      2.4904900              0.6125950              0.4491460
      0.9445400              0.3937990              0.2657040
SP   3   1.00
      1.2779000             -0.2276060             -0.0175130
      0.3975900              0.00144583             0.2445330
      0.1600950              1.0927900              0.8049340
SP   1   1.00
      0.0556577              1.0000000              1.0000000
D    1   1.00
      0.6500000              1.0000000
D    1   1.00
      0.1625000              1.0000000
F    1   1.00
      0.2500000              1.0000000
****
Si     0
S    6   1.00
  16115.9000000              0.00195948
   2425.5800000              0.01492880
    553.8670000              0.07284780
    156.3400000              0.24613000
     50.0683000              0.48591400
     17.0178000              0.32500200
SP   6   1.00
    292.7180000             -0.00278094             0.00443826
     69.8731000             -0.03571460             0.03266790
     22.3363000             -0.11498500             0.13472100
      8.1503900              0.09356340             0.32867800
      3.1345800              0.60301700             0.44964000
      1.2254300              0.41895900             0.26137200
SP   3   1.00
      1.7273800             -0.24463000            -0.01779510
      0.5729220              0.00431572             0.25353900
      0.2221920              1.09818000             0.80066900
SP   1   1.00
      0.0778369              1.00000000             1.00000000
D    1   1.00
      0.9000000              1.0000000
D    1   1.00
      0.2250000              1.0000000
F    1   1.00
      0.3200000              1.0000000
****
P     0
S    6   1.00
  19413.3000000              0.0018516
   2909.4200000              0.0142062
    661.3640000              0.0699995
    185.7590000              0.2400790
     59.1943000              0.4847620
     20.0310000              0.3352000
SP   6   1.00
    339.4780000             -0.00278217             0.00456462
     81.0101000             -0.0360499              0.03369360
     25.8780000             -0.1166310              0.13975500
      9.4522100              0.0968328              0.33936200
      3.6656600              0.6144180              0.45092100
      1.4674600              0.4037980              0.23858600
SP   3   1.00
      2.1562300             -0.2529230             -0.01776530
      0.7489970              0.0328517              0.27405800
      0.2831450              1.0812500              0.78542100
SP   1   1.00
      0.0998317              1.0000000              1.00000000
D    1   1.00
      1.1000000              1.0000000
D    1   1.00
      0.2750000              1.0000000
F    1   1.00
      0.4500000              1.0000000
****
S     0
S    6   1.00
  21917.1000000              0.0018690
   3301.4900000              0.0142300
    754.1460000              0.0696960
    212.7110000              0.2384870
     67.9896000              0.4833070
     23.0515000              0.3380740
SP   6   1.00
    423.7350000             -0.0023767              0.0040610
    100.7100000             -0.0316930              0.0306810
     32.1599000             -0.1133170              0.1304520
     11.8079000              0.0560900              0.3272050
      4.6311000              0.5922550              0.4528510
      1.8702500              0.4550060              0.2560420
SP   3   1.00
      2.6158400             -0.2503740             -0.0145110
      0.9221670              0.0669570              0.3102630
      0.3412870              1.0545100              0.7544830
SP   1   1.00
      0.1171670              1.0000000              1.0000000
D    1   1.00
      1.3000000              1.0000000
D    1   1.00
      0.3250000              1.0000000
F    1   1.00
      0.5500000              1.0000000
****
Cl     0
S    6   1.00
  25180.1000000              0.0018330
   3780.3500000              0.0140340
    860.4740000              0.0690970
    242.1450000              0.2374520
     77.3349000              0.4830340
     26.2470000              0.3398560
SP   6   1.00
    491.7650000             -0.0022974              0.0039894
    116.9840000             -0.0307140              0.0303180
     37.4153000             -0.1125280              0.1298800
     13.7834000              0.0450160              0.3279510
      5.4521500              0.5893530              0.4535270
      2.2258800              0.4652060              0.2521540
SP   3   1.00
      3.1864900             -0.2518300             -0.0142990
      1.1442700              0.0615890              0.3235720
      0.4203770              1.0601800              0.7435070
SP   1   1.00
      0.1426570              1.0000000              1.0000000
D    1   1.00
      1.5000000              1.0000000
D    1   1.00
      0.3750000              1.0000000
F    1   1.00
      0.7000000              1.0000000
****
}

set {
reference uhf
freeze_core true
e_convergence 10
d_convergence 10
dft_spherical_points 1202
dft_radial_points 99
}

e = energy('b3lyp')

print_out('Grab this energy {0}'.format(e))
--------------------------------------------------------------------------

    Molecular point group: c1

    Geometry (in Bohr), charge = 0, multiplicity = 2:

       Center              X                  Y                   Z               Mass
    ------------   -----------------  -----------------  -----------------  -----------------
         C           -0.323436455481    -0.000001782234     0.000001431284    12.000000000000
         C            0.061215580119    -1.401657233334    -2.427826233916    12.000000000000
         C            0.061095116319     2.803398923366     0.000048060484    12.000000000000
         C            0.061214590619    -1.401737906434     2.427777148984    12.000000000000
         H            2.086877082019    -1.639816771834    -2.849339346116     1.007825032230
         H           -0.769641534581    -0.389736552234    -4.024313342316     1.007825032230
         H           -0.761780224881    -3.293459640234    -2.347329142016     1.007825032230
         H            2.086736314319     3.287607455566     0.004652437784     1.007825032230
         H           -0.769878487581     3.680001476966     1.674606641284     1.007825032230
         H           -0.761863360281     3.679543117766    -1.678590742516     1.007825032230
         H            2.086873417919    -1.647882304934     2.844683128984     1.007825032230
         H           -0.769806294681    -3.290227889434     2.349712408784     1.007825032230
         H           -0.761618599181    -0.386052721534     4.025913111984     1.007825032230

  Charge       = 0
  Multiplicity = 2
  Basis Set: ANONYMOUS094CFAF9
    Blend: 6-31G_2DFP_
  Basis Set: (ANONYMOUS094CFAF9 AUX)
    Blend: DEF2-UNIVERSAL-JKFIT

    Orbital Energies [Eh]
    ---------------------

    Alpha Occupied:

       1A    -10.180393     2A    -10.166978     3A    -10.166977
       4A    -10.166932     5A     -0.797509     6A     -0.686178
       7A     -0.686177     8A     -0.530609     9A     -0.441113
      10A     -0.434604    11A     -0.434603    12A     -0.382737
      13A     -0.382736    14A     -0.363812    15A     -0.337839
      16A     -0.337839    17A     -0.168940

    Alpha Virtual:

      18A      0.076081    19A      0.134214    20A      0.134215
      21A      0.142762    22A      0.142762    23A      0.154774
      24A      0.178943    25A      0.178943    26A      0.203255
      27A      0.214926    28A      0.275743    29A      0.275745
      30A      0.399233    31A      0.399237    32A      0.403435
      33A      0.424151    34A      0.424151    35A      0.456412
      36A      0.495399    37A      0.495400    38A      0.512202
      39A      0.514051    40A      0.578854    41A      0.578862
      42A      0.591734    43A      0.591736    44A      0.602612
      45A      0.624882    46A      0.632009    47A      0.636188
      48A      0.636192    49A      0.663297    50A      0.663297
      51A      0.683865    52A      0.683866    53A      0.735126
      54A      0.825386    55A      0.825389    56A      0.853778
      57A      0.915063    58A      0.915069    59A      0.943908
      60A      0.944463    61A      0.961355    62A      0.961371
      63A      1.003633    64A      1.128029    65A      1.128042
      66A      1.141807    67A      1.163871    68A      1.163883
      69A      1.222904    70A      1.274357    71A      1.274360
      72A      1.279188    73A      1.324157    74A      1.324159
      75A      1.355642    76A      1.365910    77A      1.365914
      78A      1.392958    79A      1.404777    80A      1.404779
      81A      1.417117    82A      1.417123    83A      1.428163
      84A      1.490947    85A      1.499681    86A      1.542664
      87A      1.542666    88A      1.574341    89A      1.574343
      90A      1.670613    91A      1.738903    92A      1.738914
      93A      1.768342    94A      1.831836    95A      1.831837
      96A      1.971131    97A      2.018290    98A      2.018293
      99A      2.018521   100A      2.052214   101A      2.052216
     102A      2.738312   103A      2.738313   104A      2.790691
     105A      2.811340   106A      2.889846   107A      2.889852
     108A      2.894536   109A      2.929646   110A      2.929654
     111A      2.959043   112A      2.964396   113A      2.964410
     114A      3.033835   115A      3.071327   116A      3.071341
     117A      3.083947   118A      3.168675   119A      3.168683
     120A      3.179989   121A      3.285645   122A      3.285645
     123A      3.326911   124A      3.326917   125A      3.375708
     126A      3.490065   127A      3.490085   128A      3.513845
     129A      3.524984   130A      3.568139   131A      3.568160
     132A      3.575287   133A      3.667155   134A      3.667164
     135A      3.680229   136A      3.694237   137A      3.694252
     138A      3.776733   139A      3.776759   140A      3.789409
     141A      3.911118   142A      3.911123   143A      4.033907
     144A      4.111647   145A      4.111651   146A      4.148134
     147A      4.148142   148A      4.172567   149A      4.201776
     150A      4.202402   151A      4.202406   152A      4.210491
     153A      4.316059   154A      4.316078   155A      4.359608
     156A      4.425643   157A      4.425645   158A      4.445390
     159A      4.516506   160A      4.516508   161A      4.577547
     162A      4.577559   163A      4.617144   164A      4.708160
     165A      4.773776   166A      4.773784   167A      4.835565
     168A      4.964180   169A      5.003830   170A      5.003842
     171A      5.228569   172A      5.247090   173A      5.247091
     174A      5.355334   175A      5.355347   176A      5.478132

    Beta Occupied:

       1A    -10.167729     2A    -10.167728     3A    -10.167704
       4A    -10.166560     5A     -0.780849     6A     -0.683986
       7A     -0.683985     8A     -0.511534     9A     -0.430993
      10A     -0.430993    11A     -0.421854    12A     -0.376838
      13A     -0.376837    14A     -0.362801    15A     -0.332947
      16A     -0.332947

    Beta Virtual:

      17A     -0.025573    18A      0.077086    19A      0.135096
      20A      0.135097    21A      0.144630    22A      0.144630
      23A      0.163191    24A      0.182599    25A      0.182599
      26A      0.215152    27A      0.218688    28A      0.282110
      29A      0.282112    30A      0.400396    31A      0.400400
      32A      0.419875    33A      0.426960    34A      0.426961
      35A      0.468244    36A      0.497652    37A      0.497653
      38A      0.513941    39A      0.556415    40A      0.584405
      41A      0.584413    42A      0.597923    43A      0.597924
      44A      0.610042    45A      0.628220    46A      0.632160
      47A      0.639457    48A      0.639462    49A      0.666859
      50A      0.666859    51A      0.686489    52A      0.686490
      53A      0.757726    54A      0.830540    55A      0.830542
      56A      0.855119    57A      0.923037    58A      0.923044
      59A      0.945890    60A      0.953227    61A      0.966651
      62A      0.966667    63A      1.008883    64A      1.132063
      65A      1.132075    66A      1.155149    67A      1.168954
      68A      1.168967    69A      1.231935    70A      1.279922
      71A      1.279925    72A      1.284966    73A      1.329124
      74A      1.329126    75A      1.365043    76A      1.371214
      77A      1.371218    78A      1.394011    79A      1.408211
      80A      1.408213    81A      1.422166    82A      1.422173
      83A      1.428443    84A      1.491994    85A      1.510091
      86A      1.547050    87A      1.547051    88A      1.582232
      89A      1.582233    90A      1.675467    91A      1.744666
      92A      1.744678    93A      1.779082    94A      1.835667
      95A      1.835667    96A      1.971984    97A      2.024635
      98A      2.024637    99A      2.039888   100A      2.058967
     101A      2.058968   102A      2.746679   103A      2.746680
     104A      2.811706   105A      2.815908   106A      2.902574
     107A      2.902580   108A      2.924209   109A      2.932096
     110A      2.932105   111A      2.960108   112A      2.968910
     113A      2.968924   114A      3.041728   115A      3.081195
     116A      3.081206   117A      3.085755   118A      3.184524
     119A      3.184528   120A      3.187690   121A      3.290394
     122A      3.290394   123A      3.330722   124A      3.330727
     125A      3.383494   126A      3.492787   127A      3.492807
     128A      3.512216   129A      3.528061   130A      3.575145
     131A      3.581546   132A      3.581568   133A      3.672093
     134A      3.672105   135A      3.693526   136A      3.725748
     137A      3.725763   138A      3.781196   139A      3.781222
     140A      3.818009   141A      3.920972   142A      3.920978
     143A      4.044873   144A      4.118367   145A      4.118369
     146A      4.155392   147A      4.155401   148A      4.186576
     149A      4.208343   150A      4.208346   151A      4.209703
     152A      4.214946   153A      4.323591   154A      4.323611
     155A      4.362948   156A      4.433795   157A      4.433797
     158A      4.448267   159A      4.524233   160A      4.524235
     161A      4.588130   162A      4.588143   163A      4.624315
     164A      4.718503   165A      4.780731   166A      4.780739
     167A      4.838485   168A      4.968953   169A      5.007847
     170A      5.007859   171A      5.234268   172A      5.248864
     173A      5.248865   174A      5.361786   175A      5.361799
     176A      5.480446

    Final Occupation by Irrep:
              A
    DOCC [    16 ]
    SOCC [     1 ]

  @DF-UKS Final Energy:  -157.81304946904010

   => Energetics <=

    Nuclear Repulsion Energy =            125.3666293508553338
    One-Electron Energy =                -458.6938329696014307
    Two-Electron Energy =                 195.8214120925737518
    DFT Exchange-Correlation Energy =     -20.3072579428677109
    Empirical Dispersion Energy =           0.0000000000000000
    VV10 Nonlocal Energy =                  0.0000000000000000
    Total Energy =                       -157.8130494690400951

  UHF NO Occupations:
  HONO-2 :   15  A 1.9996025
  HONO-1 :   16  A 1.9989782
  HONO-0 :   17  A 1.0000000
  LUNO+0 :   18  A 0.0010218
  LUNO+1 :   19  A 0.0003975
  LUNO+2 :   20  A 0.0001983
  LUNO+3 :   21  A 0.0001983

Computation Completed

Properties will be evaluated at   0.000000,   0.000000,   0.000000 [a0]

Properties computed using the SCF density matrix

  Nuclear Dipole Moment: [e a0]
     X:     0.8264      Y:    -0.0000      Z:    -0.0000

  Electronic Dipole Moment: [e a0]
     X:    -0.7484      Y:     0.0000      Z:     0.0000

  Dipole Moment: [e a0]
     X:     0.0780      Y:     0.0000      Z:    -0.0000     Total:     0.0780

  Dipole Moment: [D]
     X:     0.1984      Y:     0.0000      Z:    -0.0000     Total:     0.1984

*** tstop() called on n022 at Fri Nov  5 13:28:01 2021
Module time:
	user time   =     636.51 seconds =      10.61 minutes
	system time =      12.13 seconds =       0.20 minutes
	total time  =        163 seconds =       2.72 minutes
Total time:
	user time   =     636.51 seconds =      10.61 minutes
	system time =      12.13 seconds =       0.20 minutes
	total time  =        163 seconds =       2.72 minutes
Grab this energy -157.8130494690401
    Psi4 stopped on: Friday, 05 November 2021 01:28PM
    Psi4 wall time for execution: 0:02:43.45

*** Psi4 exiting successfully. Buy a developer a beer!
