                               Psi4 1.4a2.dev629

  ==> Input File <==

--------------------------------------------------------------------------
import os
memory 14 GB

molecule {
 C   -0.3233399321   -0.0004356927    0.0000002449
 C    0.0612962523   -1.4005071874   -2.4265330814
 C    0.0607103090    2.8018649815    0.0016012941
 C    0.0612951223   -1.4032788692    2.4249327068
 H    2.0864797321   -1.6472571542   -2.8456187612
 H   -0.7682044173   -0.3866800804   -4.0272632257
 H   -0.7624209555   -3.2904037929   -2.3488424949
 H    2.0877091627    3.2880903638   -0.0006210001
 H   -0.7661912829    3.6804643871    1.6752834302
 H   -0.7657984920    3.6803349183   -1.6758862981
 H    2.0864817345   -1.6461835553    2.8462415302
 H   -0.7628148617   -3.2899459676    2.3492550026
 H   -0.7678102480   -0.3860866645    4.0274506526
units bohr
0 2
}

basis {

assign 6-31g_2dfp_

[ 6-31g_2dfp_ ]

spherical

!----------------------------------------------------------------------
! Basis Set Exchange
! Version v0.8.13
! https://www.basissetexchange.org
!----------------------------------------------------------------------
!   Basis set: 6-31G(2df,p)
! Description: 6-31G(2df,p)
!        Role: orbital
!     Version: 0  (Data from the original Basis Set Exchange)
!----------------------------------------------------------------------

****
H     0
S    3   1.00
     18.7311370              0.03349460
      2.8253937              0.23472695
      0.6401217              0.81375733
S    1   1.00
      0.1612778              1.00000000
P    1   1.00
      1.5000000              1.0000000
P    1   1.00
      0.3750000              1.0000000
****
B     0
S    6   1.00
   2068.8823000              0.0018663
    310.6495700              0.0142515
     70.6830330              0.0695516
     19.8610800              0.2325729
      6.2993048              0.4670787
      2.1270270              0.3634314
SP   3   1.00
      4.7279710             -0.1303938              0.0745976
      1.1903377             -0.1307889              0.3078467
      0.3594117              1.1309444              0.7434568
SP   1   1.00
      0.1267512              1.0000000              1.0000000
D    1   1.00
      0.8020000              1.0000000
D    1   1.00
      0.2005000              1.0000000
F    1   1.00
      0.5000000              1.0000000
****
C     0
S    6   1.00
   3047.5249000              0.0018347
    457.3695100              0.0140373
    103.9486900              0.0688426
     29.2101550              0.2321844
      9.2866630              0.4679413
      3.1639270              0.3623120
SP   3   1.00
      7.8682724             -0.1193324              0.0689991
      1.8812885             -0.1608542              0.3164240
      0.5442493              1.1434564              0.7443083
SP   1   1.00
      0.1687144              1.0000000              1.0000000
D    1   1.00
      1.2520000              1.0000000
D    1   1.00
      0.3130000              1.0000000
F    1   1.00
      0.8000000              1.0000000
****
N     0
S    6   1.00
   4173.5110000              0.0018348
    627.4579000              0.0139950
    142.9021000              0.0685870
     40.2343300              0.2322410
     12.8202100              0.4690700
      4.3904370              0.3604550
SP   3   1.00
     11.6263580             -0.1149610              0.0675800
      2.7162800             -0.1691180              0.3239070
      0.7722180              1.1458520              0.7408950
SP   1   1.00
      0.2120313              1.0000000              1.0000000
D    1   1.00
      1.8260000              1.0000000
D    1   1.00
      0.4565000              1.0000000
F    1   1.00
      1.0000000              1.0000000
****
O     0
S    6   1.00
   5484.6717000              0.0018311
    825.2349500              0.0139501
    188.0469600              0.0684451
     52.9645000              0.2327143
     16.8975700              0.4701930
      5.7996353              0.3585209
SP   3   1.00
     15.5396160             -0.1107775              0.0708743
      3.5999336             -0.1480263              0.3397528
      1.0137618              1.1307670              0.7271586
SP   1   1.00
      0.2700058              1.0000000              1.0000000
D    1   1.00
      2.5840000              1.0000000
D    1   1.00
      0.6460000              1.0000000
F    1   1.00
      1.4000000              1.0000000
****
F     0
S    6   1.00
   7001.7130900              0.0018196169
   1051.3660900              0.0139160796
    239.2856900              0.0684053245
     67.3974453              0.233185760
     21.5199573              0.471267439
      7.40310130             0.356618546
SP   3   1.00
     20.8479528             -0.108506975            0.0716287243
      4.80830834            -0.146451658            0.3459121030
      1.34406986             1.128688580            0.7224699570
SP   1   1.00
      0.358151393            1.0000000              1.0000000
D    1   1.00
      3.5000000              1.0000000
D    1   1.00
      0.8750000              1.0000000
F    1   1.00
      1.8500000              1.0000000
****
Al     0
S    6   1.00
  13983.1000000              0.00194267
   2098.7500000              0.0148599
    477.7050000              0.0728494
    134.3600000              0.2468300
     42.8709000              0.4872580
     14.5189000              0.3234960
SP   6   1.00
    239.6680000             -0.00292619             0.00460285
     57.4419000             -0.0374080              0.0331990
     18.2859000             -0.1144870              0.1362820
      6.5991400              0.1156350              0.3304760
      2.4904900              0.6125950              0.4491460
      0.9445400              0.3937990              0.2657040
SP   3   1.00
      1.2779000             -0.2276060             -0.0175130
      0.3975900              0.00144583             0.2445330
      0.1600950              1.0927900              0.8049340
SP   1   1.00
      0.0556577              1.0000000              1.0000000
D    1   1.00
      0.6500000              1.0000000
D    1   1.00
      0.1625000              1.0000000
F    1   1.00
      0.2500000              1.0000000
****
Si     0
S    6   1.00
  16115.9000000              0.00195948
   2425.5800000              0.01492880
    553.8670000              0.07284780
    156.3400000              0.24613000
     50.0683000              0.48591400
     17.0178000              0.32500200
SP   6   1.00
    292.7180000             -0.00278094             0.00443826
     69.8731000             -0.03571460             0.03266790
     22.3363000             -0.11498500             0.13472100
      8.1503900              0.09356340             0.32867800
      3.1345800              0.60301700             0.44964000
      1.2254300              0.41895900             0.26137200
SP   3   1.00
      1.7273800             -0.24463000            -0.01779510
      0.5729220              0.00431572             0.25353900
      0.2221920              1.09818000             0.80066900
SP   1   1.00
      0.0778369              1.00000000             1.00000000
D    1   1.00
      0.9000000              1.0000000
D    1   1.00
      0.2250000              1.0000000
F    1   1.00
      0.3200000              1.0000000
****
P     0
S    6   1.00
  19413.3000000              0.0018516
   2909.4200000              0.0142062
    661.3640000              0.0699995
    185.7590000              0.2400790
     59.1943000              0.4847620
     20.0310000              0.3352000
SP   6   1.00
    339.4780000             -0.00278217             0.00456462
     81.0101000             -0.0360499              0.03369360
     25.8780000             -0.1166310              0.13975500
      9.4522100              0.0968328              0.33936200
      3.6656600              0.6144180              0.45092100
      1.4674600              0.4037980              0.23858600
SP   3   1.00
      2.1562300             -0.2529230             -0.01776530
      0.7489970              0.0328517              0.27405800
      0.2831450              1.0812500              0.78542100
SP   1   1.00
      0.0998317              1.0000000              1.00000000
D    1   1.00
      1.1000000              1.0000000
D    1   1.00
      0.2750000              1.0000000
F    1   1.00
      0.4500000              1.0000000
****
S     0
S    6   1.00
  21917.1000000              0.0018690
   3301.4900000              0.0142300
    754.1460000              0.0696960
    212.7110000              0.2384870
     67.9896000              0.4833070
     23.0515000              0.3380740
SP   6   1.00
    423.7350000             -0.0023767              0.0040610
    100.7100000             -0.0316930              0.0306810
     32.1599000             -0.1133170              0.1304520
     11.8079000              0.0560900              0.3272050
      4.6311000              0.5922550              0.4528510
      1.8702500              0.4550060              0.2560420
SP   3   1.00
      2.6158400             -0.2503740             -0.0145110
      0.9221670              0.0669570              0.3102630
      0.3412870              1.0545100              0.7544830
SP   1   1.00
      0.1171670              1.0000000              1.0000000
D    1   1.00
      1.3000000              1.0000000
D    1   1.00
      0.3250000              1.0000000
F    1   1.00
      0.5500000              1.0000000
****
Cl     0
S    6   1.00
  25180.1000000              0.0018330
   3780.3500000              0.0140340
    860.4740000              0.0690970
    242.1450000              0.2374520
     77.3349000              0.4830340
     26.2470000              0.3398560
SP   6   1.00
    491.7650000             -0.0022974              0.0039894
    116.9840000             -0.0307140              0.0303180
     37.4153000             -0.1125280              0.1298800
     13.7834000              0.0450160              0.3279510
      5.4521500              0.5893530              0.4535270
      2.2258800              0.4652060              0.2521540
SP   3   1.00
      3.1864900             -0.2518300             -0.0142990
      1.1442700              0.0615890              0.3235720
      0.4203770              1.0601800              0.7435070
SP   1   1.00
      0.1426570              1.0000000              1.0000000
D    1   1.00
      1.5000000              1.0000000
D    1   1.00
      0.3750000              1.0000000
F    1   1.00
      0.7000000              1.0000000
****
}

set {
reference uhf
freeze_core true
e_convergence 10
d_convergence 10
dft_spherical_points 1202
dft_radial_points 99
}

e = energy('b3lyp')

print_out('Grab this energy {0}'.format(e))
--------------------------------------------------------------------------

    Molecular point group: c1

    Geometry (in Bohr), charge = 0, multiplicity = 2:

       Center              X                  Y                   Z               Mass
    ------------   -----------------  -----------------  -----------------  -----------------
         C           -0.323340266534     0.000018667113     0.000000020628    12.000000000000
         C            0.061295917866    -1.400052827587    -2.426533305672    12.000000000000
         C            0.060709974566     2.802319341313     0.001601069828    12.000000000000
         C            0.061294787866    -1.402824509387     2.424932482528    12.000000000000
         H            2.086479397666    -1.646802794387    -2.845618985472     1.007825032230
         H           -0.768204751734    -0.386225720587    -4.027263449972     1.007825032230
         H           -0.762421289934    -3.289949433087    -2.348842719172     1.007825032230
         H            2.087708828266     3.288544723613    -0.000621224372     1.007825032230
         H           -0.766191617334     3.680918746913     1.675283205928     1.007825032230
         H           -0.765798826434     3.680789278113    -1.675886522372     1.007825032230
         H            2.086481400066    -1.645729195487     2.846241305928     1.007825032230
         H           -0.762815196134    -3.289491607787     2.349254778328     1.007825032230
         H           -0.767810582434    -0.385632304687     4.027450428328     1.007825032230

  Charge       = 0
  Multiplicity = 2
  Basis Set: ANONYMOUS861ED26D
    Blend: 6-31G_2DFP_
  Basis Set: (ANONYMOUS861ED26D AUX)
    Blend: DEF2-UNIVERSAL-JKFIT

    Orbital Energies [Eh]
    ---------------------

    Alpha Occupied:

       1A    -10.180342     2A    -10.167033     3A    -10.167027
       4A    -10.166984     5A     -0.797766     6A     -0.686248
       7A     -0.686128     8A     -0.530778     9A     -0.441126
      10A     -0.434860    11A     -0.434481    12A     -0.382621
      13A     -0.382577    14A     -0.363611    15A     -0.338161
      16A     -0.337835    17A     -0.168961

    Alpha Virtual:

      18A      0.076070    19A      0.134040    20A      0.134266
      21A      0.142421    22A      0.142833    23A      0.154882
      24A      0.178686    25A      0.178871    26A      0.203545
      27A      0.214805    28A      0.275876    29A      0.276095
      30A      0.398985    31A      0.399470    32A      0.403345
      33A      0.423935    34A      0.424259    35A      0.456593
      36A      0.495340    37A      0.495441    38A      0.512154
      39A      0.513986    40A      0.578755    41A      0.578879
      42A      0.591489    43A      0.591775    44A      0.602571
      45A      0.624705    46A      0.631782    47A      0.636016
      48A      0.636529    49A      0.663201    50A      0.663622
      51A      0.683667    52A      0.684057    53A      0.734994
      54A      0.825157    55A      0.825656    56A      0.853916
      57A      0.914809    58A      0.915242    59A      0.944124
      60A      0.944609    61A      0.961200    62A      0.961388
      63A      1.003455    64A      1.127837    65A      1.128386
      66A      1.142219    67A      1.163215    68A      1.163323
      69A      1.223321    70A      1.274241    71A      1.274733
      72A      1.279354    73A      1.324140    74A      1.324560
      75A      1.355980    76A      1.365763    77A      1.366351
      78A      1.392455    79A      1.404007    80A      1.404097
      81A      1.416405    82A      1.417807    83A      1.427896
      84A      1.491458    85A      1.499118    86A      1.542814
      87A      1.542853    88A      1.574242    89A      1.574667
      90A      1.669830    91A      1.738702    92A      1.740131
      93A      1.768330    94A      1.830599    95A      1.832173
      96A      1.971756    97A      2.017509    98A      2.019240
      99A      2.019638   100A      2.052128   101A      2.053169
     102A      2.738303   103A      2.738666   104A      2.790917
     105A      2.811433   106A      2.889799   107A      2.890101
     108A      2.894938   109A      2.929471   110A      2.929527
     111A      2.958963   112A      2.964317   113A      2.964480
     114A      3.034010   115A      3.070666   116A      3.071846
     117A      3.084430   118A      3.168363   119A      3.169203
     120A      3.180589   121A      3.285149   122A      3.285468
     123A      3.326778   124A      3.327552   125A      3.375627
     126A      3.489877   127A      3.490453   128A      3.513987
     129A      3.525353   130A      3.567943   131A      3.568835
     132A      3.575127   133A      3.665889   134A      3.666903
     135A      3.679642   136A      3.693889   137A      3.694390
     138A      3.776669   139A      3.776929   140A      3.789127
     141A      3.911644   142A      3.912799   143A      4.034444
     144A      4.110820   145A      4.111856   146A      4.147856
     147A      4.148319   148A      4.173335   149A      4.202168
     150A      4.202652   151A      4.203908   152A      4.210965
     153A      4.315307   154A      4.316614   155A      4.358973
     156A      4.423915   157A      4.424994   158A      4.443443
     159A      4.515793   160A      4.517895   161A      4.578269
     162A      4.578273   163A      4.617547   164A      4.709434
     165A      4.773637   166A      4.775580   167A      4.836913
     168A      4.962865   169A      5.002584   170A      5.003326
     171A      5.227587   172A      5.246687   173A      5.247349
     174A      5.354275   175A      5.356765   176A      5.479416

    Beta Occupied:

       1A    -10.167786     2A    -10.167781     3A    -10.167757
       4A    -10.166519     5A     -0.781091     6A     -0.684052
       7A     -0.683929     8A     -0.511750     9A     -0.431231
      10A     -0.430854    11A     -0.421821    12A     -0.376702
      13A     -0.376666    14A     -0.362595    15A     -0.333280
      16A     -0.332962

    Beta Virtual:

      17A     -0.025742    18A      0.077079    19A      0.134905
      20A      0.135182    21A      0.144265    22A      0.144731
      23A      0.163340    24A      0.182358    25A      0.182541
      26A      0.215028    27A      0.218935    28A      0.282225
      29A      0.282442    30A      0.400149    31A      0.400646
      32A      0.419791    33A      0.426746    34A      0.427071
      35A      0.468501    36A      0.497595    37A      0.497707
      38A      0.513895    39A      0.556325    40A      0.584307
      41A      0.584427    42A      0.597643    43A      0.597978
      44A      0.609995    45A      0.628077    46A      0.631945
      47A      0.639321    48A      0.639793    49A      0.666779
      50A      0.667172    51A      0.686324    52A      0.686670
      53A      0.757518    54A      0.830337    55A      0.830813
      56A      0.855269    57A      0.922800    58A      0.923194
      59A      0.945962    60A      0.953534    61A      0.966488
      62A      0.966713    63A      1.008696    64A      1.131869
      65A      1.132411    66A      1.155598    67A      1.168292
      68A      1.168392    69A      1.232294    70A      1.279820
      71A      1.280347    72A      1.285108    73A      1.329130
      74A      1.329547    75A      1.365393    76A      1.371069
      77A      1.371531    78A      1.393518    79A      1.407454
      80A      1.407580    81A      1.421504    82A      1.422809
      83A      1.428165    84A      1.492527    85A      1.509541
      86A      1.547197    87A      1.547289    88A      1.582114
      89A      1.582535    90A      1.674677    91A      1.744452
      92A      1.745906    93A      1.779108    94A      1.834449
      95A      1.836033    96A      1.972617    97A      2.024849
      98A      2.026015    99A      2.039687   100A      2.058843
     101A      2.059896   102A      2.746628   103A      2.747013
     104A      2.811804   105A      2.816094   106A      2.902444
     107A      2.902830   108A      2.924648   109A      2.931962
     110A      2.931997   111A      2.960039   112A      2.968854
     113A      2.969018   114A      3.041944   115A      3.080468
     116A      3.081756   117A      3.086357   118A      3.184139
     119A      3.184923   120A      3.188275   121A      3.289938
     122A      3.290278   123A      3.330548   124A      3.331390
     125A      3.383445   126A      3.492620   127A      3.493170
     128A      3.512359   129A      3.528389   130A      3.574989
     131A      3.581204   132A      3.582254   133A      3.670765
     134A      3.671519   135A      3.692948   136A      3.725708
     137A      3.725826   138A      3.781170   139A      3.781485
     140A      3.817667   141A      3.921394   142A      3.922681
     143A      4.045332   144A      4.117428   145A      4.118883
     146A      4.154829   147A      4.155777   148A      4.187372
     149A      4.208124   150A      4.209818   151A      4.210622
     152A      4.215451   153A      4.322792   154A      4.324014
     155A      4.362335   156A      4.432152   157A      4.433185
     158A      4.446328   159A      4.523575   160A      4.525691
     161A      4.588839   162A      4.588907   163A      4.624739
     164A      4.719777   165A      4.780619   166A      4.782506
     167A      4.839830   168A      4.967660   169A      5.006625
     170A      5.007363   171A      5.233198   172A      5.248486
     173A      5.249228   174A      5.360764   175A      5.363230
     176A      5.481739

    Final Occupation by Irrep:
              A
    DOCC [    16 ]
    SOCC [     1 ]

  @DF-UKS Final Energy:  -157.81305875457909

   => Energetics <=

    Nuclear Repulsion Energy =            125.3946440865168483
    One-Electron Energy =                -458.7489203900419739
    Two-Electron Energy =                 195.8483637480041750
    DFT Exchange-Correlation Energy =     -20.3071461990581454
    Empirical Dispersion Energy =           0.0000000000000000
    VV10 Nonlocal Energy =                  0.0000000000000000
    Total Energy =                       -157.8130587545790888

  UHF NO Occupations:
  HONO-2 :   15  A 1.9996009
  HONO-1 :   16  A 1.9989805
  HONO-0 :   17  A 1.0000000
  LUNO+0 :   18  A 0.0010195
  LUNO+1 :   19  A 0.0003991
  LUNO+2 :   20  A 0.0001976
  LUNO+3 :   21  A 0.0001975

Computation Completed

Properties will be evaluated at   0.000000,   0.000000,   0.000000 [a0]

Properties computed using the SCF density matrix

  Nuclear Dipole Moment: [e a0]
     X:     0.8272      Y:     0.0032      Z:    -0.0000

  Electronic Dipole Moment: [e a0]
     X:    -0.7493      Y:    -0.0049      Z:    -0.0000

  Dipole Moment: [e a0]
     X:     0.0779      Y:    -0.0017      Z:    -0.0000     Total:     0.0779

  Dipole Moment: [D]
     X:     0.1980      Y:    -0.0044      Z:    -0.0000     Total:     0.1981

*** tstop() called on n066 at Fri Nov  5 12:45:12 2021
Module time:
	user time   =     505.46 seconds =       8.42 minutes
	system time =      11.26 seconds =       0.19 minutes
	total time  =        130 seconds =       2.17 minutes
Total time:
	user time   =     505.46 seconds =       8.42 minutes
	system time =      11.26 seconds =       0.19 minutes
	total time  =        130 seconds =       2.17 minutes
Grab this energy -157.8130587545791
    Psi4 stopped on: Friday, 05 November 2021 12:45PM
    Psi4 wall time for execution: 0:02:09.97

*** Psi4 exiting successfully. Buy a developer a beer!
