                               Psi4 1.4a2.dev629

  ==> Input File <==

--------------------------------------------------------------------------
import os
memory 14 GB

molecule {
 C   -0.3233410044   -0.0002586015    0.0004970841
 C    0.0613065494   -1.4004284290   -2.4265479080
 C    0.0630716304    2.8017505909    0.0003836319
 C    0.0589220831   -1.4001785620    2.4268850553
 H    2.0834676183   -1.6445612415   -2.8476545245
 H   -0.7641474105   -0.3858961761   -4.0270944487
 H   -0.7628747790   -3.2942745808   -2.3473164689
 H    2.0865982128    3.2881076608    0.0001820055
 H   -0.7650897955    3.6797725448    1.6759884052
 H   -0.7674892199    3.6807013674   -1.6765894067
 H    2.0906095072   -1.6439826873    2.8470074096
 H   -0.7673843616   -3.2901207325    2.3503527157
 H   -0.7662569069   -0.3906554668    4.0239064496
units bohr
0 2
}

basis {

assign 6-31g_2dfp_

[ 6-31g_2dfp_ ]

spherical

!----------------------------------------------------------------------
! Basis Set Exchange
! Version v0.8.13
! https://www.basissetexchange.org
!----------------------------------------------------------------------
!   Basis set: 6-31G(2df,p)
! Description: 6-31G(2df,p)
!        Role: orbital
!     Version: 0  (Data from the original Basis Set Exchange)
!----------------------------------------------------------------------

****
H     0
S    3   1.00
     18.7311370              0.03349460
      2.8253937              0.23472695
      0.6401217              0.81375733
S    1   1.00
      0.1612778              1.00000000
P    1   1.00
      1.5000000              1.0000000
P    1   1.00
      0.3750000              1.0000000
****
B     0
S    6   1.00
   2068.8823000              0.0018663
    310.6495700              0.0142515
     70.6830330              0.0695516
     19.8610800              0.2325729
      6.2993048              0.4670787
      2.1270270              0.3634314
SP   3   1.00
      4.7279710             -0.1303938              0.0745976
      1.1903377             -0.1307889              0.3078467
      0.3594117              1.1309444              0.7434568
SP   1   1.00
      0.1267512              1.0000000              1.0000000
D    1   1.00
      0.8020000              1.0000000
D    1   1.00
      0.2005000              1.0000000
F    1   1.00
      0.5000000              1.0000000
****
C     0
S    6   1.00
   3047.5249000              0.0018347
    457.3695100              0.0140373
    103.9486900              0.0688426
     29.2101550              0.2321844
      9.2866630              0.4679413
      3.1639270              0.3623120
SP   3   1.00
      7.8682724             -0.1193324              0.0689991
      1.8812885             -0.1608542              0.3164240
      0.5442493              1.1434564              0.7443083
SP   1   1.00
      0.1687144              1.0000000              1.0000000
D    1   1.00
      1.2520000              1.0000000
D    1   1.00
      0.3130000              1.0000000
F    1   1.00
      0.8000000              1.0000000
****
N     0
S    6   1.00
   4173.5110000              0.0018348
    627.4579000              0.0139950
    142.9021000              0.0685870
     40.2343300              0.2322410
     12.8202100              0.4690700
      4.3904370              0.3604550
SP   3   1.00
     11.6263580             -0.1149610              0.0675800
      2.7162800             -0.1691180              0.3239070
      0.7722180              1.1458520              0.7408950
SP   1   1.00
      0.2120313              1.0000000              1.0000000
D    1   1.00
      1.8260000              1.0000000
D    1   1.00
      0.4565000              1.0000000
F    1   1.00
      1.0000000              1.0000000
****
O     0
S    6   1.00
   5484.6717000              0.0018311
    825.2349500              0.0139501
    188.0469600              0.0684451
     52.9645000              0.2327143
     16.8975700              0.4701930
      5.7996353              0.3585209
SP   3   1.00
     15.5396160             -0.1107775              0.0708743
      3.5999336             -0.1480263              0.3397528
      1.0137618              1.1307670              0.7271586
SP   1   1.00
      0.2700058              1.0000000              1.0000000
D    1   1.00
      2.5840000              1.0000000
D    1   1.00
      0.6460000              1.0000000
F    1   1.00
      1.4000000              1.0000000
****
F     0
S    6   1.00
   7001.7130900              0.0018196169
   1051.3660900              0.0139160796
    239.2856900              0.0684053245
     67.3974453              0.233185760
     21.5199573              0.471267439
      7.40310130             0.356618546
SP   3   1.00
     20.8479528             -0.108506975            0.0716287243
      4.80830834            -0.146451658            0.3459121030
      1.34406986             1.128688580            0.7224699570
SP   1   1.00
      0.358151393            1.0000000              1.0000000
D    1   1.00
      3.5000000              1.0000000
D    1   1.00
      0.8750000              1.0000000
F    1   1.00
      1.8500000              1.0000000
****
Al     0
S    6   1.00
  13983.1000000              0.00194267
   2098.7500000              0.0148599
    477.7050000              0.0728494
    134.3600000              0.2468300
     42.8709000              0.4872580
     14.5189000              0.3234960
SP   6   1.00
    239.6680000             -0.00292619             0.00460285
     57.4419000             -0.0374080              0.0331990
     18.2859000             -0.1144870              0.1362820
      6.5991400              0.1156350              0.3304760
      2.4904900              0.6125950              0.4491460
      0.9445400              0.3937990              0.2657040
SP   3   1.00
      1.2779000             -0.2276060             -0.0175130
      0.3975900              0.00144583             0.2445330
      0.1600950              1.0927900              0.8049340
SP   1   1.00
      0.0556577              1.0000000              1.0000000
D    1   1.00
      0.6500000              1.0000000
D    1   1.00
      0.1625000              1.0000000
F    1   1.00
      0.2500000              1.0000000
****
Si     0
S    6   1.00
  16115.9000000              0.00195948
   2425.5800000              0.01492880
    553.8670000              0.07284780
    156.3400000              0.24613000
     50.0683000              0.48591400
     17.0178000              0.32500200
SP   6   1.00
    292.7180000             -0.00278094             0.00443826
     69.8731000             -0.03571460             0.03266790
     22.3363000             -0.11498500             0.13472100
      8.1503900              0.09356340             0.32867800
      3.1345800              0.60301700             0.44964000
      1.2254300              0.41895900             0.26137200
SP   3   1.00
      1.7273800             -0.24463000            -0.01779510
      0.5729220              0.00431572             0.25353900
      0.2221920              1.09818000             0.80066900
SP   1   1.00
      0.0778369              1.00000000             1.00000000
D    1   1.00
      0.9000000              1.0000000
D    1   1.00
      0.2250000              1.0000000
F    1   1.00
      0.3200000              1.0000000
****
P     0
S    6   1.00
  19413.3000000              0.0018516
   2909.4200000              0.0142062
    661.3640000              0.0699995
    185.7590000              0.2400790
     59.1943000              0.4847620
     20.0310000              0.3352000
SP   6   1.00
    339.4780000             -0.00278217             0.00456462
     81.0101000             -0.0360499              0.03369360
     25.8780000             -0.1166310              0.13975500
      9.4522100              0.0968328              0.33936200
      3.6656600              0.6144180              0.45092100
      1.4674600              0.4037980              0.23858600
SP   3   1.00
      2.1562300             -0.2529230             -0.01776530
      0.7489970              0.0328517              0.27405800
      0.2831450              1.0812500              0.78542100
SP   1   1.00
      0.0998317              1.0000000              1.00000000
D    1   1.00
      1.1000000              1.0000000
D    1   1.00
      0.2750000              1.0000000
F    1   1.00
      0.4500000              1.0000000
****
S     0
S    6   1.00
  21917.1000000              0.0018690
   3301.4900000              0.0142300
    754.1460000              0.0696960
    212.7110000              0.2384870
     67.9896000              0.4833070
     23.0515000              0.3380740
SP   6   1.00
    423.7350000             -0.0023767              0.0040610
    100.7100000             -0.0316930              0.0306810
     32.1599000             -0.1133170              0.1304520
     11.8079000              0.0560900              0.3272050
      4.6311000              0.5922550              0.4528510
      1.8702500              0.4550060              0.2560420
SP   3   1.00
      2.6158400             -0.2503740             -0.0145110
      0.9221670              0.0669570              0.3102630
      0.3412870              1.0545100              0.7544830
SP   1   1.00
      0.1171670              1.0000000              1.0000000
D    1   1.00
      1.3000000              1.0000000
D    1   1.00
      0.3250000              1.0000000
F    1   1.00
      0.5500000              1.0000000
****
Cl     0
S    6   1.00
  25180.1000000              0.0018330
   3780.3500000              0.0140340
    860.4740000              0.0690970
    242.1450000              0.2374520
     77.3349000              0.4830340
     26.2470000              0.3398560
SP   6   1.00
    491.7650000             -0.0022974              0.0039894
    116.9840000             -0.0307140              0.0303180
     37.4153000             -0.1125280              0.1298800
     13.7834000              0.0450160              0.3279510
      5.4521500              0.5893530              0.4535270
      2.2258800              0.4652060              0.2521540
SP   3   1.00
      3.1864900             -0.2518300             -0.0142990
      1.1442700              0.0615890              0.3235720
      0.4203770              1.0601800              0.7435070
SP   1   1.00
      0.1426570              1.0000000              1.0000000
D    1   1.00
      1.5000000              1.0000000
D    1   1.00
      0.3750000              1.0000000
F    1   1.00
      0.7000000              1.0000000
****
}

set {
reference uhf
freeze_core true
e_convergence 10
d_convergence 10
dft_spherical_points 1202
dft_radial_points 99
}

e = energy('b3lyp')

print_out('Grab this energy {0}'.format(e))
--------------------------------------------------------------------------

    Molecular point group: c1

    Geometry (in Bohr), charge = 0, multiplicity = 2:

       Center              X                  Y                   Z               Mass
    ------------   -----------------  -----------------  -----------------  -----------------
         C           -0.323340858664    -0.000428629204     0.000262514855    12.000000000000
         C            0.061306695136    -1.400598456704    -2.426782477245    12.000000000000
         C            0.063071776136     2.801580563196     0.000149062655    12.000000000000
         C            0.058922228836    -1.400348589704     2.426650486055    12.000000000000
         H            2.083467764036    -1.644731269204    -2.847889093745     1.007825032230
         H           -0.764147264764    -0.386066203804    -4.027329017945     1.007825032230
         H           -0.762874633264    -3.294444608504    -2.347551038145     1.007825032230
         H            2.086598358536     3.287937633096    -0.000052563745     1.007825032230
         H           -0.765089649764     3.679602517096     1.675753835955     1.007825032230
         H           -0.767489074164     3.680531339696    -1.676823975945     1.007825032230
         H            2.090609652936    -1.644152715004     2.846772840355     1.007825032230
         H           -0.767384215864    -3.290290760204     2.350118146455     1.007825032230
         H           -0.766256761164    -0.390825494504     4.023671880355     1.007825032230

  Charge       = 0
  Multiplicity = 2
  Basis Set: ANONYMOUS51DC4274
    Blend: 6-31G_2DFP_
  Basis Set: (ANONYMOUS51DC4274 AUX)
    Blend: DEF2-UNIVERSAL-JKFIT

    Orbital Energies [Eh]
    ---------------------

    Alpha Occupied:

       1A    -10.180342     2A    -10.167059     3A    -10.167015
       4A    -10.166971     5A     -0.797766     6A     -0.686221
       7A     -0.686155     8A     -0.530778     9A     -0.441128
      10A     -0.434773    11A     -0.434566    12A     -0.382752
      13A     -0.382445    14A     -0.363612    15A     -0.338089
      16A     -0.337908    17A     -0.168961

    Alpha Virtual:

      18A      0.076071    19A      0.133984    20A      0.134324
      21A      0.142538    22A      0.142714    23A      0.154881
      24A      0.178638    25A      0.178921    26A      0.203548
      27A      0.214803    28A      0.275892    29A      0.276079
      30A      0.399062    31A      0.399392    32A      0.403347
      33A      0.424000    34A      0.424194    35A      0.456592
      36A      0.495240    37A      0.495536    38A      0.512161
      39A      0.513981    40A      0.578624    41A      0.579008
      42A      0.591430    43A      0.591828    44A      0.602582
      45A      0.624761    46A      0.631756    47A      0.636095
      48A      0.636418    49A      0.663015    50A      0.663823
      51A      0.683623    52A      0.684085    53A      0.734996
      54A      0.825380    55A      0.825426    56A      0.853921
      57A      0.914810    58A      0.915240    59A      0.944126
      60A      0.944611    61A      0.961141    62A      0.961449
      63A      1.003452    64A      1.127998    65A      1.128219
      66A      1.142211    67A      1.163126    68A      1.163421
      69A      1.223325    70A      1.274268    71A      1.274696
      72A      1.279373    73A      1.324099    74A      1.324614
      75A      1.355952    76A      1.365748    77A      1.366354
      78A      1.392451    79A      1.403575    80A      1.404546
      81A      1.416521    82A      1.417715    83A      1.427912
      84A      1.491489    85A      1.499078    86A      1.542379
      87A      1.543293    88A      1.574226    89A      1.574668
      90A      1.669821    91A      1.738945    92A      1.739849
      93A      1.768360    94A      1.830575    95A      1.832217
      96A      1.971716    97A      2.017835    98A      2.018747
      99A      2.019815   100A      2.051643   101A      2.053664
     102A      2.738071   103A      2.738898   104A      2.790926
     105A      2.811425   106A      2.889679   107A      2.890200
     108A      2.894971   109A      2.929460   110A      2.929536
     111A      2.958999   112A      2.964033   113A      2.964717
     114A      3.034017   115A      3.071161   116A      3.071390
     117A      3.084372   118A      3.168533   119A      3.169027
     120A      3.180601   121A      3.284987   122A      3.285644
     123A      3.326899   124A      3.327420   125A      3.375627
     126A      3.489819   127A      3.490498   128A      3.514017
     129A      3.525323   130A      3.568223   131A      3.568555
     132A      3.575154   133A      3.665617   134A      3.667166
     135A      3.679645   136A      3.693972   137A      3.694287
     138A      3.776765   139A      3.776841   140A      3.789126
     141A      3.912091   142A      3.912360   143A      4.034438
     144A      4.110899   145A      4.111819   146A      4.147520
     147A      4.148677   148A      4.173228   149A      4.201657
     150A      4.203191   151A      4.203904   152A      4.210919
     153A      4.315032   154A      4.316938   155A      4.358990
     156A      4.424120   157A      4.424809   158A      4.443416
     159A      4.515598   160A      4.518106   161A      4.578046
     162A      4.578491   163A      4.617558   164A      4.709448
     165A      4.773918   166A      4.775270   167A      4.836906
     168A      4.962867   169A      5.002055   170A      5.003824
     171A      5.228017   172A      5.244728   173A      5.248881
     174A      5.354288   175A      5.356789   176A      5.479377

    Beta Occupied:

       1A    -10.167818     2A    -10.167769     3A    -10.167737
       4A    -10.166519     5A     -0.781091     6A     -0.684024
       7A     -0.683957     8A     -0.511749     9A     -0.431150
      10A     -0.430938    11A     -0.421819    12A     -0.376850
      13A     -0.376516    14A     -0.362595    15A     -0.333211
      16A     -0.333032

    Beta Virtual:

      17A     -0.025743    18A      0.077080    19A      0.134887
      20A      0.135203    21A      0.144428    22A      0.144565
      23A      0.163337    24A      0.182297    25A      0.182605
      26A      0.215032    27A      0.218930    28A      0.282239
      29A      0.282428    30A      0.400233    31A      0.400562
      32A      0.419790    33A      0.426811    34A      0.427007
      35A      0.468500    36A      0.497495    37A      0.497804
      38A      0.513896    39A      0.556325    40A      0.584190
      41A      0.584542    42A      0.597591    43A      0.598029
      44A      0.610003    45A      0.628137    46A      0.631920
      47A      0.639379    48A      0.639696    49A      0.666615
      50A      0.667352    51A      0.686270    52A      0.686709
      53A      0.757519    54A      0.830547    55A      0.830594
      56A      0.855275    57A      0.922795    58A      0.923197
      59A      0.945963    60A      0.953540    61A      0.966419
      62A      0.966782    63A      1.008692    64A      1.131999
      65A      1.132274    66A      1.155588    67A      1.168188
      68A      1.168508    69A      1.232297    70A      1.279852
      71A      1.280305    72A      1.285128    73A      1.329078
      74A      1.329613    75A      1.365362    76A      1.370991
      77A      1.371600    78A      1.393510    79A      1.406997
      80A      1.408057    81A      1.421564    82A      1.422773
      83A      1.428181    84A      1.492537    85A      1.509520
      86A      1.546800    87A      1.547685    88A      1.582144
      89A      1.582495    90A      1.674668    91A      1.744721
      92A      1.745604    93A      1.779132    94A      1.834424
      95A      1.836080    96A      1.972576    97A      2.024643
      98A      2.026245    99A      2.039680   100A      2.058411
     101A      2.060332   102A      2.746416   103A      2.747224
     104A      2.811836   105A      2.816061   106A      2.902372
     107A      2.902910   108A      2.924652   109A      2.931923
     110A      2.932032   111A      2.960061   112A      2.968570
     113A      2.969274   114A      3.041950   115A      3.081025
     116A      3.081314   117A      3.086221   118A      3.184195
     119A      3.184844   120A      3.188305   121A      3.289776
     122A      3.290451   123A      3.330678   124A      3.331251
     125A      3.383444   126A      3.492567   127A      3.493211
     128A      3.512382   129A      3.528369   130A      3.574989
     131A      3.581573   132A      3.581908   133A      3.670339
     134A      3.671941   135A      3.692942   136A      3.725536
     137A      3.725982   138A      3.781274   139A      3.781389
     140A      3.817667   141A      3.921880   142A      3.922204
     143A      4.045324   144A      4.117742   145A      4.118606
     146A      4.154776   147A      4.155845   148A      4.187280
     149A      4.207944   150A      4.209768   151A      4.210895
     152A      4.215392   153A      4.322459   154A      4.324386
     155A      4.362355   156A      4.432337   157A      4.433022
     158A      4.446298   159A      4.523390   160A      4.525894
     161A      4.588653   162A      4.589085   163A      4.624752
     164A      4.719792   165A      4.780885   166A      4.782209
     167A      4.839823   168A      4.967662   169A      5.006120
     170A      5.007838   171A      5.233731   172A      5.246523
     173A      5.250655   174A      5.360759   175A      5.363278
     176A      5.481698

    Final Occupation by Irrep:
              A
    DOCC [    16 ]
    SOCC [     1 ]

  @DF-UKS Final Energy:  -157.81306107791733

   => Energetics <=

    Nuclear Repulsion Energy =            125.3946339471805231
    One-Electron Energy =                -458.7489065861532254
    Two-Electron Energy =                 195.8483570871331381
    DFT Exchange-Correlation Energy =     -20.3071455260777611
    Empirical Dispersion Energy =           0.0000000000000000
    VV10 Nonlocal Energy =                  0.0000000000000000
    Total Energy =                       -157.8130610779173253

  UHF NO Occupations:
  HONO-2 :   15  A 1.9996008
  HONO-1 :   16  A 1.9989804
  HONO-0 :   17  A 1.0000000
  LUNO+0 :   18  A 0.0010196
  LUNO+1 :   19  A 0.0003992
  LUNO+2 :   20  A 0.0001977
  LUNO+3 :   21  A 0.0001974

Computation Completed

Properties will be evaluated at   0.000000,   0.000000,   0.000000 [a0]

Properties computed using the SCF density matrix

  Nuclear Dipole Moment: [e a0]
     X:     0.8272      Y:    -0.0012      Z:    -0.0017

  Electronic Dipole Moment: [e a0]
     X:    -0.7493      Y:     0.0011      Z:     0.0023

  Dipole Moment: [e a0]
     X:     0.0779      Y:    -0.0001      Z:     0.0006     Total:     0.0779

  Dipole Moment: [D]
     X:     0.1980      Y:    -0.0003      Z:     0.0016     Total:     0.1980

*** tstop() called on n065 at Fri Nov  5 12:30:52 2021
Module time:
	user time   =     544.79 seconds =       9.08 minutes
	system time =      12.01 seconds =       0.20 minutes
	total time  =        140 seconds =       2.33 minutes
Total time:
	user time   =     544.79 seconds =       9.08 minutes
	system time =      12.01 seconds =       0.20 minutes
	total time  =        140 seconds =       2.33 minutes
Grab this energy -157.81306107791733
    Psi4 stopped on: Friday, 05 November 2021 12:30PM
    Psi4 wall time for execution: 0:02:20.00

*** Psi4 exiting successfully. Buy a developer a beer!
