                               Psi4 1.4a2.dev629

  ==> Input File <==

--------------------------------------------------------------------------
import os
memory 14 GB

molecule {
 C   -0.3233175767   -0.0002282771   -0.0000000000
 C    0.0611498704   -1.4010037429   -2.4257603395
 C    0.0612808236    2.8046865794   -0.0000000000
 C    0.0611498704   -1.4010037429    2.4257603395
 H    2.0837434585   -1.6443108375   -2.8481265507
 H   -0.7637620758   -0.3906954430   -4.0241923324
 H   -0.7640304981   -3.2895195982   -2.3505800653
 H    2.0837244069    3.2877833816    0.0000000000
 H   -0.7642485202    3.6793966229    1.6738633183
 H   -0.7642485202    3.6793966229   -1.6738633183
 H    2.0837434585   -1.6443108375    2.8481265507
 H   -0.7640304981   -3.2895195982    2.3505800653
 H   -0.7637620758   -0.3906954430    4.0241923324
units bohr
0 2
}

basis {

assign 6-31g_2dfp_

[ 6-31g_2dfp_ ]

spherical

!----------------------------------------------------------------------
! Basis Set Exchange
! Version v0.8.13
! https://www.basissetexchange.org
!----------------------------------------------------------------------
!   Basis set: 6-31G(2df,p)
! Description: 6-31G(2df,p)
!        Role: orbital
!     Version: 0  (Data from the original Basis Set Exchange)
!----------------------------------------------------------------------

****
H     0
S    3   1.00
     18.7311370              0.03349460
      2.8253937              0.23472695
      0.6401217              0.81375733
S    1   1.00
      0.1612778              1.00000000
P    1   1.00
      1.5000000              1.0000000
P    1   1.00
      0.3750000              1.0000000
****
B     0
S    6   1.00
   2068.8823000              0.0018663
    310.6495700              0.0142515
     70.6830330              0.0695516
     19.8610800              0.2325729
      6.2993048              0.4670787
      2.1270270              0.3634314
SP   3   1.00
      4.7279710             -0.1303938              0.0745976
      1.1903377             -0.1307889              0.3078467
      0.3594117              1.1309444              0.7434568
SP   1   1.00
      0.1267512              1.0000000              1.0000000
D    1   1.00
      0.8020000              1.0000000
D    1   1.00
      0.2005000              1.0000000
F    1   1.00
      0.5000000              1.0000000
****
C     0
S    6   1.00
   3047.5249000              0.0018347
    457.3695100              0.0140373
    103.9486900              0.0688426
     29.2101550              0.2321844
      9.2866630              0.4679413
      3.1639270              0.3623120
SP   3   1.00
      7.8682724             -0.1193324              0.0689991
      1.8812885             -0.1608542              0.3164240
      0.5442493              1.1434564              0.7443083
SP   1   1.00
      0.1687144              1.0000000              1.0000000
D    1   1.00
      1.2520000              1.0000000
D    1   1.00
      0.3130000              1.0000000
F    1   1.00
      0.8000000              1.0000000
****
N     0
S    6   1.00
   4173.5110000              0.0018348
    627.4579000              0.0139950
    142.9021000              0.0685870
     40.2343300              0.2322410
     12.8202100              0.4690700
      4.3904370              0.3604550
SP   3   1.00
     11.6263580             -0.1149610              0.0675800
      2.7162800             -0.1691180              0.3239070
      0.7722180              1.1458520              0.7408950
SP   1   1.00
      0.2120313              1.0000000              1.0000000
D    1   1.00
      1.8260000              1.0000000
D    1   1.00
      0.4565000              1.0000000
F    1   1.00
      1.0000000              1.0000000
****
O     0
S    6   1.00
   5484.6717000              0.0018311
    825.2349500              0.0139501
    188.0469600              0.0684451
     52.9645000              0.2327143
     16.8975700              0.4701930
      5.7996353              0.3585209
SP   3   1.00
     15.5396160             -0.1107775              0.0708743
      3.5999336             -0.1480263              0.3397528
      1.0137618              1.1307670              0.7271586
SP   1   1.00
      0.2700058              1.0000000              1.0000000
D    1   1.00
      2.5840000              1.0000000
D    1   1.00
      0.6460000              1.0000000
F    1   1.00
      1.4000000              1.0000000
****
F     0
S    6   1.00
   7001.7130900              0.0018196169
   1051.3660900              0.0139160796
    239.2856900              0.0684053245
     67.3974453              0.233185760
     21.5199573              0.471267439
      7.40310130             0.356618546
SP   3   1.00
     20.8479528             -0.108506975            0.0716287243
      4.80830834            -0.146451658            0.3459121030
      1.34406986             1.128688580            0.7224699570
SP   1   1.00
      0.358151393            1.0000000              1.0000000
D    1   1.00
      3.5000000              1.0000000
D    1   1.00
      0.8750000              1.0000000
F    1   1.00
      1.8500000              1.0000000
****
Al     0
S    6   1.00
  13983.1000000              0.00194267
   2098.7500000              0.0148599
    477.7050000              0.0728494
    134.3600000              0.2468300
     42.8709000              0.4872580
     14.5189000              0.3234960
SP   6   1.00
    239.6680000             -0.00292619             0.00460285
     57.4419000             -0.0374080              0.0331990
     18.2859000             -0.1144870              0.1362820
      6.5991400              0.1156350              0.3304760
      2.4904900              0.6125950              0.4491460
      0.9445400              0.3937990              0.2657040
SP   3   1.00
      1.2779000             -0.2276060             -0.0175130
      0.3975900              0.00144583             0.2445330
      0.1600950              1.0927900              0.8049340
SP   1   1.00
      0.0556577              1.0000000              1.0000000
D    1   1.00
      0.6500000              1.0000000
D    1   1.00
      0.1625000              1.0000000
F    1   1.00
      0.2500000              1.0000000
****
Si     0
S    6   1.00
  16115.9000000              0.00195948
   2425.5800000              0.01492880
    553.8670000              0.07284780
    156.3400000              0.24613000
     50.0683000              0.48591400
     17.0178000              0.32500200
SP   6   1.00
    292.7180000             -0.00278094             0.00443826
     69.8731000             -0.03571460             0.03266790
     22.3363000             -0.11498500             0.13472100
      8.1503900              0.09356340             0.32867800
      3.1345800              0.60301700             0.44964000
      1.2254300              0.41895900             0.26137200
SP   3   1.00
      1.7273800             -0.24463000            -0.01779510
      0.5729220              0.00431572             0.25353900
      0.2221920              1.09818000             0.80066900
SP   1   1.00
      0.0778369              1.00000000             1.00000000
D    1   1.00
      0.9000000              1.0000000
D    1   1.00
      0.2250000              1.0000000
F    1   1.00
      0.3200000              1.0000000
****
P     0
S    6   1.00
  19413.3000000              0.0018516
   2909.4200000              0.0142062
    661.3640000              0.0699995
    185.7590000              0.2400790
     59.1943000              0.4847620
     20.0310000              0.3352000
SP   6   1.00
    339.4780000             -0.00278217             0.00456462
     81.0101000             -0.0360499              0.03369360
     25.8780000             -0.1166310              0.13975500
      9.4522100              0.0968328              0.33936200
      3.6656600              0.6144180              0.45092100
      1.4674600              0.4037980              0.23858600
SP   3   1.00
      2.1562300             -0.2529230             -0.01776530
      0.7489970              0.0328517              0.27405800
      0.2831450              1.0812500              0.78542100
SP   1   1.00
      0.0998317              1.0000000              1.00000000
D    1   1.00
      1.1000000              1.0000000
D    1   1.00
      0.2750000              1.0000000
F    1   1.00
      0.4500000              1.0000000
****
S     0
S    6   1.00
  21917.1000000              0.0018690
   3301.4900000              0.0142300
    754.1460000              0.0696960
    212.7110000              0.2384870
     67.9896000              0.4833070
     23.0515000              0.3380740
SP   6   1.00
    423.7350000             -0.0023767              0.0040610
    100.7100000             -0.0316930              0.0306810
     32.1599000             -0.1133170              0.1304520
     11.8079000              0.0560900              0.3272050
      4.6311000              0.5922550              0.4528510
      1.8702500              0.4550060              0.2560420
SP   3   1.00
      2.6158400             -0.2503740             -0.0145110
      0.9221670              0.0669570              0.3102630
      0.3412870              1.0545100              0.7544830
SP   1   1.00
      0.1171670              1.0000000              1.0000000
D    1   1.00
      1.3000000              1.0000000
D    1   1.00
      0.3250000              1.0000000
F    1   1.00
      0.5500000              1.0000000
****
Cl     0
S    6   1.00
  25180.1000000              0.0018330
   3780.3500000              0.0140340
    860.4740000              0.0690970
    242.1450000              0.2374520
     77.3349000              0.4830340
     26.2470000              0.3398560
SP   6   1.00
    491.7650000             -0.0022974              0.0039894
    116.9840000             -0.0307140              0.0303180
     37.4153000             -0.1125280              0.1298800
     13.7834000              0.0450160              0.3279510
      5.4521500              0.5893530              0.4535270
      2.2258800              0.4652060              0.2521540
SP   3   1.00
      3.1864900             -0.2518300             -0.0142990
      1.1442700              0.0615890              0.3235720
      0.4203770              1.0601800              0.7435070
SP   1   1.00
      0.1426570              1.0000000              1.0000000
D    1   1.00
      1.5000000              1.0000000
D    1   1.00
      0.3750000              1.0000000
F    1   1.00
      0.7000000              1.0000000
****
}

set {
reference uhf
freeze_core true
e_convergence 10
d_convergence 10
dft_spherical_points 1202
dft_radial_points 99
}

e = energy('b3lyp')

print_out('Grab this energy {0}'.format(e))
--------------------------------------------------------------------------

    Molecular point group: cs

    Geometry (in Bohr), charge = 0, multiplicity = 2:

       Center              X                  Y                   Z               Mass
    ------------   -----------------  -----------------  -----------------  -----------------
         C           -0.323375931396    -0.000699892650     0.000000000000    12.000000000000
         C            0.061091515704    -1.401475358450    -2.425760339500    12.000000000000
         C            0.061222468904     2.804214963850     0.000000000000    12.000000000000
         C            0.061091515704    -1.401475358450     2.425760339500    12.000000000000
         H            2.083685103804    -1.644782453050    -2.848126550700     1.007825032230
         H           -0.763820430496    -0.391167058550    -4.024192332400     1.007825032230
         H           -0.764088852796    -3.289991213750    -2.350580065300     1.007825032230
         H            2.083666052204     3.287311766050     0.000000000000     1.007825032230
         H           -0.764306874896     3.678925007350     1.673863318300     1.007825032230
         H           -0.764306874896     3.678925007350    -1.673863318300     1.007825032230
         H            2.083685103804    -1.644782453050     2.848126550700     1.007825032230
         H           -0.764088852796    -3.289991213750     2.350580065300     1.007825032230
         H           -0.763820430496    -0.391167058550     4.024192332400     1.007825032230

  Charge       = 0
  Multiplicity = 2
  Basis Set: ANONYMOUS574725DF
    Blend: 6-31G_2DFP_
  Basis Set: (ANONYMOUS574725DF AUX)
    Blend: DEF2-UNIVERSAL-JKFIT

    Orbital Energies [Eh]
    ---------------------

    Alpha Occupied:

       1Ap   -10.180274     1App  -10.166515     2Ap   -10.166493
       3Ap   -10.166429     4Ap    -0.797727     5Ap    -0.686571
       2App   -0.686523     6Ap    -0.531087     7Ap    -0.441224
       3App   -0.434893     8Ap    -0.434727     9Ap    -0.382949
       4App   -0.382767     5App   -0.363928     6App   -0.338212
      10Ap    -0.337796    11Ap    -0.168899

    Alpha Virtual:

      12Ap     0.076404     7App    0.134502    13Ap     0.134540
      14Ap     0.142973     8App    0.143105    15Ap     0.155178
       9App    0.179203    16Ap     0.179367    17Ap     0.203435
      10App    0.215257    18Ap     0.275785    11App    0.276233
      19Ap     0.399160    12App    0.399185    20Ap     0.403553
      21Ap     0.424326    13App    0.424416    22Ap     0.456725
      23Ap     0.495590    14App    0.495637    15App    0.512432
      24Ap     0.514113    25Ap     0.579107    16App    0.579195
      17App    0.592175    26Ap     0.592298    27Ap     0.603227
      28Ap     0.625743    18App    0.632475    29Ap     0.636647
      19App    0.636978    30Ap     0.663687    20App    0.663810
      21App    0.684384    31Ap     0.684428    32Ap     0.735304
      22App    0.826170    33Ap     0.826281    23App    0.854431
      34Ap     0.915727    24App    0.915752    25App    0.944753
      35Ap     0.945404    26App    0.961906    36Ap     0.961989
      37Ap     1.003552    38Ap     1.128444    27App    1.128611
      39Ap     1.143098    40Ap     1.163234    28App    1.163816
      41Ap     1.223767    42Ap     1.274702    29App    1.275333
      43Ap     1.278919    44Ap     1.325001    30App    1.325129
      45Ap     1.356849    46Ap     1.366408    31App    1.366704
      32App    1.393030    33App    1.404902    47Ap     1.405247
      48Ap     1.417890    34App    1.418182    35App    1.428675
      36App    1.492387    49Ap     1.500431    50Ap     1.543242
      37App    1.543389    51Ap     1.574449    38App    1.574833
      52Ap     1.671980    39App    1.740722    53Ap     1.740983
      54Ap     1.769847    40App    1.833382    55Ap     1.834407
      41App    1.973356    56Ap     2.019270    57Ap     2.019812
      42App    2.020789    58Ap     2.053050    43App    2.054399
      44App    2.739344    59Ap     2.739585    60Ap     2.791136
      45App    2.811940    61Ap     2.890427    46App    2.890592
      62Ap     2.895024    63Ap     2.929819    47App    2.929952
      48App    2.959621    64Ap     2.964954    49App    2.965124
      65Ap     3.034922    50App    3.072096    66Ap     3.072382
      51App    3.085282    67Ap     3.167914    52App    3.168321
      68Ap     3.180903    69Ap     3.285273    53App    3.285287
      70Ap     3.326468    54App    3.326846    71Ap     3.374912
      72Ap     3.488845    55App    3.489473    56App    3.513728
      73Ap     3.524718    74Ap     3.568496    57App    3.568659
      58App    3.573477    59App    3.666419    75Ap     3.667723
      76Ap     3.681468    60App    3.694847    77Ap     3.695125
      78Ap     3.777168    61App    3.777519    79Ap     3.789680
      80Ap     3.912395    62App    3.913934    81Ap     4.036786
      82Ap     4.113687    63App    4.113993    83Ap     4.151117
      64App    4.151771    84Ap     4.176234    85Ap     4.203718
      86Ap     4.204514    65App    4.204895    66App    4.214563
      87Ap     4.317481    67App    4.318934    68App    4.361399
      88Ap     4.426098    69App    4.427869    70App    4.445552
      89Ap     4.518606    71App    4.519927    90Ap     4.579732
      72App    4.579764    91Ap     4.618209    92Ap     4.711487
      73App    4.776024    93Ap     4.776672    74App    4.839240
      94Ap     4.963643    75App    5.003335    95Ap     5.004829
      96Ap     5.233332    97Ap     5.251905    76App    5.252309
      98Ap     5.360034    77App    5.360169    78App    5.482591

    Beta Occupied:

       1App  -10.167266     1Ap   -10.167257     2Ap   -10.167193
       3Ap   -10.166431     4Ap    -0.781080     5Ap    -0.684377
       2App   -0.684319     6Ap    -0.512000     3App   -0.431274
       7Ap    -0.431106     8Ap    -0.421957     9Ap    -0.377062
       4App   -0.376841     5App   -0.362915     6App   -0.333327
      10Ap    -0.332909

    Beta Virtual:

      11Ap    -0.025510    12Ap     0.077409    13Ap     0.135417
       7App    0.135420    14Ap     0.144832     8App    0.144931
      15Ap     0.163575     9App    0.182877    16Ap     0.183016
      10App    0.215485    17Ap     0.218837    18Ap     0.282152
      11App    0.282581    19Ap     0.400329    12App    0.400347
      20Ap     0.420013    21Ap     0.427139    13App    0.427230
      22Ap     0.468614    23Ap     0.497844    14App    0.497903
      15App    0.514161    24Ap     0.556516    25Ap     0.584670
      16App    0.584767    17App    0.598375    26Ap     0.598497
      27Ap     0.610638    28Ap     0.629106    18App    0.632627
      29Ap     0.639917    19App    0.640235    30Ap     0.667250
      20App    0.667385    21App    0.686996    31Ap     0.687016
      32Ap     0.757852    22App    0.831332    33Ap     0.831452
      23App    0.855760    34Ap     0.923682    24App    0.923711
      25App    0.946588    35Ap     0.954356    26App    0.967207
      36Ap     0.967284    37Ap     1.008803    38Ap     1.132468
      27App    1.132620    39Ap     1.156460    40Ap     1.168321
      28App    1.168936    41Ap     1.232722    42Ap     1.280284
      29App    1.280922    43Ap     1.284660    44Ap     1.330031
      30App    1.330131    45Ap     1.366289    46Ap     1.371677
      31App    1.371917    32App    1.394082    33App    1.408413
      47Ap     1.408659    48Ap     1.422957    34App    1.423208
      35App    1.428939    36App    1.493440    49Ap     1.510876
      50Ap     1.547511    37App    1.547676    51Ap     1.582424
      38App    1.582817    52Ap     1.676903    39App    1.746486
      53Ap     1.746755    54Ap     1.780570    40App    1.837217
      55Ap     1.838222    41App    1.974212    56Ap     2.026084
      42App    2.027183    57Ap     2.040723    58Ap     2.059769
      43App    2.061112    44App    2.747714    59Ap     2.747911
      45App    2.812355    60Ap     2.816298    61Ap     2.903188
      46App    2.903302    62Ap     2.924762    63Ap     2.932268
      47App    2.932366    48App    2.960689    64Ap     2.969525
      49App    2.969723    65Ap     3.042778    50App    3.082070
      66Ap     3.082346    51App    3.087107    67Ap     3.183571
      52App    3.184040    68Ap     3.188669    53App    3.290005
      69Ap     3.290044    70Ap     3.330288    54App    3.330649
      71Ap     3.382755    72Ap     3.491599    55App    3.492270
      56App    3.512099    73Ap     3.527779    57App    3.573328
      74Ap     3.581837    58App    3.582036    59App    3.671420
      75Ap     3.672800    76Ap     3.694828    60App    3.726308
      77Ap     3.726584    78Ap     3.781633    61App    3.782071
      79Ap     3.818255    80Ap     3.922248    62App    3.923686
      81Ap     4.047798    82Ap     4.120476    63App    4.120985
      83Ap     4.158393    64App    4.158849    84Ap     4.190147
      85Ap     4.209995    65App    4.210836    86Ap     4.212058
      66App    4.219010    87Ap     4.324811    67App    4.326318
      68App    4.364752    88Ap     4.434318    69App    4.435988
      70App    4.448453    89Ap     4.526392    71App    4.527699
      90Ap     4.590284    72App    4.590349    91Ap     4.625395
      92Ap     4.721827    73App    4.782992    93Ap     4.783603
      74App    4.842163    94Ap     4.968412    75App    5.007369
      95Ap     5.008834    96Ap     5.239023    97Ap     5.253691
      76App    5.254079    98Ap     5.366466    77App    5.366643
      78App    5.484901

    Final Occupation by Irrep:
             Ap   App
    DOCC [    10,    6 ]
    SOCC [     1,    0 ]

  @DF-UKS Final Energy:  -157.81302085290835

   => Energetics <=

    Nuclear Repulsion Energy =            125.4320207433710124
    One-Electron Energy =                -458.8197698099829154
    Two-Electron Energy =                 195.8859009584254807
    DFT Exchange-Correlation Energy =     -20.3111727447219543
    Empirical Dispersion Energy =           0.0000000000000000
    VV10 Nonlocal Energy =                  0.0000000000000000
    Total Energy =                       -157.8130208529083518

  UHF NO Occupations:
  HONO-2 :    9 Ap 1.9996034
  HONO-1 :   10 Ap 1.9989797
  HONO-0 :   11 Ap 1.0000000
  LUNO+0 :   12 Ap 0.0010203
  LUNO+1 :   13 Ap 0.0003966
  LUNO+2 :   14 Ap 0.0001983
  LUNO+3 :    7App 0.0001975

Computation Completed

Properties will be evaluated at   0.000000,   0.000000,   0.000000 [a0]

Properties computed using the SCF density matrix

  Nuclear Dipole Moment: [e a0]
     X:     0.8268      Y:    -0.0033      Z:    -0.0000

  Electronic Dipole Moment: [e a0]
     X:    -0.7482      Y:     0.0034      Z:     0.0000

  Dipole Moment: [e a0]
     X:     0.0785      Y:     0.0001      Z:    -0.0000     Total:     0.0785

  Dipole Moment: [D]
     X:     0.1996      Y:     0.0002      Z:    -0.0000     Total:     0.1996

*** tstop() called on n049 at Fri Nov  5 12:59:37 2021
Module time:
	user time   =     542.17 seconds =       9.04 minutes
	system time =      11.81 seconds =       0.20 minutes
	total time  =        139 seconds =       2.32 minutes
Total time:
	user time   =     542.17 seconds =       9.04 minutes
	system time =      11.81 seconds =       0.20 minutes
	total time  =        139 seconds =       2.32 minutes
Grab this energy -157.81302085290835
    Psi4 stopped on: Friday, 05 November 2021 12:59PM
    Psi4 wall time for execution: 0:02:19.32

*** Psi4 exiting successfully. Buy a developer a beer!
