                               Psi4 1.4a2.dev629

  ==> Input File <==

--------------------------------------------------------------------------
import os
memory 14 GB

molecule {
 C   -0.3233175879   -0.0000015694    0.0002257238
 C    0.0613783554   -1.4023982090   -2.4285314264
 C    0.0611137374    2.8024188019    0.0004839877
 C    0.0610883196   -1.4000150807    2.4253712056
 H    2.0838528572   -1.6439038037   -2.8472890604
 H   -0.7639601836   -0.3900949769   -4.0235044278
 H   -0.7641839848   -3.2892771804   -2.3496781833
 H    2.0836460933    3.2884624282   -0.0001829961
 H   -0.7641816356    3.6800653218    1.6736212432
 H   -0.7640599063    3.6800428969   -1.6738033600
 H    2.0837122663   -1.6446517800    2.8482188155
 H   -0.7638991577   -3.2896905679    2.3507444964
 H   -0.7637970500   -0.3909805943    4.0243239818
units bohr
0 2
}

basis {

assign 6-31g_2dfp_

[ 6-31g_2dfp_ ]

spherical

!----------------------------------------------------------------------
! Basis Set Exchange
! Version v0.8.13
! https://www.basissetexchange.org
!----------------------------------------------------------------------
!   Basis set: 6-31G(2df,p)
! Description: 6-31G(2df,p)
!        Role: orbital
!     Version: 0  (Data from the original Basis Set Exchange)
!----------------------------------------------------------------------

****
H     0
S    3   1.00
     18.7311370              0.03349460
      2.8253937              0.23472695
      0.6401217              0.81375733
S    1   1.00
      0.1612778              1.00000000
P    1   1.00
      1.5000000              1.0000000
P    1   1.00
      0.3750000              1.0000000
****
B     0
S    6   1.00
   2068.8823000              0.0018663
    310.6495700              0.0142515
     70.6830330              0.0695516
     19.8610800              0.2325729
      6.2993048              0.4670787
      2.1270270              0.3634314
SP   3   1.00
      4.7279710             -0.1303938              0.0745976
      1.1903377             -0.1307889              0.3078467
      0.3594117              1.1309444              0.7434568
SP   1   1.00
      0.1267512              1.0000000              1.0000000
D    1   1.00
      0.8020000              1.0000000
D    1   1.00
      0.2005000              1.0000000
F    1   1.00
      0.5000000              1.0000000
****
C     0
S    6   1.00
   3047.5249000              0.0018347
    457.3695100              0.0140373
    103.9486900              0.0688426
     29.2101550              0.2321844
      9.2866630              0.4679413
      3.1639270              0.3623120
SP   3   1.00
      7.8682724             -0.1193324              0.0689991
      1.8812885             -0.1608542              0.3164240
      0.5442493              1.1434564              0.7443083
SP   1   1.00
      0.1687144              1.0000000              1.0000000
D    1   1.00
      1.2520000              1.0000000
D    1   1.00
      0.3130000              1.0000000
F    1   1.00
      0.8000000              1.0000000
****
N     0
S    6   1.00
   4173.5110000              0.0018348
    627.4579000              0.0139950
    142.9021000              0.0685870
     40.2343300              0.2322410
     12.8202100              0.4690700
      4.3904370              0.3604550
SP   3   1.00
     11.6263580             -0.1149610              0.0675800
      2.7162800             -0.1691180              0.3239070
      0.7722180              1.1458520              0.7408950
SP   1   1.00
      0.2120313              1.0000000              1.0000000
D    1   1.00
      1.8260000              1.0000000
D    1   1.00
      0.4565000              1.0000000
F    1   1.00
      1.0000000              1.0000000
****
O     0
S    6   1.00
   5484.6717000              0.0018311
    825.2349500              0.0139501
    188.0469600              0.0684451
     52.9645000              0.2327143
     16.8975700              0.4701930
      5.7996353              0.3585209
SP   3   1.00
     15.5396160             -0.1107775              0.0708743
      3.5999336             -0.1480263              0.3397528
      1.0137618              1.1307670              0.7271586
SP   1   1.00
      0.2700058              1.0000000              1.0000000
D    1   1.00
      2.5840000              1.0000000
D    1   1.00
      0.6460000              1.0000000
F    1   1.00
      1.4000000              1.0000000
****
F     0
S    6   1.00
   7001.7130900              0.0018196169
   1051.3660900              0.0139160796
    239.2856900              0.0684053245
     67.3974453              0.233185760
     21.5199573              0.471267439
      7.40310130             0.356618546
SP   3   1.00
     20.8479528             -0.108506975            0.0716287243
      4.80830834            -0.146451658            0.3459121030
      1.34406986             1.128688580            0.7224699570
SP   1   1.00
      0.358151393            1.0000000              1.0000000
D    1   1.00
      3.5000000              1.0000000
D    1   1.00
      0.8750000              1.0000000
F    1   1.00
      1.8500000              1.0000000
****
Al     0
S    6   1.00
  13983.1000000              0.00194267
   2098.7500000              0.0148599
    477.7050000              0.0728494
    134.3600000              0.2468300
     42.8709000              0.4872580
     14.5189000              0.3234960
SP   6   1.00
    239.6680000             -0.00292619             0.00460285
     57.4419000             -0.0374080              0.0331990
     18.2859000             -0.1144870              0.1362820
      6.5991400              0.1156350              0.3304760
      2.4904900              0.6125950              0.4491460
      0.9445400              0.3937990              0.2657040
SP   3   1.00
      1.2779000             -0.2276060             -0.0175130
      0.3975900              0.00144583             0.2445330
      0.1600950              1.0927900              0.8049340
SP   1   1.00
      0.0556577              1.0000000              1.0000000
D    1   1.00
      0.6500000              1.0000000
D    1   1.00
      0.1625000              1.0000000
F    1   1.00
      0.2500000              1.0000000
****
Si     0
S    6   1.00
  16115.9000000              0.00195948
   2425.5800000              0.01492880
    553.8670000              0.07284780
    156.3400000              0.24613000
     50.0683000              0.48591400
     17.0178000              0.32500200
SP   6   1.00
    292.7180000             -0.00278094             0.00443826
     69.8731000             -0.03571460             0.03266790
     22.3363000             -0.11498500             0.13472100
      8.1503900              0.09356340             0.32867800
      3.1345800              0.60301700             0.44964000
      1.2254300              0.41895900             0.26137200
SP   3   1.00
      1.7273800             -0.24463000            -0.01779510
      0.5729220              0.00431572             0.25353900
      0.2221920              1.09818000             0.80066900
SP   1   1.00
      0.0778369              1.00000000             1.00000000
D    1   1.00
      0.9000000              1.0000000
D    1   1.00
      0.2250000              1.0000000
F    1   1.00
      0.3200000              1.0000000
****
P     0
S    6   1.00
  19413.3000000              0.0018516
   2909.4200000              0.0142062
    661.3640000              0.0699995
    185.7590000              0.2400790
     59.1943000              0.4847620
     20.0310000              0.3352000
SP   6   1.00
    339.4780000             -0.00278217             0.00456462
     81.0101000             -0.0360499              0.03369360
     25.8780000             -0.1166310              0.13975500
      9.4522100              0.0968328              0.33936200
      3.6656600              0.6144180              0.45092100
      1.4674600              0.4037980              0.23858600
SP   3   1.00
      2.1562300             -0.2529230             -0.01776530
      0.7489970              0.0328517              0.27405800
      0.2831450              1.0812500              0.78542100
SP   1   1.00
      0.0998317              1.0000000              1.00000000
D    1   1.00
      1.1000000              1.0000000
D    1   1.00
      0.2750000              1.0000000
F    1   1.00
      0.4500000              1.0000000
****
S     0
S    6   1.00
  21917.1000000              0.0018690
   3301.4900000              0.0142300
    754.1460000              0.0696960
    212.7110000              0.2384870
     67.9896000              0.4833070
     23.0515000              0.3380740
SP   6   1.00
    423.7350000             -0.0023767              0.0040610
    100.7100000             -0.0316930              0.0306810
     32.1599000             -0.1133170              0.1304520
     11.8079000              0.0560900              0.3272050
      4.6311000              0.5922550              0.4528510
      1.8702500              0.4550060              0.2560420
SP   3   1.00
      2.6158400             -0.2503740             -0.0145110
      0.9221670              0.0669570              0.3102630
      0.3412870              1.0545100              0.7544830
SP   1   1.00
      0.1171670              1.0000000              1.0000000
D    1   1.00
      1.3000000              1.0000000
D    1   1.00
      0.3250000              1.0000000
F    1   1.00
      0.5500000              1.0000000
****
Cl     0
S    6   1.00
  25180.1000000              0.0018330
   3780.3500000              0.0140340
    860.4740000              0.0690970
    242.1450000              0.2374520
     77.3349000              0.4830340
     26.2470000              0.3398560
SP   6   1.00
    491.7650000             -0.0022974              0.0039894
    116.9840000             -0.0307140              0.0303180
     37.4153000             -0.1125280              0.1298800
     13.7834000              0.0450160              0.3279510
      5.4521500              0.5893530              0.4535270
      2.2258800              0.4652060              0.2521540
SP   3   1.00
      3.1864900             -0.2518300             -0.0142990
      1.1442700              0.0615890              0.3235720
      0.4203770              1.0601800              0.7435070
SP   1   1.00
      0.1426570              1.0000000              1.0000000
D    1   1.00
      1.5000000              1.0000000
D    1   1.00
      0.3750000              1.0000000
F    1   1.00
      0.7000000              1.0000000
****
}

set {
reference uhf
freeze_core true
e_convergence 10
d_convergence 10
dft_spherical_points 1202
dft_radial_points 99
}

e = energy('b3lyp')

print_out('Grab this energy {0}'.format(e))
--------------------------------------------------------------------------

    Molecular point group: c1

    Geometry (in Bohr), charge = 0, multiplicity = 2:

       Center              X                  Y                   Z               Mass
    ------------   -----------------  -----------------  -----------------  -----------------
         C           -0.323375911161    -0.000001899452     0.000697709541    12.000000000000
         C            0.061320032139    -1.402398539052    -2.428059440659    12.000000000000
         C            0.061055414139     2.802418471848     0.000955973441    12.000000000000
         C            0.061029996339    -1.400015410752     2.425843191341    12.000000000000
         H            2.083794533939    -1.643904133752    -2.846817074659     1.007825032230
         H           -0.764018506861    -0.390095306952    -4.023032442059     1.007825032230
         H           -0.764242308061    -3.289277510452    -2.349206197559     1.007825032230
         H            2.083587770039     3.288462098148     0.000288989641     1.007825032230
         H           -0.764239958861     3.680064991748     1.674093228941     1.007825032230
         H           -0.764118229561     3.680042566848    -1.673331374259     1.007825032230
         H            2.083653943039    -1.644652110052     2.848690801241     1.007825032230
         H           -0.763957480961    -3.289690897952     2.351216482141     1.007825032230
         H           -0.763855373261    -0.390980924352     4.024795967541     1.007825032230

  Charge       = 0
  Multiplicity = 2
  Basis Set: ANONYMOUS257C6D39
    Blend: 6-31G_2DFP_
  Basis Set: (ANONYMOUS257C6D39 AUX)
    Blend: DEF2-UNIVERSAL-JKFIT

    Orbital Energies [Eh]
    ---------------------

    Alpha Occupied:

       1A    -10.180274     2A    -10.166522     3A    -10.166483
       4A    -10.166432     5A     -0.797727     6A     -0.686570
       7A     -0.686524     8A     -0.531087     9A     -0.441224
      10A     -0.434892    11A     -0.434728    12A     -0.382948
      13A     -0.382767    14A     -0.363928    15A     -0.338212
      16A     -0.337796    17A     -0.168899

    Alpha Virtual:

      18A      0.076404    19A      0.134501    20A      0.134540
      21A      0.142973    22A      0.143105    23A      0.155178
      24A      0.179203    25A      0.179367    26A      0.203435
      27A      0.215257    28A      0.275784    29A      0.276234
      30A      0.399163    31A      0.399182    32A      0.403553
      33A      0.424326    34A      0.424416    35A      0.456725
      36A      0.495591    37A      0.495636    38A      0.512432
      39A      0.514113    40A      0.579113    41A      0.579189
      42A      0.592176    43A      0.592297    44A      0.603226
      45A      0.625742    46A      0.632475    47A      0.636647
      48A      0.636978    49A      0.663688    50A      0.663810
      51A      0.684383    52A      0.684429    53A      0.735304
      54A      0.826171    55A      0.826280    56A      0.854431
      57A      0.915723    58A      0.915755    59A      0.944753
      60A      0.945404    61A      0.961914    62A      0.961981
      63A      1.003551    64A      1.128454    65A      1.128601
      66A      1.143098    67A      1.163238    68A      1.163812
      69A      1.223767    70A      1.274714    71A      1.275320
      72A      1.278921    73A      1.324999    74A      1.325131
      75A      1.356849    76A      1.366404    77A      1.366708
      78A      1.393029    79A      1.404900    80A      1.405249
      81A      1.417883    82A      1.418189    83A      1.428674
      84A      1.492387    85A      1.500431    86A      1.543242
      87A      1.543390    88A      1.574450    89A      1.574832
      90A      1.671980    91A      1.740718    92A      1.740987
      93A      1.769847    94A      1.833385    95A      1.834404
      96A      1.973357    97A      2.019308    98A      2.019762
      99A      2.020802   100A      2.053045   101A      2.054404
     102A      2.739344   103A      2.739585   104A      2.791136
     105A      2.811940   106A      2.890434   107A      2.890585
     108A      2.895024   109A      2.929823   110A      2.929949
     111A      2.959621   112A      2.964961   113A      2.965117
     114A      3.034923   115A      3.072103   116A      3.072375
     117A      3.085283   118A      3.167929   119A      3.168306
     120A      3.180903   121A      3.285272   122A      3.285288
     123A      3.326471   124A      3.326842   125A      3.374912
     126A      3.488834   127A      3.489485   128A      3.513728
     129A      3.524718   130A      3.568485   131A      3.568670
     132A      3.573477   133A      3.666400   134A      3.667742
     135A      3.681467   136A      3.694861   137A      3.695111
     138A      3.777178   139A      3.777508   140A      3.789680
     141A      3.912399   142A      3.913931   143A      4.036786
     144A      4.113686   145A      4.113993   146A      4.151124
     147A      4.151764   148A      4.176234   149A      4.203780
     150A      4.204348   151A      4.205001   152A      4.214563
     153A      4.317481   154A      4.318933   155A      4.361399
     156A      4.426051   157A      4.427921   158A      4.445545
     159A      4.518611   160A      4.519922   161A      4.579728
     162A      4.579769   163A      4.618209   164A      4.711487
     165A      4.776033   166A      4.776664   167A      4.839240
     168A      4.963642   169A      5.003359   170A      5.004805
     171A      5.233331   172A      5.251904   173A      5.252309
     174A      5.360040   175A      5.360163   176A      5.482592

    Beta Occupied:

       1A    -10.167279     2A    -10.167239     3A    -10.167198
       4A    -10.166431     5A     -0.781080     6A     -0.684377
       7A     -0.684319     8A     -0.512000     9A     -0.431273
      10A     -0.431106    11A     -0.421957    12A     -0.377061
      13A     -0.376841    14A     -0.362915    15A     -0.333327
      16A     -0.332909

    Beta Virtual:

      17A     -0.025510    18A      0.077409    19A      0.135417
      20A      0.135419    21A      0.144833    22A      0.144931
      23A      0.163575    24A      0.182877    25A      0.183016
      26A      0.215485    27A      0.218837    28A      0.282150
      29A      0.282583    30A      0.400331    31A      0.400345
      32A      0.420013    33A      0.427139    34A      0.427230
      35A      0.468614    36A      0.497845    37A      0.497902
      38A      0.514161    39A      0.556516    40A      0.584675
      41A      0.584762    42A      0.598376    43A      0.598497
      44A      0.610638    45A      0.629106    46A      0.632626
      47A      0.639915    48A      0.640237    49A      0.667250
      50A      0.667384    51A      0.686995    52A      0.687017
      53A      0.757852    54A      0.831333    55A      0.831451
      56A      0.855760    57A      0.923678    58A      0.923714
      59A      0.946589    60A      0.954356    61A      0.967215
      62A      0.967276    63A      1.008803    64A      1.132475
      65A      1.132613    66A      1.156460    67A      1.168323
      68A      1.168934    69A      1.232723    70A      1.280295
      71A      1.280909    72A      1.284662    73A      1.330029
      74A      1.330133    75A      1.366289    76A      1.371673
      77A      1.371921    78A      1.394082    79A      1.408412
      80A      1.408660    81A      1.422947    82A      1.423219
      83A      1.428938    84A      1.493440    85A      1.510875
      86A      1.547512    87A      1.547676    88A      1.582424
      89A      1.582817    90A      1.676902    91A      1.746482
      92A      1.746759    93A      1.780570    94A      1.837219
      95A      1.838219    96A      1.974212    97A      2.026089
      98A      2.027178    99A      2.040724   100A      2.059760
     101A      2.061121   102A      2.747715   103A      2.747911
     104A      2.812355   105A      2.816298   106A      2.903192
     107A      2.903298   108A      2.924762   109A      2.932269
     110A      2.932365   111A      2.960689   112A      2.969532
     113A      2.969716   114A      3.042778   115A      3.082077
     116A      3.082338   117A      3.087108   118A      3.183602
     119A      3.184007   120A      3.188671   121A      3.290006
     122A      3.290043   123A      3.330291   124A      3.330646
     125A      3.382755   126A      3.491588   127A      3.492282
     128A      3.512099   129A      3.527779   130A      3.573328
     131A      3.581826   132A      3.582047   133A      3.671404
     134A      3.672817   135A      3.694827   136A      3.726316
     137A      3.726576   138A      3.781644   139A      3.782060
     140A      3.818255   141A      3.922252   142A      3.923683
     143A      4.047798   144A      4.120475   145A      4.120985
     146A      4.158399   147A      4.158842   148A      4.190147
     149A      4.210021   150A      4.210784   151A      4.212085
     152A      4.219010   153A      4.324810   154A      4.326319
     155A      4.364752   156A      4.434255   157A      4.436060
     158A      4.448442   159A      4.526396   160A      4.527695
     161A      4.590281   162A      4.590352   163A      4.625395
     164A      4.721827   165A      4.783002   166A      4.783594
     167A      4.842163   168A      4.968411   169A      5.007393
     170A      5.008809   171A      5.239022   172A      5.253690
     173A      5.254080   174A      5.366472   175A      5.366637
     176A      5.484901

    Final Occupation by Irrep:
              A
    DOCC [    16 ]
    SOCC [     1 ]

  @DF-UKS Final Energy:  -157.81302085705624

   => Energetics <=

    Nuclear Repulsion Energy =            125.4320323194626212
    One-Electron Energy =                -458.8197926843888581
    Two-Electron Energy =                 195.8859121553938110
    DFT Exchange-Correlation Energy =     -20.3111726475238115
    Empirical Dispersion Energy =           0.0000000000000000
    VV10 Nonlocal Energy =                  0.0000000000000000
    Total Energy =                       -157.8130208570562445

  UHF NO Occupations:
  HONO-2 :   15  A 1.9996034
  HONO-1 :   16  A 1.9989797
  HONO-0 :   17  A 1.0000000
  LUNO+0 :   18  A 0.0010203
  LUNO+1 :   19  A 0.0003966
  LUNO+2 :   20  A 0.0001983
  LUNO+3 :   21  A 0.0001975

Computation Completed

Properties will be evaluated at   0.000000,   0.000000,   0.000000 [a0]

Properties computed using the SCF density matrix

  Nuclear Dipole Moment: [e a0]
     X:     0.8268      Y:    -0.0000      Z:     0.0033

  Electronic Dipole Moment: [e a0]
     X:    -0.7482      Y:     0.0000      Z:    -0.0034

  Dipole Moment: [e a0]
     X:     0.0785      Y:     0.0000      Z:    -0.0001     Total:     0.0785

  Dipole Moment: [D]
     X:     0.1996      Y:     0.0000      Z:    -0.0002     Total:     0.1996

*** tstop() called on n070 at Fri Nov  5 13:11:27 2021
Module time:
	user time   =     541.41 seconds =       9.02 minutes
	system time =      12.88 seconds =       0.21 minutes
	total time  =        141 seconds =       2.35 minutes
Total time:
	user time   =     541.41 seconds =       9.02 minutes
	system time =      12.88 seconds =       0.21 minutes
	total time  =        141 seconds =       2.35 minutes
Grab this energy -157.81302085705624
    Psi4 stopped on: Friday, 05 November 2021 01:11PM
    Psi4 wall time for execution: 0:02:20.38

*** Psi4 exiting successfully. Buy a developer a beer!
