                               Psi4 1.4a2.dev629

  ==> Input File <==

--------------------------------------------------------------------------
import os
memory 14 GB

molecule {
 C   -0.3233322395    0.0049906679    0.0002252652
 C    0.0615871413   -1.4047661187   -2.4218202051
 C    0.0604194498    2.8096676208    0.0004833889
 C    0.0612964680   -1.4023708222    2.4186671934
 H    2.0873922170   -1.6497779123   -2.8381715219
 H   -0.7625749353   -0.3962604770   -4.0231714581
 H   -0.7675685778   -3.2935016846   -2.3352784328
 H    2.0860221021    3.2972589006   -0.0001847549
 H   -0.7667640679    3.6881828935    1.6766042897
 H   -0.7666415634    3.6881592641   -1.6767885708
 H    2.0872515657   -1.6505328126    2.8391006316
 H   -0.7672843213   -3.2939221599    2.3363459263
 H   -0.7624111154   -0.3971516731    4.0239882485
units bohr
0 2
}

basis {

assign 6-31g_2dfp_

[ 6-31g_2dfp_ ]

spherical

!----------------------------------------------------------------------
! Basis Set Exchange
! Version v0.8.13
! https://www.basissetexchange.org
!----------------------------------------------------------------------
!   Basis set: 6-31G(2df,p)
! Description: 6-31G(2df,p)
!        Role: orbital
!     Version: 0  (Data from the original Basis Set Exchange)
!----------------------------------------------------------------------

****
H     0
S    3   1.00
     18.7311370              0.03349460
      2.8253937              0.23472695
      0.6401217              0.81375733
S    1   1.00
      0.1612778              1.00000000
P    1   1.00
      1.5000000              1.0000000
P    1   1.00
      0.3750000              1.0000000
****
B     0
S    6   1.00
   2068.8823000              0.0018663
    310.6495700              0.0142515
     70.6830330              0.0695516
     19.8610800              0.2325729
      6.2993048              0.4670787
      2.1270270              0.3634314
SP   3   1.00
      4.7279710             -0.1303938              0.0745976
      1.1903377             -0.1307889              0.3078467
      0.3594117              1.1309444              0.7434568
SP   1   1.00
      0.1267512              1.0000000              1.0000000
D    1   1.00
      0.8020000              1.0000000
D    1   1.00
      0.2005000              1.0000000
F    1   1.00
      0.5000000              1.0000000
****
C     0
S    6   1.00
   3047.5249000              0.0018347
    457.3695100              0.0140373
    103.9486900              0.0688426
     29.2101550              0.2321844
      9.2866630              0.4679413
      3.1639270              0.3623120
SP   3   1.00
      7.8682724             -0.1193324              0.0689991
      1.8812885             -0.1608542              0.3164240
      0.5442493              1.1434564              0.7443083
SP   1   1.00
      0.1687144              1.0000000              1.0000000
D    1   1.00
      1.2520000              1.0000000
D    1   1.00
      0.3130000              1.0000000
F    1   1.00
      0.8000000              1.0000000
****
N     0
S    6   1.00
   4173.5110000              0.0018348
    627.4579000              0.0139950
    142.9021000              0.0685870
     40.2343300              0.2322410
     12.8202100              0.4690700
      4.3904370              0.3604550
SP   3   1.00
     11.6263580             -0.1149610              0.0675800
      2.7162800             -0.1691180              0.3239070
      0.7722180              1.1458520              0.7408950
SP   1   1.00
      0.2120313              1.0000000              1.0000000
D    1   1.00
      1.8260000              1.0000000
D    1   1.00
      0.4565000              1.0000000
F    1   1.00
      1.0000000              1.0000000
****
O     0
S    6   1.00
   5484.6717000              0.0018311
    825.2349500              0.0139501
    188.0469600              0.0684451
     52.9645000              0.2327143
     16.8975700              0.4701930
      5.7996353              0.3585209
SP   3   1.00
     15.5396160             -0.1107775              0.0708743
      3.5999336             -0.1480263              0.3397528
      1.0137618              1.1307670              0.7271586
SP   1   1.00
      0.2700058              1.0000000              1.0000000
D    1   1.00
      2.5840000              1.0000000
D    1   1.00
      0.6460000              1.0000000
F    1   1.00
      1.4000000              1.0000000
****
F     0
S    6   1.00
   7001.7130900              0.0018196169
   1051.3660900              0.0139160796
    239.2856900              0.0684053245
     67.3974453              0.233185760
     21.5199573              0.471267439
      7.40310130             0.356618546
SP   3   1.00
     20.8479528             -0.108506975            0.0716287243
      4.80830834            -0.146451658            0.3459121030
      1.34406986             1.128688580            0.7224699570
SP   1   1.00
      0.358151393            1.0000000              1.0000000
D    1   1.00
      3.5000000              1.0000000
D    1   1.00
      0.8750000              1.0000000
F    1   1.00
      1.8500000              1.0000000
****
Al     0
S    6   1.00
  13983.1000000              0.00194267
   2098.7500000              0.0148599
    477.7050000              0.0728494
    134.3600000              0.2468300
     42.8709000              0.4872580
     14.5189000              0.3234960
SP   6   1.00
    239.6680000             -0.00292619             0.00460285
     57.4419000             -0.0374080              0.0331990
     18.2859000             -0.1144870              0.1362820
      6.5991400              0.1156350              0.3304760
      2.4904900              0.6125950              0.4491460
      0.9445400              0.3937990              0.2657040
SP   3   1.00
      1.2779000             -0.2276060             -0.0175130
      0.3975900              0.00144583             0.2445330
      0.1600950              1.0927900              0.8049340
SP   1   1.00
      0.0556577              1.0000000              1.0000000
D    1   1.00
      0.6500000              1.0000000
D    1   1.00
      0.1625000              1.0000000
F    1   1.00
      0.2500000              1.0000000
****
Si     0
S    6   1.00
  16115.9000000              0.00195948
   2425.5800000              0.01492880
    553.8670000              0.07284780
    156.3400000              0.24613000
     50.0683000              0.48591400
     17.0178000              0.32500200
SP   6   1.00
    292.7180000             -0.00278094             0.00443826
     69.8731000             -0.03571460             0.03266790
     22.3363000             -0.11498500             0.13472100
      8.1503900              0.09356340             0.32867800
      3.1345800              0.60301700             0.44964000
      1.2254300              0.41895900             0.26137200
SP   3   1.00
      1.7273800             -0.24463000            -0.01779510
      0.5729220              0.00431572             0.25353900
      0.2221920              1.09818000             0.80066900
SP   1   1.00
      0.0778369              1.00000000             1.00000000
D    1   1.00
      0.9000000              1.0000000
D    1   1.00
      0.2250000              1.0000000
F    1   1.00
      0.3200000              1.0000000
****
P     0
S    6   1.00
  19413.3000000              0.0018516
   2909.4200000              0.0142062
    661.3640000              0.0699995
    185.7590000              0.2400790
     59.1943000              0.4847620
     20.0310000              0.3352000
SP   6   1.00
    339.4780000             -0.00278217             0.00456462
     81.0101000             -0.0360499              0.03369360
     25.8780000             -0.1166310              0.13975500
      9.4522100              0.0968328              0.33936200
      3.6656600              0.6144180              0.45092100
      1.4674600              0.4037980              0.23858600
SP   3   1.00
      2.1562300             -0.2529230             -0.01776530
      0.7489970              0.0328517              0.27405800
      0.2831450              1.0812500              0.78542100
SP   1   1.00
      0.0998317              1.0000000              1.00000000
D    1   1.00
      1.1000000              1.0000000
D    1   1.00
      0.2750000              1.0000000
F    1   1.00
      0.4500000              1.0000000
****
S     0
S    6   1.00
  21917.1000000              0.0018690
   3301.4900000              0.0142300
    754.1460000              0.0696960
    212.7110000              0.2384870
     67.9896000              0.4833070
     23.0515000              0.3380740
SP   6   1.00
    423.7350000             -0.0023767              0.0040610
    100.7100000             -0.0316930              0.0306810
     32.1599000             -0.1133170              0.1304520
     11.8079000              0.0560900              0.3272050
      4.6311000              0.5922550              0.4528510
      1.8702500              0.4550060              0.2560420
SP   3   1.00
      2.6158400             -0.2503740             -0.0145110
      0.9221670              0.0669570              0.3102630
      0.3412870              1.0545100              0.7544830
SP   1   1.00
      0.1171670              1.0000000              1.0000000
D    1   1.00
      1.3000000              1.0000000
D    1   1.00
      0.3250000              1.0000000
F    1   1.00
      0.5500000              1.0000000
****
Cl     0
S    6   1.00
  25180.1000000              0.0018330
   3780.3500000              0.0140340
    860.4740000              0.0690970
    242.1450000              0.2374520
     77.3349000              0.4830340
     26.2470000              0.3398560
SP   6   1.00
    491.7650000             -0.0022974              0.0039894
    116.9840000             -0.0307140              0.0303180
     37.4153000             -0.1125280              0.1298800
     13.7834000              0.0450160              0.3279510
      5.4521500              0.5893530              0.4535270
      2.2258800              0.4652060              0.2521540
SP   3   1.00
      3.1864900             -0.2518300             -0.0142990
      1.1442700              0.0615890              0.3235720
      0.4203770              1.0601800              0.7435070
SP   1   1.00
      0.1426570              1.0000000              1.0000000
D    1   1.00
      1.5000000              1.0000000
D    1   1.00
      0.3750000              1.0000000
F    1   1.00
      0.7000000              1.0000000
****
}

set {
reference uhf
freeze_core true
e_convergence 10
d_convergence 10
dft_spherical_points 1202
dft_radial_points 99
}

e = energy('b3lyp')

print_out('Grab this energy {0}'.format(e))
--------------------------------------------------------------------------

    Molecular point group: c1

    Geometry (in Bohr), charge = 0, multiplicity = 2:

       Center              X                  Y                   Z               Mass
    ------------   -----------------  -----------------  -----------------  -----------------
         C           -0.323334320514     0.003542431500     0.000696066080    12.000000000000
         C            0.061585060286    -1.406214355100    -2.421349404220    12.000000000000
         C            0.060417368786     2.808219384400     0.000954189780    12.000000000000
         C            0.061294386986    -1.403819058600     2.419137994280    12.000000000000
         H            2.087390135986    -1.651226148700    -2.837700721020     1.007825032230
         H           -0.762577016314    -0.397708713400    -4.022700657220     1.007825032230
         H           -0.767570658814    -3.294949921000    -2.334807631920     1.007825032230
         H            2.086020021086     3.295810664200     0.000286045980     1.007825032230
         H           -0.766766148914     3.686734657100     1.677075090580     1.007825032230
         H           -0.766643644414     3.686711027700    -1.676317769920     1.007825032230
         H            2.087249484686    -1.651981049000     2.839571432480     1.007825032230
         H           -0.767286402314    -3.295370396300     2.336816727180     1.007825032230
         H           -0.762413196414    -0.398599909500     4.024459049380     1.007825032230

  Charge       = 0
  Multiplicity = 2
  Basis Set: ANONYMOUS26A62DC5
    Blend: 6-31G_2DFP_
  Basis Set: (ANONYMOUS26A62DC5 AUX)
    Blend: DEF2-UNIVERSAL-JKFIT

    Orbital Energies [Eh]
    ---------------------

    Alpha Occupied:

       1A    -10.180341     2A    -10.167329     3A    -10.166898
       4A    -10.166818     5A     -0.797770     6A     -0.686408
       7A     -0.685963     8A     -0.530777     9A     -0.441126
      10A     -0.434948    11A     -0.434394    12A     -0.382770
      13A     -0.382427    14A     -0.363612    15A     -0.338344
      16A     -0.337650    17A     -0.168961

    Alpha Virtual:

      18A      0.076072    19A      0.133913    20A      0.134396
      21A      0.142476    22A      0.142781    23A      0.154880
      24A      0.178540    25A      0.179018    26A      0.203543
      27A      0.214807    28A      0.275704    29A      0.276269
      30A      0.399023    31A      0.399369    32A      0.403413
      33A      0.423960    34A      0.424244    35A      0.456595
      36A      0.494983    37A      0.495786    38A      0.512172
      39A      0.513988    40A      0.578542    41A      0.579062
      42A      0.591574    43A      0.591704    44A      0.602576
      45A      0.624767    46A      0.631765    47A      0.635972
      48A      0.636531    49A      0.663187    50A      0.663640
      51A      0.683608    52A      0.684101    53A      0.734993
      54A      0.824579    55A      0.826223    56A      0.853914
      57A      0.914778    58A      0.915277    59A      0.944048
      60A      0.944518    61A      0.961127    62A      0.961666
      63A      1.003469    64A      1.126941    65A      1.129292
      66A      1.142220    67A      1.162696    68A      1.163838
      69A      1.223332    70A      1.273907    71A      1.275069
      72A      1.279375    73A      1.324244    74A      1.324465
      75A      1.355991    76A      1.365322    77A      1.366734
      78A      1.392434    79A      1.403242    80A      1.404919
      81A      1.416603    82A      1.417634    83A      1.427941
      84A      1.491433    85A      1.499064    86A      1.542448
      87A      1.543217    88A      1.572585    89A      1.576416
      90A      1.669817    91A      1.738318    92A      1.740489
      93A      1.768345    94A      1.830683    95A      1.832127
      96A      1.971726    97A      2.017482    98A      2.018278
      99A      2.020599   100A      2.050038   101A      2.055348
     102A      2.738192   103A      2.738777   104A      2.790921
     105A      2.811439   106A      2.889830   107A      2.890062
     108A      2.894952   109A      2.929301   110A      2.929684
     111A      2.958989   112A      2.963470   113A      2.965313
     114A      3.034011   115A      3.070290   116A      3.072248
     117A      3.084385   118A      3.167986   119A      3.169598
     120A      3.180582   121A      3.284601   122A      3.286012
     123A      3.326191   124A      3.328140   125A      3.375661
     126A      3.489550   127A      3.490689   128A      3.514034
     129A      3.525301   130A      3.567311   131A      3.569310
     132A      3.575398   133A      3.665695   134A      3.667056
     135A      3.679671   136A      3.693654   137A      3.694567
     138A      3.775992   139A      3.777512   140A      3.789301
     141A      3.910621   142A      3.913840   143A      4.034472
     144A      4.110005   145A      4.112759   146A      4.146422
     147A      4.149782   148A      4.173235   149A      4.201355
     150A      4.202608   151A      4.204770   152A      4.210999
     153A      4.315224   154A      4.316652   155A      4.359003
     156A      4.423515   157A      4.425176   158A      4.443650
     159A      4.515762   160A      4.517949   161A      4.577198
     162A      4.579333   163A      4.617542   164A      4.709439
     165A      4.773259   166A      4.775907   167A      4.836961
     168A      4.962827   169A      5.001753   170A      5.004209
     171A      5.228025   172A      5.246560   173A      5.247085
     174A      5.354794   175A      5.356208   176A      5.479329

    Beta Occupied:

       1A    -10.168085     2A    -10.167660     3A    -10.167580
       4A    -10.166518     5A     -0.781095     6A     -0.684215
       7A     -0.683761     8A     -0.511748     9A     -0.431329
      10A     -0.430756    11A     -0.421823    12A     -0.376874
      13A     -0.376492    14A     -0.362595    15A     -0.333471
      16A     -0.332770

    Beta Virtual:

      17A     -0.025743    18A      0.077081    19A      0.134794
      20A      0.135296    21A      0.144358    22A      0.144640
      23A      0.163340    24A      0.182206    25A      0.182695
      26A      0.215037    27A      0.218925    28A      0.282052
      29A      0.282617    30A      0.400271    31A      0.400517
      32A      0.419799    33A      0.426757    34A      0.427070
      35A      0.468506    36A      0.497243    37A      0.498051
      38A      0.513908    39A      0.556328    40A      0.584121
      41A      0.584586    42A      0.597746    43A      0.597889
      44A      0.609997    45A      0.628148    46A      0.631925
      47A      0.639246    48A      0.639826    49A      0.666723
      50A      0.667229    51A      0.686192    52A      0.686789
      53A      0.757516    54A      0.829738    55A      0.831400
      56A      0.855268    57A      0.922734    58A      0.923262
      59A      0.945908    60A      0.953434    61A      0.966360
      62A      0.967040    63A      1.008707    64A      1.130980
      65A      1.133317    66A      1.155583    67A      1.167739
      68A      1.168949    69A      1.232302    70A      1.279500
      71A      1.280671    72A      1.285128    73A      1.329227
      74A      1.329461    75A      1.365407    76A      1.370468
      77A      1.372065    78A      1.393498    79A      1.406750
      80A      1.408350    81A      1.421649    82A      1.422674
      83A      1.428219    84A      1.492485    85A      1.509507
      86A      1.546747    87A      1.547729    88A      1.580610
      89A      1.584137    90A      1.674663    91A      1.744084
      92A      1.746247    93A      1.779124    94A      1.834532
      95A      1.835988    96A      1.972588    97A      2.023849
      98A      2.027043    99A      2.039629   100A      2.056847
     101A      2.061981   102A      2.746495   103A      2.747147
     104A      2.811851   105A      2.816056   106A      2.902560
     107A      2.902714   108A      2.924646   109A      2.931874
     110A      2.932082   111A      2.960055   112A      2.968043
     113A      2.969822   114A      3.041947   115A      3.080091
     116A      3.082103   117A      3.086375   118A      3.183844
     119A      3.185156   120A      3.188333   121A      3.289467
     122A      3.290749   123A      3.329991   124A      3.331951
     125A      3.383478   126A      3.492270   127A      3.493421
     128A      3.512411   129A      3.528356   130A      3.574799
     131A      3.580654   132A      3.583098   133A      3.670411
     134A      3.671839   135A      3.692967   136A      3.725321
     137A      3.726152   138A      3.780486   139A      3.782152
     140A      3.817762   141A      3.920460   142A      3.923634
     143A      4.045360   144A      4.116811   145A      4.119580
     146A      4.153702   147A      4.156925   148A      4.187293
     149A      4.207279   150A      4.210203   151A      4.211048
     152A      4.215520   153A      4.322636   154A      4.324118
     155A      4.362367   156A      4.431766   157A      4.433274
     158A      4.446621   159A      4.523631   160A      4.525651
     161A      4.587720   162A      4.590014   163A      4.624735
     164A      4.719785   165A      4.780180   166A      4.782889
     167A      4.839882   168A      4.967622   169A      5.005802
     170A      5.008238   171A      5.233738   172A      5.248347
     173A      5.248870   174A      5.361255   175A      5.362709
     176A      5.481650

    Final Occupation by Irrep:
              A
    DOCC [    16 ]
    SOCC [     1 ]

  @DF-UKS Final Energy:  -157.81306271833176

   => Energetics <=

    Nuclear Repulsion Energy =            125.3948498242879026
    One-Electron Energy =                -458.7493468409564912
    Two-Electron Energy =                 195.8485801604685719
    DFT Exchange-Correlation Energy =     -20.3071458621317689
    Empirical Dispersion Energy =           0.0000000000000000
    VV10 Nonlocal Energy =                  0.0000000000000000
    Total Energy =                       -157.8130627183317642

  UHF NO Occupations:
  HONO-2 :   15  A 1.9996009
  HONO-1 :   16  A 1.9989804
  HONO-0 :   17  A 1.0000000
  LUNO+0 :   18  A 0.0010196
  LUNO+1 :   19  A 0.0003991
  LUNO+2 :   20  A 0.0001981
  LUNO+3 :   21  A 0.0001970

Computation Completed

Properties will be evaluated at   0.000000,   0.000000,   0.000000 [a0]

Properties computed using the SCF density matrix

  Nuclear Dipole Moment: [e a0]
     X:     0.8272      Y:    -0.0102      Z:     0.0033

  Electronic Dipole Moment: [e a0]
     X:    -0.7493      Y:     0.0110      Z:    -0.0034

  Dipole Moment: [e a0]
     X:     0.0779      Y:     0.0008      Z:    -0.0001     Total:     0.0779

  Dipole Moment: [D]
     X:     0.1980      Y:     0.0019      Z:    -0.0002     Total:     0.1980

*** tstop() called on n079 at Fri Nov  5 13:17:38 2021
Module time:
	user time   =     494.32 seconds =       8.24 minutes
	system time =       4.69 seconds =       0.08 minutes
	total time  =        126 seconds =       2.10 minutes
Total time:
	user time   =     494.32 seconds =       8.24 minutes
	system time =       4.69 seconds =       0.08 minutes
	total time  =        126 seconds =       2.10 minutes
Grab this energy -157.81306271833176
    Psi4 stopped on: Friday, 05 November 2021 01:17PM
    Psi4 wall time for execution: 0:02:05.46

*** Psi4 exiting successfully. Buy a developer a beer!
