                               Psi4 1.4a2.dev629

  ==> Input File <==

--------------------------------------------------------------------------
import os
memory 14 GB

molecule {
 C   -0.3233382865    0.0014513207    0.0000000000
 C    0.0606124044   -1.4013135162   -2.4264181677
 C    0.0620789709    2.8012583906   -0.0000000000
 C    0.0606124044   -1.4013135162    2.4264181677
 H    2.0874329414   -1.6409222061   -2.8492104886
 H   -0.7625722060   -0.3897464706   -4.0236437912
 H   -0.7685405142   -3.2936726618   -2.3490541358
 H    2.0858066658    3.2882079209   -0.0000000000
 H   -0.7655102391    3.6801838819    1.6773224029
 H   -0.7655102391    3.6801838819   -1.6773224029
 H    2.0874329414   -1.6409222061    2.8492104886
 H   -0.7685405142   -3.2936726618    2.3490541358
 H   -0.7625722060   -0.3897464706    4.0236437912
units bohr
0 2
}

basis {

assign 6-31g_2dfp_

[ 6-31g_2dfp_ ]

spherical

!----------------------------------------------------------------------
! Basis Set Exchange
! Version v0.8.13
! https://www.basissetexchange.org
!----------------------------------------------------------------------
!   Basis set: 6-31G(2df,p)
! Description: 6-31G(2df,p)
!        Role: orbital
!     Version: 0  (Data from the original Basis Set Exchange)
!----------------------------------------------------------------------

****
H     0
S    3   1.00
     18.7311370              0.03349460
      2.8253937              0.23472695
      0.6401217              0.81375733
S    1   1.00
      0.1612778              1.00000000
P    1   1.00
      1.5000000              1.0000000
P    1   1.00
      0.3750000              1.0000000
****
B     0
S    6   1.00
   2068.8823000              0.0018663
    310.6495700              0.0142515
     70.6830330              0.0695516
     19.8610800              0.2325729
      6.2993048              0.4670787
      2.1270270              0.3634314
SP   3   1.00
      4.7279710             -0.1303938              0.0745976
      1.1903377             -0.1307889              0.3078467
      0.3594117              1.1309444              0.7434568
SP   1   1.00
      0.1267512              1.0000000              1.0000000
D    1   1.00
      0.8020000              1.0000000
D    1   1.00
      0.2005000              1.0000000
F    1   1.00
      0.5000000              1.0000000
****
C     0
S    6   1.00
   3047.5249000              0.0018347
    457.3695100              0.0140373
    103.9486900              0.0688426
     29.2101550              0.2321844
      9.2866630              0.4679413
      3.1639270              0.3623120
SP   3   1.00
      7.8682724             -0.1193324              0.0689991
      1.8812885             -0.1608542              0.3164240
      0.5442493              1.1434564              0.7443083
SP   1   1.00
      0.1687144              1.0000000              1.0000000
D    1   1.00
      1.2520000              1.0000000
D    1   1.00
      0.3130000              1.0000000
F    1   1.00
      0.8000000              1.0000000
****
N     0
S    6   1.00
   4173.5110000              0.0018348
    627.4579000              0.0139950
    142.9021000              0.0685870
     40.2343300              0.2322410
     12.8202100              0.4690700
      4.3904370              0.3604550
SP   3   1.00
     11.6263580             -0.1149610              0.0675800
      2.7162800             -0.1691180              0.3239070
      0.7722180              1.1458520              0.7408950
SP   1   1.00
      0.2120313              1.0000000              1.0000000
D    1   1.00
      1.8260000              1.0000000
D    1   1.00
      0.4565000              1.0000000
F    1   1.00
      1.0000000              1.0000000
****
O     0
S    6   1.00
   5484.6717000              0.0018311
    825.2349500              0.0139501
    188.0469600              0.0684451
     52.9645000              0.2327143
     16.8975700              0.4701930
      5.7996353              0.3585209
SP   3   1.00
     15.5396160             -0.1107775              0.0708743
      3.5999336             -0.1480263              0.3397528
      1.0137618              1.1307670              0.7271586
SP   1   1.00
      0.2700058              1.0000000              1.0000000
D    1   1.00
      2.5840000              1.0000000
D    1   1.00
      0.6460000              1.0000000
F    1   1.00
      1.4000000              1.0000000
****
F     0
S    6   1.00
   7001.7130900              0.0018196169
   1051.3660900              0.0139160796
    239.2856900              0.0684053245
     67.3974453              0.233185760
     21.5199573              0.471267439
      7.40310130             0.356618546
SP   3   1.00
     20.8479528             -0.108506975            0.0716287243
      4.80830834            -0.146451658            0.3459121030
      1.34406986             1.128688580            0.7224699570
SP   1   1.00
      0.358151393            1.0000000              1.0000000
D    1   1.00
      3.5000000              1.0000000
D    1   1.00
      0.8750000              1.0000000
F    1   1.00
      1.8500000              1.0000000
****
Al     0
S    6   1.00
  13983.1000000              0.00194267
   2098.7500000              0.0148599
    477.7050000              0.0728494
    134.3600000              0.2468300
     42.8709000              0.4872580
     14.5189000              0.3234960
SP   6   1.00
    239.6680000             -0.00292619             0.00460285
     57.4419000             -0.0374080              0.0331990
     18.2859000             -0.1144870              0.1362820
      6.5991400              0.1156350              0.3304760
      2.4904900              0.6125950              0.4491460
      0.9445400              0.3937990              0.2657040
SP   3   1.00
      1.2779000             -0.2276060             -0.0175130
      0.3975900              0.00144583             0.2445330
      0.1600950              1.0927900              0.8049340
SP   1   1.00
      0.0556577              1.0000000              1.0000000
D    1   1.00
      0.6500000              1.0000000
D    1   1.00
      0.1625000              1.0000000
F    1   1.00
      0.2500000              1.0000000
****
Si     0
S    6   1.00
  16115.9000000              0.00195948
   2425.5800000              0.01492880
    553.8670000              0.07284780
    156.3400000              0.24613000
     50.0683000              0.48591400
     17.0178000              0.32500200
SP   6   1.00
    292.7180000             -0.00278094             0.00443826
     69.8731000             -0.03571460             0.03266790
     22.3363000             -0.11498500             0.13472100
      8.1503900              0.09356340             0.32867800
      3.1345800              0.60301700             0.44964000
      1.2254300              0.41895900             0.26137200
SP   3   1.00
      1.7273800             -0.24463000            -0.01779510
      0.5729220              0.00431572             0.25353900
      0.2221920              1.09818000             0.80066900
SP   1   1.00
      0.0778369              1.00000000             1.00000000
D    1   1.00
      0.9000000              1.0000000
D    1   1.00
      0.2250000              1.0000000
F    1   1.00
      0.3200000              1.0000000
****
P     0
S    6   1.00
  19413.3000000              0.0018516
   2909.4200000              0.0142062
    661.3640000              0.0699995
    185.7590000              0.2400790
     59.1943000              0.4847620
     20.0310000              0.3352000
SP   6   1.00
    339.4780000             -0.00278217             0.00456462
     81.0101000             -0.0360499              0.03369360
     25.8780000             -0.1166310              0.13975500
      9.4522100              0.0968328              0.33936200
      3.6656600              0.6144180              0.45092100
      1.4674600              0.4037980              0.23858600
SP   3   1.00
      2.1562300             -0.2529230             -0.01776530
      0.7489970              0.0328517              0.27405800
      0.2831450              1.0812500              0.78542100
SP   1   1.00
      0.0998317              1.0000000              1.00000000
D    1   1.00
      1.1000000              1.0000000
D    1   1.00
      0.2750000              1.0000000
F    1   1.00
      0.4500000              1.0000000
****
S     0
S    6   1.00
  21917.1000000              0.0018690
   3301.4900000              0.0142300
    754.1460000              0.0696960
    212.7110000              0.2384870
     67.9896000              0.4833070
     23.0515000              0.3380740
SP   6   1.00
    423.7350000             -0.0023767              0.0040610
    100.7100000             -0.0316930              0.0306810
     32.1599000             -0.1133170              0.1304520
     11.8079000              0.0560900              0.3272050
      4.6311000              0.5922550              0.4528510
      1.8702500              0.4550060              0.2560420
SP   3   1.00
      2.6158400             -0.2503740             -0.0145110
      0.9221670              0.0669570              0.3102630
      0.3412870              1.0545100              0.7544830
SP   1   1.00
      0.1171670              1.0000000              1.0000000
D    1   1.00
      1.3000000              1.0000000
D    1   1.00
      0.3250000              1.0000000
F    1   1.00
      0.5500000              1.0000000
****
Cl     0
S    6   1.00
  25180.1000000              0.0018330
   3780.3500000              0.0140340
    860.4740000              0.0690970
    242.1450000              0.2374520
     77.3349000              0.4830340
     26.2470000              0.3398560
SP   6   1.00
    491.7650000             -0.0022974              0.0039894
    116.9840000             -0.0307140              0.0303180
     37.4153000             -0.1125280              0.1298800
     13.7834000              0.0450160              0.3279510
      5.4521500              0.5893530              0.4535270
      2.2258800              0.4652060              0.2521540
SP   3   1.00
      3.1864900             -0.2518300             -0.0142990
      1.1442700              0.0615890              0.3235720
      0.4203770              1.0601800              0.7435070
SP   1   1.00
      0.1426570              1.0000000              1.0000000
D    1   1.00
      1.5000000              1.0000000
D    1   1.00
      0.3750000              1.0000000
F    1   1.00
      0.7000000              1.0000000
****
}

set {
reference uhf
freeze_core true
e_convergence 10
d_convergence 10
dft_spherical_points 1202
dft_radial_points 99
}

e = energy('b3lyp')

print_out('Grab this energy {0}'.format(e))
--------------------------------------------------------------------------

    Molecular point group: cs

    Geometry (in Bohr), charge = 0, multiplicity = 2:

       Center              X                  Y                   Z               Mass
    ------------   -----------------  -----------------  -----------------  -----------------
         C           -0.323339341609     0.001435825507     0.000000000000    12.000000000000
         C            0.060611349291    -1.401329011393    -2.426418167700    12.000000000000
         C            0.062077915791     2.801242895407     0.000000000000    12.000000000000
         C            0.060611349291    -1.401329011393     2.426418167700    12.000000000000
         H            2.087431886291    -1.640937701293    -2.849210488600     1.007825032230
         H           -0.762573261109    -0.389761965793    -4.023643791200     1.007825032230
         H           -0.768541569309    -3.293688156993    -2.349054135800     1.007825032230
         H            2.085805610691     3.288192425707     0.000000000000     1.007825032230
         H           -0.765511294209     3.680168386707     1.677322402900     1.007825032230
         H           -0.765511294209     3.680168386707    -1.677322402900     1.007825032230
         H            2.087431886291    -1.640937701293     2.849210488600     1.007825032230
         H           -0.768541569309    -3.293688156993     2.349054135800     1.007825032230
         H           -0.762573261109    -0.389761965793     4.023643791200     1.007825032230

  Charge       = 0
  Multiplicity = 2
  Basis Set: ANONYMOUSCD0B4197
    Blend: 6-31G_2DFP_
  Basis Set: (ANONYMOUSCD0B4197 AUX)
    Blend: DEF2-UNIVERSAL-JKFIT

    Orbital Energies [Eh]
    ---------------------

    Alpha Occupied:

       1Ap   -10.180342     2Ap   -10.167059     1App  -10.167011
       3Ap   -10.166975     4Ap    -0.797766     5Ap    -0.686207
       2App   -0.686168     6Ap    -0.530777     7Ap    -0.441124
       8Ap    -0.434849     3App   -0.434493     9Ap    -0.382659
       4App   -0.382537     5App   -0.363612    10Ap    -0.338130
       6App   -0.337867    11Ap    -0.168960

    Alpha Virtual:

      12Ap     0.076071    13Ap     0.134079     7App    0.134231
       8App    0.142359    14Ap     0.142896    15Ap     0.154880
       9App    0.178735    16Ap     0.178822    17Ap     0.203546
      10App    0.214803    11App    0.275749    18Ap     0.276222
      19Ap     0.399088    12App    0.399369    20Ap     0.403345
      21Ap     0.423930    13App    0.424263    22Ap     0.456593
      23Ap     0.495304    14App    0.495476    15App    0.512160
      24Ap     0.513980    16App    0.578723    25Ap     0.578913
      17App    0.591473    26Ap     0.591793    27Ap     0.602573
      28Ap     0.624734    18App    0.631773    19App    0.635960
      29Ap     0.636562    20App    0.663113    30Ap     0.663712
      31Ap     0.683643    21App    0.684069    32Ap     0.734994
      22App    0.825157    33Ap     0.825658    23App    0.853915
      34Ap     0.914707    24App    0.915344    25App    0.944126
      35Ap     0.944609    36Ap     0.961281    26App    0.961304
      37Ap     1.003456    38Ap     1.127809    27App    1.128417
      39Ap     1.142206    40Ap     1.163193    28App    1.163355
      41Ap     1.223317    29App    1.274061    42Ap     1.274903
      43Ap     1.279367    30App    1.324082    44Ap     1.324616
      45Ap     1.355991    31App    1.365977    46Ap     1.366131
      32App    1.392458    33App    1.403773    47Ap     1.404342
      48Ap     1.416667    34App    1.417526    35App    1.427905
      36App    1.491500    49Ap     1.499074    37App    1.542696
      50Ap     1.542987    51Ap     1.574329    38App    1.574579
      52Ap     1.669834    39App    1.738611    53Ap     1.740163
      54Ap     1.768372    55Ap     1.830561    40App    1.832225
      41App    1.971743    56Ap     2.018040    42App    2.018884
      57Ap     2.019460    58Ap     2.052577    43App    2.052706
      44App    2.738256    59Ap     2.738714    60Ap     2.790923
      45App    2.811428    46App    2.889132    61Ap     2.890774
      62Ap     2.894936    47App    2.929309    63Ap     2.929685
      48App    2.958938    64Ap     2.964132    49App    2.964677
      65Ap     3.034013    66Ap     3.070884    50App    3.071618
      51App    3.084439    52App    3.168492    67Ap     3.169039
      68Ap     3.180621    53App    3.285250    69Ap     3.285367
      54App    3.326831    70Ap     3.327496    71Ap     3.375620
      72Ap     3.489928    55App    3.490388    56App    3.514009
      73Ap     3.525330    74Ap     3.567869    57App    3.568914
      58App    3.575129    59App    3.665743    75Ap     3.667079
      76Ap     3.679657    77Ap     3.693906    60App    3.694332
      61App    3.776707    78Ap     3.776884    79Ap     3.789129
      80Ap     3.911999    62App    3.912452    81Ap     4.034452
      63App    4.111025    82Ap     4.111652    83Ap     4.147952
      64App    4.148235    84Ap     4.173287    85Ap     4.202198
      86Ap     4.202793    65App    4.203727    66App    4.210978
      67App    4.315849    87Ap     4.316101    68App    4.358981
      88Ap     4.424433    69App    4.424477    70App    4.443430
      71App    4.515613    89Ap     4.518067    72App    4.577988
      90Ap     4.578554    91Ap     4.617565    92Ap     4.709430
      73App    4.773759    93Ap     4.775439    74App    4.836889
      94Ap     4.962870    75App    5.002874    95Ap     5.003043
      96Ap     5.227699    76App    5.246634    97Ap     5.247268
      77App    5.354205    98Ap     5.356811    78App    5.479395

    Beta Occupied:

       1Ap   -10.167815     1App  -10.167764     2Ap   -10.167744
       3Ap   -10.166519     4Ap    -0.781091     5Ap    -0.684005
       2App   -0.683975     6Ap    -0.511748     7Ap    -0.431213
       3App   -0.430870     8Ap    -0.421822     9Ap    -0.376747
       4App   -0.376619     5App   -0.362596    10Ap    -0.333257
       6App   -0.332986

    Beta Virtual:

      11Ap    -0.025742    12Ap     0.077080    13Ap     0.134956
       7App    0.135134     8App    0.144220    14Ap     0.144776
      15Ap     0.163339     9App    0.182395    16Ap     0.182505
      10App    0.215032    17Ap     0.218929    11App    0.282112
      18Ap     0.282555    19Ap     0.400254    12App    0.400542
      20Ap     0.419790    21Ap     0.426742    13App    0.427075
      22Ap     0.468501    23Ap     0.497561    14App    0.497739
      15App    0.513895    24Ap     0.556326    16App    0.584275
      25Ap     0.584462    17App    0.597619    26Ap     0.598004
      27Ap     0.609998    28Ap     0.628107    18App    0.631929
      19App    0.639271    29Ap     0.639827    20App    0.666688
      30Ap     0.667264    31Ap     0.686298    21App    0.686683
      32Ap     0.757518    22App    0.830334    33Ap     0.830817
      23App    0.855268    34Ap     0.922699    24App    0.923295
      25App    0.945962    35Ap     0.953536    36Ap     0.966560
      26App    0.966638    37Ap     1.008696    38Ap     1.131853
      27App    1.132429    39Ap     1.155574    40Ap     1.168272
      28App    1.168434    41Ap     1.232290    29App    1.279615
      42Ap     1.280537    43Ap     1.285127    30App    1.329062
      44Ap     1.329613    45Ap     1.365408    46Ap     1.371286
      31App    1.371309    32App    1.393515    33App    1.407206
      47Ap     1.407835    48Ap     1.421748    34App    1.422545
      35App    1.428178    36App    1.492551    49Ap     1.509518
      37App    1.547124    50Ap     1.547377    51Ap     1.582210
      38App    1.582437    52Ap     1.674682    39App    1.744360
      53Ap     1.745948    54Ap     1.779140    55Ap     1.834415
      40App    1.836082    41App    1.972603    42App    2.025297
      56Ap     2.025585    57Ap     2.039677    58Ap     2.059289
      43App    2.059429    44App    2.746586    59Ap     2.747056
      45App    2.811839    60Ap     2.816059    46App    2.901791
      61Ap     2.903491    62Ap     2.924643    47App    2.931799
      63Ap     2.932157    48App    2.960023    64Ap     2.968698
      49App    2.969178    65Ap     3.041948    66Ap     3.080803
      50App    3.081370    51App    3.086405    52App    3.184300
      67Ap     3.184642    68Ap     3.188393    53App    3.290091
      69Ap     3.290125    54App    3.330613    70Ap     3.331321
      71Ap     3.383439    72Ap     3.492687    55App    3.493090
      56App    3.512374    73Ap     3.528375    57App    3.574974
      74Ap     3.581176    58App    3.582304    59App    3.670522
      75Ap     3.671790    76Ap     3.692947    77Ap     3.725539
      60App    3.725971    61App    3.781142    78Ap     3.781509
      79Ap     3.817667    80Ap     3.921770    62App    3.922314
      81Ap     4.045339    63App    4.117630    82Ap     4.118680
      83Ap     4.154905    64App    4.155707    84Ap     4.187333
      85Ap     4.208287    65App    4.209605    86Ap     4.210652
      66App    4.215473    67App    4.323218    87Ap     4.323615
      68App    4.362342    88Ap     4.432632    69App    4.432710
      70App    4.446311    71App    4.523410    89Ap     4.525850
      72App    4.588580    90Ap     4.589165    91Ap     4.624757
      92Ap     4.719775    73App    4.780720    93Ap     4.782386
      74App    4.839805    94Ap     4.967665    75App    5.006916
      95Ap     5.007080    96Ap     5.233332    76App    5.248415
      97Ap     5.249141    77App    5.360674    98Ap     5.363298
      78App    5.481718

    Final Occupation by Irrep:
             Ap   App
    DOCC [    10,    6 ]
    SOCC [     1,    0 ]

  @DF-UKS Final Energy:  -157.81306475574385

   => Energetics <=

    Nuclear Repulsion Energy =            125.3946160100564242
    One-Electron Energy =                -458.7488884388526458
    Two-Electron Energy =                 195.8483513263115583
    DFT Exchange-Correlation Energy =     -20.3071436532591925
    Empirical Dispersion Energy =           0.0000000000000000
    VV10 Nonlocal Energy =                  0.0000000000000000
    Total Energy =                       -157.8130647557438522

  UHF NO Occupations:
  HONO-2 :    9 Ap 1.9996009
  HONO-1 :   10 Ap 1.9989805
  HONO-0 :   11 Ap 1.0000000
  LUNO+0 :   12 Ap 0.0010195
  LUNO+1 :   13 Ap 0.0003991
  LUNO+2 :    7App 0.0001979
  LUNO+3 :   14 Ap 0.0001971

Computation Completed

Properties will be evaluated at   0.000000,   0.000000,   0.000000 [a0]

Properties computed using the SCF density matrix

  Nuclear Dipole Moment: [e a0]
     X:     0.8272      Y:    -0.0001      Z:     0.0000

  Electronic Dipole Moment: [e a0]
     X:    -0.7493      Y:     0.0019      Z:     0.0000

  Dipole Moment: [e a0]
     X:     0.0779      Y:     0.0018      Z:     0.0000     Total:     0.0779

  Dipole Moment: [D]
     X:     0.1980      Y:     0.0045      Z:     0.0000     Total:     0.1981

*** tstop() called on n082 at Fri Nov  5 11:49:38 2021
Module time:
	user time   =     494.68 seconds =       8.24 minutes
	system time =       4.51 seconds =       0.08 minutes
	total time  =        126 seconds =       2.10 minutes
Total time:
	user time   =     494.68 seconds =       8.24 minutes
	system time =       4.51 seconds =       0.08 minutes
	total time  =        126 seconds =       2.10 minutes
Grab this energy -157.81306475574385
    Psi4 stopped on: Friday, 05 November 2021 11:49AM
    Psi4 wall time for execution: 0:02:05.54

*** Psi4 exiting successfully. Buy a developer a beer!
