                               Psi4 1.4a2.dev629

  ==> Input File <==

--------------------------------------------------------------------------
import os
memory 14 GB

molecule {
 C   -0.3233407432   -0.0058418480   -0.0000000000
 C    0.0603771561   -1.4020350462   -2.4257975983
 C    0.0625445615    2.8016074380   -0.0000000000
 C    0.0603771561   -1.4020350462    2.4257975983
 H    2.0891171049   -1.6432091773   -2.8473170008
 H   -0.7666473781   -0.3890081592   -4.0258952646
 H   -0.7661802431   -3.2892730267   -2.3487855939
 H    2.0824373814    3.2891900010   -0.0000000000
 H   -0.7637911779    3.6810354570    1.6792374396
 H   -0.7637911779    3.6810354570   -1.6792374396
 H    2.0891171049   -1.6432091773    2.8473170008
 H   -0.7661802431   -3.2892730267    2.3487855939
 H   -0.7666473781   -0.3890081592    4.0258952646
units bohr
0 2
}

basis {

assign 6-31g_2dfp_

[ 6-31g_2dfp_ ]

spherical

!----------------------------------------------------------------------
! Basis Set Exchange
! Version v0.8.13
! https://www.basissetexchange.org
!----------------------------------------------------------------------
!   Basis set: 6-31G(2df,p)
! Description: 6-31G(2df,p)
!        Role: orbital
!     Version: 0  (Data from the original Basis Set Exchange)
!----------------------------------------------------------------------

****
H     0
S    3   1.00
     18.7311370              0.03349460
      2.8253937              0.23472695
      0.6401217              0.81375733
S    1   1.00
      0.1612778              1.00000000
P    1   1.00
      1.5000000              1.0000000
P    1   1.00
      0.3750000              1.0000000
****
B     0
S    6   1.00
   2068.8823000              0.0018663
    310.6495700              0.0142515
     70.6830330              0.0695516
     19.8610800              0.2325729
      6.2993048              0.4670787
      2.1270270              0.3634314
SP   3   1.00
      4.7279710             -0.1303938              0.0745976
      1.1903377             -0.1307889              0.3078467
      0.3594117              1.1309444              0.7434568
SP   1   1.00
      0.1267512              1.0000000              1.0000000
D    1   1.00
      0.8020000              1.0000000
D    1   1.00
      0.2005000              1.0000000
F    1   1.00
      0.5000000              1.0000000
****
C     0
S    6   1.00
   3047.5249000              0.0018347
    457.3695100              0.0140373
    103.9486900              0.0688426
     29.2101550              0.2321844
      9.2866630              0.4679413
      3.1639270              0.3623120
SP   3   1.00
      7.8682724             -0.1193324              0.0689991
      1.8812885             -0.1608542              0.3164240
      0.5442493              1.1434564              0.7443083
SP   1   1.00
      0.1687144              1.0000000              1.0000000
D    1   1.00
      1.2520000              1.0000000
D    1   1.00
      0.3130000              1.0000000
F    1   1.00
      0.8000000              1.0000000
****
N     0
S    6   1.00
   4173.5110000              0.0018348
    627.4579000              0.0139950
    142.9021000              0.0685870
     40.2343300              0.2322410
     12.8202100              0.4690700
      4.3904370              0.3604550
SP   3   1.00
     11.6263580             -0.1149610              0.0675800
      2.7162800             -0.1691180              0.3239070
      0.7722180              1.1458520              0.7408950
SP   1   1.00
      0.2120313              1.0000000              1.0000000
D    1   1.00
      1.8260000              1.0000000
D    1   1.00
      0.4565000              1.0000000
F    1   1.00
      1.0000000              1.0000000
****
O     0
S    6   1.00
   5484.6717000              0.0018311
    825.2349500              0.0139501
    188.0469600              0.0684451
     52.9645000              0.2327143
     16.8975700              0.4701930
      5.7996353              0.3585209
SP   3   1.00
     15.5396160             -0.1107775              0.0708743
      3.5999336             -0.1480263              0.3397528
      1.0137618              1.1307670              0.7271586
SP   1   1.00
      0.2700058              1.0000000              1.0000000
D    1   1.00
      2.5840000              1.0000000
D    1   1.00
      0.6460000              1.0000000
F    1   1.00
      1.4000000              1.0000000
****
F     0
S    6   1.00
   7001.7130900              0.0018196169
   1051.3660900              0.0139160796
    239.2856900              0.0684053245
     67.3974453              0.233185760
     21.5199573              0.471267439
      7.40310130             0.356618546
SP   3   1.00
     20.8479528             -0.108506975            0.0716287243
      4.80830834            -0.146451658            0.3459121030
      1.34406986             1.128688580            0.7224699570
SP   1   1.00
      0.358151393            1.0000000              1.0000000
D    1   1.00
      3.5000000              1.0000000
D    1   1.00
      0.8750000              1.0000000
F    1   1.00
      1.8500000              1.0000000
****
Al     0
S    6   1.00
  13983.1000000              0.00194267
   2098.7500000              0.0148599
    477.7050000              0.0728494
    134.3600000              0.2468300
     42.8709000              0.4872580
     14.5189000              0.3234960
SP   6   1.00
    239.6680000             -0.00292619             0.00460285
     57.4419000             -0.0374080              0.0331990
     18.2859000             -0.1144870              0.1362820
      6.5991400              0.1156350              0.3304760
      2.4904900              0.6125950              0.4491460
      0.9445400              0.3937990              0.2657040
SP   3   1.00
      1.2779000             -0.2276060             -0.0175130
      0.3975900              0.00144583             0.2445330
      0.1600950              1.0927900              0.8049340
SP   1   1.00
      0.0556577              1.0000000              1.0000000
D    1   1.00
      0.6500000              1.0000000
D    1   1.00
      0.1625000              1.0000000
F    1   1.00
      0.2500000              1.0000000
****
Si     0
S    6   1.00
  16115.9000000              0.00195948
   2425.5800000              0.01492880
    553.8670000              0.07284780
    156.3400000              0.24613000
     50.0683000              0.48591400
     17.0178000              0.32500200
SP   6   1.00
    292.7180000             -0.00278094             0.00443826
     69.8731000             -0.03571460             0.03266790
     22.3363000             -0.11498500             0.13472100
      8.1503900              0.09356340             0.32867800
      3.1345800              0.60301700             0.44964000
      1.2254300              0.41895900             0.26137200
SP   3   1.00
      1.7273800             -0.24463000            -0.01779510
      0.5729220              0.00431572             0.25353900
      0.2221920              1.09818000             0.80066900
SP   1   1.00
      0.0778369              1.00000000             1.00000000
D    1   1.00
      0.9000000              1.0000000
D    1   1.00
      0.2250000              1.0000000
F    1   1.00
      0.3200000              1.0000000
****
P     0
S    6   1.00
  19413.3000000              0.0018516
   2909.4200000              0.0142062
    661.3640000              0.0699995
    185.7590000              0.2400790
     59.1943000              0.4847620
     20.0310000              0.3352000
SP   6   1.00
    339.4780000             -0.00278217             0.00456462
     81.0101000             -0.0360499              0.03369360
     25.8780000             -0.1166310              0.13975500
      9.4522100              0.0968328              0.33936200
      3.6656600              0.6144180              0.45092100
      1.4674600              0.4037980              0.23858600
SP   3   1.00
      2.1562300             -0.2529230             -0.01776530
      0.7489970              0.0328517              0.27405800
      0.2831450              1.0812500              0.78542100
SP   1   1.00
      0.0998317              1.0000000              1.00000000
D    1   1.00
      1.1000000              1.0000000
D    1   1.00
      0.2750000              1.0000000
F    1   1.00
      0.4500000              1.0000000
****
S     0
S    6   1.00
  21917.1000000              0.0018690
   3301.4900000              0.0142300
    754.1460000              0.0696960
    212.7110000              0.2384870
     67.9896000              0.4833070
     23.0515000              0.3380740
SP   6   1.00
    423.7350000             -0.0023767              0.0040610
    100.7100000             -0.0316930              0.0306810
     32.1599000             -0.1133170              0.1304520
     11.8079000              0.0560900              0.3272050
      4.6311000              0.5922550              0.4528510
      1.8702500              0.4550060              0.2560420
SP   3   1.00
      2.6158400             -0.2503740             -0.0145110
      0.9221670              0.0669570              0.3102630
      0.3412870              1.0545100              0.7544830
SP   1   1.00
      0.1171670              1.0000000              1.0000000
D    1   1.00
      1.3000000              1.0000000
D    1   1.00
      0.3250000              1.0000000
F    1   1.00
      0.5500000              1.0000000
****
Cl     0
S    6   1.00
  25180.1000000              0.0018330
   3780.3500000              0.0140340
    860.4740000              0.0690970
    242.1450000              0.2374520
     77.3349000              0.4830340
     26.2470000              0.3398560
SP   6   1.00
    491.7650000             -0.0022974              0.0039894
    116.9840000             -0.0307140              0.0303180
     37.4153000             -0.1125280              0.1298800
     13.7834000              0.0450160              0.3279510
      5.4521500              0.5893530              0.4535270
      2.2258800              0.4652060              0.2521540
SP   3   1.00
      3.1864900             -0.2518300             -0.0142990
      1.1442700              0.0615890              0.3235720
      0.4203770              1.0601800              0.7435070
SP   1   1.00
      0.1426570              1.0000000              1.0000000
D    1   1.00
      1.5000000              1.0000000
D    1   1.00
      0.3750000              1.0000000
F    1   1.00
      0.7000000              1.0000000
****
}

set {
reference uhf
freeze_core true
e_convergence 10
d_convergence 10
dft_spherical_points 1202
dft_radial_points 99
}

e = energy('b3lyp')

print_out('Grab this energy {0}'.format(e))
--------------------------------------------------------------------------

    Molecular point group: cs

    Geometry (in Bohr), charge = 0, multiplicity = 2:

       Center              X                  Y                   Z               Mass
    ------------   -----------------  -----------------  -----------------  -----------------
         C           -0.323340380205    -0.004241911658     0.000000000000    12.000000000000
         C            0.060377519095    -1.400435109858    -2.425797598300    12.000000000000
         C            0.062544924495     2.803207374342     0.000000000000    12.000000000000
         C            0.060377519095    -1.400435109858     2.425797598300    12.000000000000
         H            2.089117467895    -1.641609240958    -2.847317000800     1.007825032230
         H           -0.766647015105    -0.387408222858    -4.025895264600     1.007825032230
         H           -0.766179880105    -3.287673090358    -2.348785593900     1.007825032230
         H            2.082437744395     3.290789937342     0.000000000000     1.007825032230
         H           -0.763790814905     3.682635393342     1.679237439600     1.007825032230
         H           -0.763790814905     3.682635393342    -1.679237439600     1.007825032230
         H            2.089117467895    -1.641609240958     2.847317000800     1.007825032230
         H           -0.766179880105    -3.287673090358     2.348785593900     1.007825032230
         H           -0.766647015105    -0.387408222858     4.025895264600     1.007825032230

  Charge       = 0
  Multiplicity = 2
  Basis Set: ANONYMOUS33D81A2A
    Blend: 6-31G_2DFP_
  Basis Set: (ANONYMOUS33D81A2A AUX)
    Blend: DEF2-UNIVERSAL-JKFIT

    Orbital Energies [Eh]
    ---------------------

    Alpha Occupied:

       1Ap   -10.180342     2Ap   -10.167034     1App  -10.167026
       3Ap   -10.166984     4Ap    -0.797770     2App   -0.686376
       5Ap    -0.686000     6Ap    -0.530777     7Ap    -0.441126
       8Ap    -0.434908     3App   -0.434439     4App   -0.382694
       9Ap    -0.382505     5App   -0.363607     6App   -0.338551
      10Ap    -0.337446    11Ap    -0.168961

    Alpha Virtual:

      12Ap     0.076071     7App    0.133975    13Ap     0.134333
      14Ap     0.142510     8App    0.142738    15Ap     0.154879
       9App    0.178701    16Ap     0.178861    17Ap     0.203544
      10App    0.214803    18Ap     0.275622    11App    0.276348
      19Ap     0.399069    12App    0.399386    20Ap     0.403344
      13App    0.424013    21Ap     0.424182    22Ap     0.456591
      23Ap     0.495192    14App    0.495584    15App    0.512162
      24Ap     0.513981    25Ap     0.578779    16App    0.578830
      17App    0.591498    26Ap     0.591803    27Ap     0.602573
      28Ap     0.624744    18App    0.631746    29Ap     0.636222
      19App    0.636322    20App    0.662976    30Ap     0.663865
      31Ap     0.683731    21App    0.683979    32Ap     0.734995
      33Ap     0.825278    22App    0.825524    23App    0.853923
      24App    0.914697    34Ap     0.915345    25App    0.944124
      35Ap     0.944623    36Ap     0.961254    26App    0.961333
      37Ap     1.003453    38Ap     1.127870    27App    1.128315
      39Ap     1.142257    40Ap     1.163000    28App    1.163539
      41Ap     1.223324    29App    1.273877    42Ap     1.275071
      43Ap     1.279383    44Ap     1.324307    30App    1.324403
      45Ap     1.355948    46Ap     1.365826    31App    1.366294
      32App    1.392430    33App    1.403623    47Ap     1.404473
      48Ap     1.416918    34App    1.417325    35App    1.427936
      36App    1.491486    49Ap     1.499074    37App    1.542383
      50Ap     1.543307    51Ap     1.574297    38App    1.574581
      52Ap     1.669830    53Ap     1.739328    39App    1.739478
      54Ap     1.768355    55Ap     1.830313    40App    1.832446
      41App    1.971716    42App    2.018057    56Ap     2.018244
      57Ap     2.020123    43App    2.052238    58Ap     2.053093
      44App    2.738317    59Ap     2.738660    60Ap     2.790925
      45App    2.811421    61Ap     2.889351    46App    2.890523
      62Ap     2.894962    63Ap     2.929112    47App    2.929882
      48App    2.958995    49App    2.963910    64Ap     2.964848
      65Ap     3.034014    66Ap     3.070815    50App    3.071755
      51App    3.084354    67Ap     3.168627    52App    3.168952
      68Ap     3.180620    69Ap     3.284692    53App    3.285936
      54App    3.326987    70Ap     3.327322    71Ap     3.375614
      72Ap     3.489466    55App    3.490826    56App    3.513995
      73Ap     3.525314    57App    3.568250    74Ap     3.568523
      58App    3.575183    59App    3.665380    75Ap     3.667401
      76Ap     3.679653    77Ap     3.694007    60App    3.694243
      78Ap     3.775974    61App    3.777582    79Ap     3.789194
      80Ap     3.911662    62App    3.912786    81Ap     4.034411
      63App    4.111233    82Ap     4.111487    83Ap     4.146562
      64App    4.149598    84Ap     4.173198    85Ap     4.201930
      86Ap     4.202711    65App    4.204244    66App    4.210880
      67App    4.315707    87Ap     4.316281    68App    4.358987
      88Ap     4.424080    69App    4.424854    70App    4.443428
      71App    4.516290    89Ap     4.517430    90Ap     4.577799
      72App    4.578266    91Ap     4.618033    92Ap     4.709468
      93Ap     4.774512    73App    4.774707    74App    4.836886
      94Ap     4.962834    75App    5.001965    95Ap     5.003979
      96Ap     5.228032    76App    5.244738    97Ap     5.248879
      77App    5.354863    98Ap     5.356209    78App    5.479392

    Beta Occupied:

       1Ap   -10.167784     1App  -10.167782     2Ap   -10.167757
       3Ap   -10.166519     4Ap    -0.781095     2App   -0.684172
       5Ap    -0.683809     6Ap    -0.511749     7Ap    -0.431270
       3App   -0.430819     8Ap    -0.421822     4App   -0.376717
       9Ap    -0.376652     5App   -0.362591     6App   -0.333677
      10Ap    -0.332566

    Beta Virtual:

      11Ap    -0.025744    12Ap     0.077080     7App    0.134892
      13Ap     0.135198    14Ap     0.144365     8App    0.144624
      15Ap     0.163336     9App    0.182365    16Ap     0.182539
      10App    0.215033    17Ap     0.218926    18Ap     0.282001
      11App    0.282664    19Ap     0.400242    12App    0.400551
      20Ap     0.419792    13App    0.426835    21Ap     0.426982
      22Ap     0.468498    23Ap     0.497446    14App    0.497854
      15App    0.513897    24Ap     0.556323    25Ap     0.584294
      16App    0.584420    17App    0.597663    26Ap     0.597997
      27Ap     0.609994    28Ap     0.628119    18App    0.631914
      29Ap     0.639495    19App    0.639609    20App    0.666578
      30Ap     0.667392    31Ap     0.686386    21App    0.686595
      32Ap     0.757517    33Ap     0.830449    22App    0.830690
      23App    0.855278    24App    0.922655    34Ap     0.923327
      25App    0.945962    35Ap     0.953555    36Ap     0.966579
      26App    0.966617    37Ap     1.008693    38Ap     1.131884
      27App    1.132377    39Ap     1.155612    40Ap     1.168118
      28App    1.168569    41Ap     1.232298    29App    1.279516
      42Ap     1.280632    43Ap     1.285131    44Ap     1.329306
      30App    1.329384    45Ap     1.365351    46Ap     1.371079
      31App    1.371538    32App    1.393491    33App    1.407090
      47Ap     1.407934    48Ap     1.421942    34App    1.422398
      35App    1.428212    36App    1.492534    49Ap     1.509517
      37App    1.546811    50Ap     1.547693    51Ap     1.582159
      38App    1.582465    52Ap     1.674677    53Ap     1.745097
      39App    1.745244    54Ap     1.779124    55Ap     1.834149
      40App    1.836323    41App    1.972577    42App    2.024433
      56Ap     2.026491    57Ap     2.039654    43App    2.058983
      58Ap     2.059798    44App    2.746691    59Ap     2.746956
      45App    2.811833    60Ap     2.816060    61Ap     2.902098
      46App    2.903174    62Ap     2.924637    63Ap     2.931575
      47App    2.932385    48App    2.960061    49App    2.968441
      64Ap     2.969414    65Ap     3.041945    66Ap     3.080894
      50App    3.081468    51App    3.086197    67Ap     3.184142
      52App    3.184903    68Ap     3.188337    69Ap     3.289519
      53App    3.290703    54App    3.330813    70Ap     3.331109
      71Ap     3.383431    72Ap     3.492227    55App    3.493524
      56App    3.512365    73Ap     3.528357    57App    3.574983
      58App    3.581738    74Ap     3.581779    59App    3.670146
      75Ap     3.672119    76Ap     3.692959    77Ap     3.725736
      60App    3.725763    78Ap     3.780623    61App    3.782036
      79Ap     3.817687    80Ap     3.921463    62App    3.922623
      81Ap     4.045295    63App    4.118025    82Ap     4.118332
      83Ap     4.153844    64App    4.156730    84Ap     4.187261
      85Ap     4.207859    65App    4.210230    86Ap     4.210652
      66App    4.215344    67App    4.323210    87Ap     4.323658
      68App    4.362353    88Ap     4.432300    69App    4.433058
      70App    4.446314    71App    4.524127    89Ap     4.525175
      90Ap     4.588346    72App    4.588882    91Ap     4.625263
      92Ap     4.719815    93Ap     4.781430    73App    4.781694
      74App    4.839803    94Ap     4.967626    75App    5.006038
      95Ap     5.007990    96Ap     5.233747    76App    5.246528
      97Ap     5.250659    77App    5.361360    98Ap     5.362671
      78App    5.481713

    Final Occupation by Irrep:
             Ap   App
    DOCC [    10,    6 ]
    SOCC [     1,    0 ]

  @DF-UKS Final Energy:  -157.81305112353843

   => Energetics <=

    Nuclear Repulsion Energy =            125.3947462524371588
    One-Electron Energy =                -458.7490984401563878
    Two-Electron Energy =                 195.8484518108165275
    DFT Exchange-Correlation Energy =     -20.3071507466357630
    Empirical Dispersion Energy =           0.0000000000000000
    VV10 Nonlocal Energy =                  0.0000000000000000
    Total Energy =                       -157.8130511235384290

  UHF NO Occupations:
  HONO-2 :    9 Ap 1.9996008
  HONO-1 :   10 Ap 1.9989804
  HONO-0 :   11 Ap 1.0000000
  LUNO+0 :   12 Ap 0.0010196
  LUNO+1 :   13 Ap 0.0003992
  LUNO+2 :   14 Ap 0.0001986
  LUNO+3 :    7App 0.0001965

Computation Completed

Properties will be evaluated at   0.000000,   0.000000,   0.000000 [a0]

Properties computed using the SCF density matrix

  Nuclear Dipole Moment: [e a0]
     X:     0.8272      Y:     0.0113      Z:     0.0000

  Electronic Dipole Moment: [e a0]
     X:    -0.7493      Y:    -0.0131      Z:     0.0000

  Dipole Moment: [e a0]
     X:     0.0779      Y:    -0.0019      Z:     0.0000     Total:     0.0779

  Dipole Moment: [D]
     X:     0.1980      Y:    -0.0048      Z:     0.0000     Total:     0.1981

*** tstop() called on n023 at Fri Nov  5 13:43:30 2021
Module time:
	user time   =     630.56 seconds =      10.51 minutes
	system time =      12.05 seconds =       0.20 minutes
	total time  =        162 seconds =       2.70 minutes
Total time:
	user time   =     630.56 seconds =      10.51 minutes
	system time =      12.05 seconds =       0.20 minutes
	total time  =        162 seconds =       2.70 minutes
Grab this energy -157.81305112353843
    Psi4 stopped on: Friday, 05 November 2021 01:43PM
    Psi4 wall time for execution: 0:02:41.62

*** Psi4 exiting successfully. Buy a developer a beer!
