                               Psi4 1.4a2.dev629

  ==> Input File <==

--------------------------------------------------------------------------
import os
memory 14 GB

molecule {
 C   -0.3233371616   -0.0007773259   -0.0000000000
 C    0.0620708729   -1.3995082474   -2.4268720366
 C    0.0591635494    2.8022762417    0.0000000000
 C    0.0620708729   -1.3995082474    2.4268720366
 H    2.0885136412   -1.6475604941   -2.8490201105
 H   -0.7639860910   -0.3867037037   -4.0231489083
 H   -0.7655600629   -3.2914542510   -2.3487536772
 H    2.0836285480    3.2819170051    0.0000000000
 H   -0.7670697664    3.6835065790    1.6767061902
 H   -0.7670697664    3.6835065790   -1.6767061902
 H    2.0885136412   -1.6475604941    2.8490201105
 H   -0.7655600629   -3.2914542510    2.3487536772
 H   -0.7639860910   -0.3867037037    4.0231489083
units bohr
0 2
}

basis {

assign 6-31g_2dfp_

[ 6-31g_2dfp_ ]

spherical

!----------------------------------------------------------------------
! Basis Set Exchange
! Version v0.8.13
! https://www.basissetexchange.org
!----------------------------------------------------------------------
!   Basis set: 6-31G(2df,p)
! Description: 6-31G(2df,p)
!        Role: orbital
!     Version: 0  (Data from the original Basis Set Exchange)
!----------------------------------------------------------------------

****
H     0
S    3   1.00
     18.7311370              0.03349460
      2.8253937              0.23472695
      0.6401217              0.81375733
S    1   1.00
      0.1612778              1.00000000
P    1   1.00
      1.5000000              1.0000000
P    1   1.00
      0.3750000              1.0000000
****
B     0
S    6   1.00
   2068.8823000              0.0018663
    310.6495700              0.0142515
     70.6830330              0.0695516
     19.8610800              0.2325729
      6.2993048              0.4670787
      2.1270270              0.3634314
SP   3   1.00
      4.7279710             -0.1303938              0.0745976
      1.1903377             -0.1307889              0.3078467
      0.3594117              1.1309444              0.7434568
SP   1   1.00
      0.1267512              1.0000000              1.0000000
D    1   1.00
      0.8020000              1.0000000
D    1   1.00
      0.2005000              1.0000000
F    1   1.00
      0.5000000              1.0000000
****
C     0
S    6   1.00
   3047.5249000              0.0018347
    457.3695100              0.0140373
    103.9486900              0.0688426
     29.2101550              0.2321844
      9.2866630              0.4679413
      3.1639270              0.3623120
SP   3   1.00
      7.8682724             -0.1193324              0.0689991
      1.8812885             -0.1608542              0.3164240
      0.5442493              1.1434564              0.7443083
SP   1   1.00
      0.1687144              1.0000000              1.0000000
D    1   1.00
      1.2520000              1.0000000
D    1   1.00
      0.3130000              1.0000000
F    1   1.00
      0.8000000              1.0000000
****
N     0
S    6   1.00
   4173.5110000              0.0018348
    627.4579000              0.0139950
    142.9021000              0.0685870
     40.2343300              0.2322410
     12.8202100              0.4690700
      4.3904370              0.3604550
SP   3   1.00
     11.6263580             -0.1149610              0.0675800
      2.7162800             -0.1691180              0.3239070
      0.7722180              1.1458520              0.7408950
SP   1   1.00
      0.2120313              1.0000000              1.0000000
D    1   1.00
      1.8260000              1.0000000
D    1   1.00
      0.4565000              1.0000000
F    1   1.00
      1.0000000              1.0000000
****
O     0
S    6   1.00
   5484.6717000              0.0018311
    825.2349500              0.0139501
    188.0469600              0.0684451
     52.9645000              0.2327143
     16.8975700              0.4701930
      5.7996353              0.3585209
SP   3   1.00
     15.5396160             -0.1107775              0.0708743
      3.5999336             -0.1480263              0.3397528
      1.0137618              1.1307670              0.7271586
SP   1   1.00
      0.2700058              1.0000000              1.0000000
D    1   1.00
      2.5840000              1.0000000
D    1   1.00
      0.6460000              1.0000000
F    1   1.00
      1.4000000              1.0000000
****
F     0
S    6   1.00
   7001.7130900              0.0018196169
   1051.3660900              0.0139160796
    239.2856900              0.0684053245
     67.3974453              0.233185760
     21.5199573              0.471267439
      7.40310130             0.356618546
SP   3   1.00
     20.8479528             -0.108506975            0.0716287243
      4.80830834            -0.146451658            0.3459121030
      1.34406986             1.128688580            0.7224699570
SP   1   1.00
      0.358151393            1.0000000              1.0000000
D    1   1.00
      3.5000000              1.0000000
D    1   1.00
      0.8750000              1.0000000
F    1   1.00
      1.8500000              1.0000000
****
Al     0
S    6   1.00
  13983.1000000              0.00194267
   2098.7500000              0.0148599
    477.7050000              0.0728494
    134.3600000              0.2468300
     42.8709000              0.4872580
     14.5189000              0.3234960
SP   6   1.00
    239.6680000             -0.00292619             0.00460285
     57.4419000             -0.0374080              0.0331990
     18.2859000             -0.1144870              0.1362820
      6.5991400              0.1156350              0.3304760
      2.4904900              0.6125950              0.4491460
      0.9445400              0.3937990              0.2657040
SP   3   1.00
      1.2779000             -0.2276060             -0.0175130
      0.3975900              0.00144583             0.2445330
      0.1600950              1.0927900              0.8049340
SP   1   1.00
      0.0556577              1.0000000              1.0000000
D    1   1.00
      0.6500000              1.0000000
D    1   1.00
      0.1625000              1.0000000
F    1   1.00
      0.2500000              1.0000000
****
Si     0
S    6   1.00
  16115.9000000              0.00195948
   2425.5800000              0.01492880
    553.8670000              0.07284780
    156.3400000              0.24613000
     50.0683000              0.48591400
     17.0178000              0.32500200
SP   6   1.00
    292.7180000             -0.00278094             0.00443826
     69.8731000             -0.03571460             0.03266790
     22.3363000             -0.11498500             0.13472100
      8.1503900              0.09356340             0.32867800
      3.1345800              0.60301700             0.44964000
      1.2254300              0.41895900             0.26137200
SP   3   1.00
      1.7273800             -0.24463000            -0.01779510
      0.5729220              0.00431572             0.25353900
      0.2221920              1.09818000             0.80066900
SP   1   1.00
      0.0778369              1.00000000             1.00000000
D    1   1.00
      0.9000000              1.0000000
D    1   1.00
      0.2250000              1.0000000
F    1   1.00
      0.3200000              1.0000000
****
P     0
S    6   1.00
  19413.3000000              0.0018516
   2909.4200000              0.0142062
    661.3640000              0.0699995
    185.7590000              0.2400790
     59.1943000              0.4847620
     20.0310000              0.3352000
SP   6   1.00
    339.4780000             -0.00278217             0.00456462
     81.0101000             -0.0360499              0.03369360
     25.8780000             -0.1166310              0.13975500
      9.4522100              0.0968328              0.33936200
      3.6656600              0.6144180              0.45092100
      1.4674600              0.4037980              0.23858600
SP   3   1.00
      2.1562300             -0.2529230             -0.01776530
      0.7489970              0.0328517              0.27405800
      0.2831450              1.0812500              0.78542100
SP   1   1.00
      0.0998317              1.0000000              1.00000000
D    1   1.00
      1.1000000              1.0000000
D    1   1.00
      0.2750000              1.0000000
F    1   1.00
      0.4500000              1.0000000
****
S     0
S    6   1.00
  21917.1000000              0.0018690
   3301.4900000              0.0142300
    754.1460000              0.0696960
    212.7110000              0.2384870
     67.9896000              0.4833070
     23.0515000              0.3380740
SP   6   1.00
    423.7350000             -0.0023767              0.0040610
    100.7100000             -0.0316930              0.0306810
     32.1599000             -0.1133170              0.1304520
     11.8079000              0.0560900              0.3272050
      4.6311000              0.5922550              0.4528510
      1.8702500              0.4550060              0.2560420
SP   3   1.00
      2.6158400             -0.2503740             -0.0145110
      0.9221670              0.0669570              0.3102630
      0.3412870              1.0545100              0.7544830
SP   1   1.00
      0.1171670              1.0000000              1.0000000
D    1   1.00
      1.3000000              1.0000000
D    1   1.00
      0.3250000              1.0000000
F    1   1.00
      0.5500000              1.0000000
****
Cl     0
S    6   1.00
  25180.1000000              0.0018330
   3780.3500000              0.0140340
    860.4740000              0.0690970
    242.1450000              0.2374520
     77.3349000              0.4830340
     26.2470000              0.3398560
SP   6   1.00
    491.7650000             -0.0022974              0.0039894
    116.9840000             -0.0307140              0.0303180
     37.4153000             -0.1125280              0.1298800
     13.7834000              0.0450160              0.3279510
      5.4521500              0.5893530              0.4535270
      2.2258800              0.4652060              0.2521540
SP   3   1.00
      3.1864900             -0.2518300             -0.0142990
      1.1442700              0.0615890              0.3235720
      0.4203770              1.0601800              0.7435070
SP   1   1.00
      0.1426570              1.0000000              1.0000000
D    1   1.00
      1.5000000              1.0000000
D    1   1.00
      0.3750000              1.0000000
F    1   1.00
      0.7000000              1.0000000
****
}

set {
reference uhf
freeze_core true
e_convergence 10
d_convergence 10
dft_spherical_points 1202
dft_radial_points 99
}

e = energy('b3lyp')

print_out('Grab this energy {0}'.format(e))
--------------------------------------------------------------------------

    Molecular point group: cs

    Geometry (in Bohr), charge = 0, multiplicity = 2:

       Center              X                  Y                   Z               Mass
    ------------   -----------------  -----------------  -----------------  -----------------
         C           -0.323338725273    -0.001255028705     0.000000000000    12.000000000000
         C            0.062069309227    -1.399985950205    -2.426872036600    12.000000000000
         C            0.059161985727     2.801798538895     0.000000000000    12.000000000000
         C            0.062069309227    -1.399985950205     2.426872036600    12.000000000000
         H            2.088512077527    -1.648038196905    -2.849020110500     1.007825032230
         H           -0.763987654673    -0.387181406505    -4.023148908300     1.007825032230
         H           -0.765561626573    -3.291931953805    -2.348753677200     1.007825032230
         H            2.083626984327     3.281439302295     0.000000000000     1.007825032230
         H           -0.767071330073     3.683028876195     1.676706190200     1.007825032230
         H           -0.767071330073     3.683028876195    -1.676706190200     1.007825032230
         H            2.088512077527    -1.648038196905     2.849020110500     1.007825032230
         H           -0.765561626573    -3.291931953805     2.348753677200     1.007825032230
         H           -0.763987654673    -0.387181406505     4.023148908300     1.007825032230

  Charge       = 0
  Multiplicity = 2
  Basis Set: ANONYMOUS01457425
    Blend: 6-31G_2DFP_
  Basis Set: (ANONYMOUS01457425 AUX)
    Blend: DEF2-UNIVERSAL-JKFIT

    Orbital Energies [Eh]
    ---------------------

    Alpha Occupied:

       1Ap   -10.180342     2Ap   -10.167032     1App  -10.167029
       3Ap   -10.166984     4Ap    -0.797766     2App   -0.686237
       5Ap    -0.686137     6Ap    -0.530776     7Ap    -0.441126
       8Ap    -0.434764     3App   -0.434578     9Ap    -0.382784
       4App   -0.382413     5App   -0.363610     6App   -0.338139
      10Ap    -0.337859    11Ap    -0.168960

    Alpha Virtual:

      12Ap     0.076072     7App    0.134145    13Ap     0.134165
       8App    0.142486    14Ap     0.142769    15Ap     0.154881
       9App    0.178592    16Ap     0.178959    17Ap     0.203550
      10App    0.214802    18Ap     0.275882    11App    0.276090
      19Ap     0.398992    12App    0.399465    20Ap     0.403343
      21Ap     0.424000    13App    0.424195    22Ap     0.456593
      14App    0.495365    23Ap     0.495412    15App    0.512161
      24Ap     0.513982    25Ap     0.578634    16App    0.578988
      17App    0.591398    26Ap     0.591858    27Ap     0.602595
      28Ap     0.624761    18App    0.631770    19App    0.636035
      29Ap     0.636471    30Ap     0.663283    20App    0.663542
      31Ap     0.683749    21App    0.683956    32Ap     0.734993
      22App    0.825343    33Ap     0.825470    23App    0.853916
      24App    0.914600    34Ap     0.915450    25App    0.944107
      35Ap     0.944612    26App    0.961291    36Ap     0.961318
      37Ap     1.003455    38Ap     1.127714    27App    1.128505
      39Ap     1.142219    40Ap     1.163123    28App    1.163411
      41Ap     1.223323    42Ap     1.274173    29App    1.274769
      43Ap     1.279384    30App    1.324334    44Ap     1.324377
      45Ap     1.355976    31App    1.365814    46Ap     1.366311
      32App    1.392443    33App    1.403813    47Ap     1.404284
      34App    1.417029    48Ap     1.417199    35App    1.427914
      36App    1.491502    49Ap     1.499061    50Ap     1.542671
      37App    1.542994    38App    1.573656    51Ap     1.575255
      52Ap     1.669826    53Ap     1.739344    39App    1.739442
      54Ap     1.768386    55Ap     1.831038    40App    1.831753
      41App    1.971732    56Ap     2.018219    42App    2.018540
      57Ap     2.019622    43App    2.051575    58Ap     2.053708
      59Ap     2.738454    44App    2.738520    60Ap     2.790927
      45App    2.811427    61Ap     2.889093    46App    2.890790
      62Ap     2.894972    47App    2.929357    63Ap     2.929632
      48App    2.958966    49App    2.964306    64Ap     2.964480
      65Ap     3.034002    50App    3.070764    66Ap     3.071804
      51App    3.084351    67Ap     3.168644    52App    3.168897
      68Ap     3.180601    69Ap     3.284982    53App    3.285650
      70Ap     3.326331    54App    3.327997    71Ap     3.375620
      55App    3.489120    72Ap     3.491190    56App    3.514007
      73Ap     3.525331    57App    3.568270    74Ap     3.568414
      58App    3.575246    59App    3.666174    75Ap     3.666617
      76Ap     3.679622    60App    3.693477    77Ap     3.694762
      78Ap     3.776737    61App    3.776870    79Ap     3.789151
      80Ap     3.911746    62App    3.912708    81Ap     4.034462
      63App    4.111022    82Ap     4.111719    83Ap     4.147930
      64App    4.148277    84Ap     4.173251    85Ap     4.202280
      86Ap     4.203092    65App    4.203447    66App    4.210842
      87Ap     4.315370    67App    4.316562    68App    4.358969
      69App    4.423801    88Ap     4.425092    70App    4.443436
      71App    4.516414    89Ap     4.517236    90Ap     4.577972
      72App    4.578589    91Ap     4.617576    92Ap     4.709409
      73App    4.773834    93Ap     4.775365    74App    4.836916
      94Ap     4.962864    75App    5.002115    95Ap     5.003788
      96Ap     5.228042    76App    5.246501    97Ap     5.247144
      98Ap     5.355427    77App    5.355578    78App    5.479356

    Beta Occupied:

       1App  -10.167784     1Ap   -10.167782     2Ap   -10.167758
       3Ap   -10.166520     4Ap    -0.781091     2App   -0.684042
       5Ap    -0.683937     6Ap    -0.511747     7Ap    -0.431158
       3App   -0.430930     8Ap    -0.421821     9Ap    -0.376868
       4App   -0.376500     5App   -0.362593     6App   -0.333273
      10Ap    -0.332971

    Beta Virtual:

      11Ap    -0.025743    12Ap     0.077081    13Ap     0.135037
       7App    0.135054     8App    0.144361    14Ap     0.144636
      15Ap     0.163339     9App    0.182271    16Ap     0.182624
      10App    0.215032    17Ap     0.218932    18Ap     0.282249
      11App    0.282419    19Ap     0.400165    12App    0.400631
      20Ap     0.419789    21Ap     0.426812    13App    0.427006
      22Ap     0.468501    14App    0.497629    23Ap     0.497671
      15App    0.513896    24Ap     0.556326    25Ap     0.584180
      16App    0.584544    17App    0.597582    26Ap     0.598033
      27Ap     0.610016    28Ap     0.628137    18App    0.631927
      19App    0.639317    29Ap     0.639757    30Ap     0.666834
      20App    0.667118    31Ap     0.686402    21App    0.686573
      32Ap     0.757516    22App    0.830517    33Ap     0.830632
      23App    0.855269    24App    0.922596    34Ap     0.923397
      25App    0.945945    35Ap     0.953539    26App    0.966598
      36Ap     0.966622    37Ap     1.008695    38Ap     1.131777
      27App    1.132498    39Ap     1.155597    40Ap     1.168173
      28App    1.168506    41Ap     1.232296    42Ap     1.279755
      29App    1.280379    43Ap     1.285141    30App    1.329330
      44Ap     1.329360    45Ap     1.365378    31App    1.371049
      46Ap     1.371577    32App    1.393501    33App    1.407282
      47Ap     1.407748    34App    1.422055    48Ap     1.422265
      35App    1.428188    36App    1.492550    49Ap     1.509500
      50Ap     1.546973    37App    1.547519    38App    1.581441
      51Ap     1.583206    52Ap     1.674673    53Ap     1.745113
      39App    1.745204    54Ap     1.779158    55Ap     1.834896
      40App    1.835606    41App    1.972591    42App    2.024979
      56Ap     2.025914    57Ap     2.039659    43App    2.058255
      58Ap     2.060466    59Ap     2.746808    44App    2.746838
      45App    2.811839    60Ap     2.816062    61Ap     2.901792
      46App    2.903487    62Ap     2.924661    47App    2.931884
      63Ap     2.932067    48App    2.960040    49App    2.968849
      64Ap     2.969013    65Ap     3.041937    50App    3.080638
      66Ap     3.081749    51App    3.086168    67Ap     3.184380
      52App    3.184630    68Ap     3.188314    69Ap     3.289774
      53App    3.290456    70Ap     3.330160    54App    3.331777
      71Ap     3.383439    55App    3.491887    72Ap     3.493882
      56App    3.512373    73Ap     3.528376    57App    3.574944
      58App    3.581602    74Ap     3.581920    59App    3.671032
      75Ap     3.671250    76Ap     3.692923    60App    3.725168
      77Ap     3.726341    78Ap     3.781240    61App    3.781427
      79Ap     3.817685    80Ap     3.921536    62App    3.922552
      81Ap     4.045349    63App    4.117864    82Ap     4.118510
      83Ap     4.155260    64App    4.155367    84Ap     4.187308
      85Ap     4.208562    65App    4.209395    86Ap     4.210705
      66App    4.215314    87Ap     4.322750    67App    4.324065
      68App    4.362330    69App    4.431999    88Ap     4.433316
      70App    4.446327    71App    4.524196    89Ap     4.525034
      90Ap     4.588579    72App    4.589184    91Ap     4.624768
      92Ap     4.719754    73App    4.780777    93Ap     4.782330
      74App    4.839833    94Ap     4.967658    75App    5.006169
      95Ap     5.007813    96Ap     5.233755    76App    5.248279
      97Ap     5.248936    98Ap     5.361895    77App    5.362071
      78App    5.481677

    Final Occupation by Irrep:
             Ap   App
    DOCC [    10,    6 ]
    SOCC [     1,    0 ]

  @DF-UKS Final Energy:  -157.81306705716443

   => Energetics <=

    Nuclear Repulsion Energy =            125.3946108908672841
    One-Electron Energy =                -458.7488782270128240
    Two-Electron Energy =                 195.8483429393727135
    DFT Exchange-Correlation Energy =     -20.3071426603916123
    Empirical Dispersion Energy =           0.0000000000000000
    VV10 Nonlocal Energy =                  0.0000000000000000
    Total Energy =                       -157.8130670571644316

  UHF NO Occupations:
  HONO-2 :    9 Ap 1.9996009
  HONO-1 :   10 Ap 1.9989805
  HONO-0 :   11 Ap 1.0000000
  LUNO+0 :   12 Ap 0.0010195
  LUNO+1 :   13 Ap 0.0003991
  LUNO+2 :   14 Ap 0.0001978
  LUNO+3 :    7App 0.0001973

Computation Completed

Properties will be evaluated at   0.000000,   0.000000,   0.000000 [a0]

Properties computed using the SCF density matrix

  Nuclear Dipole Moment: [e a0]
     X:     0.8272      Y:    -0.0034      Z:     0.0000

  Electronic Dipole Moment: [e a0]
     X:    -0.7493      Y:     0.0041      Z:     0.0000

  Dipole Moment: [e a0]
     X:     0.0779      Y:     0.0007      Z:     0.0000     Total:     0.0779

  Dipole Moment: [D]
     X:     0.1980      Y:     0.0018      Z:     0.0000     Total:     0.1980

*** tstop() called on n071 at Fri Nov  5 11:53:51 2021
Module time:
	user time   =     576.90 seconds =       9.62 minutes
	system time =      13.58 seconds =       0.23 minutes
	total time  =        149 seconds =       2.48 minutes
Total time:
	user time   =     576.90 seconds =       9.62 minutes
	system time =      13.58 seconds =       0.23 minutes
	total time  =        149 seconds =       2.48 minutes
Grab this energy -157.81306705716443
    Psi4 stopped on: Friday, 05 November 2021 11:53AM
    Psi4 wall time for execution: 0:02:29.07

*** Psi4 exiting successfully. Buy a developer a beer!
