                               Psi4 1.4a2.dev629

  ==> Input File <==

--------------------------------------------------------------------------
import os
memory 14 GB

molecule {
 C   -0.3233637267   -0.0000031421   -0.0024281467
 C    0.0603558272   -1.3994638685   -2.4251835682
 C    0.0609262703    2.8010996287   -0.0012518824
 C    0.0617369092   -1.4016336469    2.4264378001
 H    2.0878610423   -1.6457238277   -2.8469104029
 H   -0.7659805026   -0.3837556990   -4.0270794182
 H   -0.7705005915   -3.2912730294   -2.3450792931
 H    2.0899464268    3.2877408028    0.0033591687
 H   -0.7715353414    3.6775549092    1.6759382697
 H   -0.7628034741    3.6833514399   -1.6826249058
 H    2.0923168895   -1.6421087135    2.8473467194
 H   -0.7636863809   -3.2977516959    2.3504566188
 H   -0.7678812246   -0.3880574713    4.0270190407
units bohr
0 2
}

basis {

assign 6-31g_2dfp_

[ 6-31g_2dfp_ ]

spherical

!----------------------------------------------------------------------
! Basis Set Exchange
! Version v0.8.13
! https://www.basissetexchange.org
!----------------------------------------------------------------------
!   Basis set: 6-31G(2df,p)
! Description: 6-31G(2df,p)
!        Role: orbital
!     Version: 0  (Data from the original Basis Set Exchange)
!----------------------------------------------------------------------

****
H     0
S    3   1.00
     18.7311370              0.03349460
      2.8253937              0.23472695
      0.6401217              0.81375733
S    1   1.00
      0.1612778              1.00000000
P    1   1.00
      1.5000000              1.0000000
P    1   1.00
      0.3750000              1.0000000
****
B     0
S    6   1.00
   2068.8823000              0.0018663
    310.6495700              0.0142515
     70.6830330              0.0695516
     19.8610800              0.2325729
      6.2993048              0.4670787
      2.1270270              0.3634314
SP   3   1.00
      4.7279710             -0.1303938              0.0745976
      1.1903377             -0.1307889              0.3078467
      0.3594117              1.1309444              0.7434568
SP   1   1.00
      0.1267512              1.0000000              1.0000000
D    1   1.00
      0.8020000              1.0000000
D    1   1.00
      0.2005000              1.0000000
F    1   1.00
      0.5000000              1.0000000
****
C     0
S    6   1.00
   3047.5249000              0.0018347
    457.3695100              0.0140373
    103.9486900              0.0688426
     29.2101550              0.2321844
      9.2866630              0.4679413
      3.1639270              0.3623120
SP   3   1.00
      7.8682724             -0.1193324              0.0689991
      1.8812885             -0.1608542              0.3164240
      0.5442493              1.1434564              0.7443083
SP   1   1.00
      0.1687144              1.0000000              1.0000000
D    1   1.00
      1.2520000              1.0000000
D    1   1.00
      0.3130000              1.0000000
F    1   1.00
      0.8000000              1.0000000
****
N     0
S    6   1.00
   4173.5110000              0.0018348
    627.4579000              0.0139950
    142.9021000              0.0685870
     40.2343300              0.2322410
     12.8202100              0.4690700
      4.3904370              0.3604550
SP   3   1.00
     11.6263580             -0.1149610              0.0675800
      2.7162800             -0.1691180              0.3239070
      0.7722180              1.1458520              0.7408950
SP   1   1.00
      0.2120313              1.0000000              1.0000000
D    1   1.00
      1.8260000              1.0000000
D    1   1.00
      0.4565000              1.0000000
F    1   1.00
      1.0000000              1.0000000
****
O     0
S    6   1.00
   5484.6717000              0.0018311
    825.2349500              0.0139501
    188.0469600              0.0684451
     52.9645000              0.2327143
     16.8975700              0.4701930
      5.7996353              0.3585209
SP   3   1.00
     15.5396160             -0.1107775              0.0708743
      3.5999336             -0.1480263              0.3397528
      1.0137618              1.1307670              0.7271586
SP   1   1.00
      0.2700058              1.0000000              1.0000000
D    1   1.00
      2.5840000              1.0000000
D    1   1.00
      0.6460000              1.0000000
F    1   1.00
      1.4000000              1.0000000
****
F     0
S    6   1.00
   7001.7130900              0.0018196169
   1051.3660900              0.0139160796
    239.2856900              0.0684053245
     67.3974453              0.233185760
     21.5199573              0.471267439
      7.40310130             0.356618546
SP   3   1.00
     20.8479528             -0.108506975            0.0716287243
      4.80830834            -0.146451658            0.3459121030
      1.34406986             1.128688580            0.7224699570
SP   1   1.00
      0.358151393            1.0000000              1.0000000
D    1   1.00
      3.5000000              1.0000000
D    1   1.00
      0.8750000              1.0000000
F    1   1.00
      1.8500000              1.0000000
****
Al     0
S    6   1.00
  13983.1000000              0.00194267
   2098.7500000              0.0148599
    477.7050000              0.0728494
    134.3600000              0.2468300
     42.8709000              0.4872580
     14.5189000              0.3234960
SP   6   1.00
    239.6680000             -0.00292619             0.00460285
     57.4419000             -0.0374080              0.0331990
     18.2859000             -0.1144870              0.1362820
      6.5991400              0.1156350              0.3304760
      2.4904900              0.6125950              0.4491460
      0.9445400              0.3937990              0.2657040
SP   3   1.00
      1.2779000             -0.2276060             -0.0175130
      0.3975900              0.00144583             0.2445330
      0.1600950              1.0927900              0.8049340
SP   1   1.00
      0.0556577              1.0000000              1.0000000
D    1   1.00
      0.6500000              1.0000000
D    1   1.00
      0.1625000              1.0000000
F    1   1.00
      0.2500000              1.0000000
****
Si     0
S    6   1.00
  16115.9000000              0.00195948
   2425.5800000              0.01492880
    553.8670000              0.07284780
    156.3400000              0.24613000
     50.0683000              0.48591400
     17.0178000              0.32500200
SP   6   1.00
    292.7180000             -0.00278094             0.00443826
     69.8731000             -0.03571460             0.03266790
     22.3363000             -0.11498500             0.13472100
      8.1503900              0.09356340             0.32867800
      3.1345800              0.60301700             0.44964000
      1.2254300              0.41895900             0.26137200
SP   3   1.00
      1.7273800             -0.24463000            -0.01779510
      0.5729220              0.00431572             0.25353900
      0.2221920              1.09818000             0.80066900
SP   1   1.00
      0.0778369              1.00000000             1.00000000
D    1   1.00
      0.9000000              1.0000000
D    1   1.00
      0.2250000              1.0000000
F    1   1.00
      0.3200000              1.0000000
****
P     0
S    6   1.00
  19413.3000000              0.0018516
   2909.4200000              0.0142062
    661.3640000              0.0699995
    185.7590000              0.2400790
     59.1943000              0.4847620
     20.0310000              0.3352000
SP   6   1.00
    339.4780000             -0.00278217             0.00456462
     81.0101000             -0.0360499              0.03369360
     25.8780000             -0.1166310              0.13975500
      9.4522100              0.0968328              0.33936200
      3.6656600              0.6144180              0.45092100
      1.4674600              0.4037980              0.23858600
SP   3   1.00
      2.1562300             -0.2529230             -0.01776530
      0.7489970              0.0328517              0.27405800
      0.2831450              1.0812500              0.78542100
SP   1   1.00
      0.0998317              1.0000000              1.00000000
D    1   1.00
      1.1000000              1.0000000
D    1   1.00
      0.2750000              1.0000000
F    1   1.00
      0.4500000              1.0000000
****
S     0
S    6   1.00
  21917.1000000              0.0018690
   3301.4900000              0.0142300
    754.1460000              0.0696960
    212.7110000              0.2384870
     67.9896000              0.4833070
     23.0515000              0.3380740
SP   6   1.00
    423.7350000             -0.0023767              0.0040610
    100.7100000             -0.0316930              0.0306810
     32.1599000             -0.1133170              0.1304520
     11.8079000              0.0560900              0.3272050
      4.6311000              0.5922550              0.4528510
      1.8702500              0.4550060              0.2560420
SP   3   1.00
      2.6158400             -0.2503740             -0.0145110
      0.9221670              0.0669570              0.3102630
      0.3412870              1.0545100              0.7544830
SP   1   1.00
      0.1171670              1.0000000              1.0000000
D    1   1.00
      1.3000000              1.0000000
D    1   1.00
      0.3250000              1.0000000
F    1   1.00
      0.5500000              1.0000000
****
Cl     0
S    6   1.00
  25180.1000000              0.0018330
   3780.3500000              0.0140340
    860.4740000              0.0690970
    242.1450000              0.2374520
     77.3349000              0.4830340
     26.2470000              0.3398560
SP   6   1.00
    491.7650000             -0.0022974              0.0039894
    116.9840000             -0.0307140              0.0303180
     37.4153000             -0.1125280              0.1298800
     13.7834000              0.0450160              0.3279510
      5.4521500              0.5893530              0.4535270
      2.2258800              0.4652060              0.2521540
SP   3   1.00
      3.1864900             -0.2518300             -0.0142990
      1.1442700              0.0615890              0.3235720
      0.4203770              1.0601800              0.7435070
SP   1   1.00
      0.1426570              1.0000000              1.0000000
D    1   1.00
      1.5000000              1.0000000
D    1   1.00
      0.3750000              1.0000000
F    1   1.00
      0.7000000              1.0000000
****
}

set {
reference uhf
freeze_core true
e_convergence 10
d_convergence 10
dft_spherical_points 1202
dft_radial_points 99
}

e = energy('b3lyp')

print_out('Grab this energy {0}'.format(e))
--------------------------------------------------------------------------

    Molecular point group: c1

    Geometry (in Bohr), charge = 0, multiplicity = 2:

       Center              X                  Y                   Z               Mass
    ------------   -----------------  -----------------  -----------------  -----------------
         C           -0.323305032518    -0.000002514582    -0.001960920689    12.000000000000
         C            0.060414521382    -1.399463240982    -2.424716342189    12.000000000000
         C            0.060984964482     2.801100256218    -0.000784656389    12.000000000000
         C            0.061795603382    -1.401633019382     2.426905026111    12.000000000000
         H            2.087919736482    -1.645723200182    -2.846443176889     1.007825032230
         H           -0.765921808418    -0.383755071482    -4.026612192189     1.007825032230
         H           -0.770441897318    -3.291272401882    -2.344612067089     1.007825032230
         H            2.090005120982     3.287741430318     0.003826394711     1.007825032230
         H           -0.771476647218     3.677555536718     1.676405495711     1.007825032230
         H           -0.762744779918     3.683352067418    -1.682157679789     1.007825032230
         H            2.092375583682    -1.642108085982     2.847813945411     1.007825032230
         H           -0.763627686718    -3.297751068382     2.350923844811     1.007825032230
         H           -0.767822530418    -0.388056843782     4.027486266711     1.007825032230

  Charge       = 0
  Multiplicity = 2
  Basis Set: ANONYMOUSB9FA1A48
    Blend: 6-31G_2DFP_
  Basis Set: (ANONYMOUSB9FA1A48 AUX)
    Blend: DEF2-UNIVERSAL-JKFIT

    Orbital Energies [Eh]
    ---------------------

    Alpha Occupied:

       1A    -10.180410     2A    -10.167739     3A    -10.167551
       4A    -10.167361     5A     -0.797807     6A     -0.685971
       7A     -0.685685     8A     -0.530465     9A     -0.441024
      10A     -0.434604    11A     -0.434461    12A     -0.382385
      13A     -0.382296    14A     -0.363295    15A     -0.338142
      16A     -0.337844    17A     -0.169023

    Alpha Virtual:

      18A      0.075740    19A      0.133725    20A      0.133851
      21A      0.142205    22A      0.142230    23A      0.154580
      24A      0.178267    25A      0.178273    26A      0.203657
      27A      0.214347    28A      0.275627    29A      0.276298
      30A      0.399270    31A      0.399285    32A      0.403148
      33A      0.423791    34A      0.423857    35A      0.456460
      36A      0.495116    37A      0.495216    38A      0.511891
      39A      0.513846    40A      0.578293    41A      0.578664
      42A      0.590806    43A      0.591261    44A      0.601925
      45A      0.623790    46A      0.631071    47A      0.635598
      48A      0.635783    49A      0.662876    50A      0.663282
      51A      0.683286    52A      0.683326    53A      0.734684
      54A      0.824561    55A      0.824620    56A      0.853399
      57A      0.914182    58A      0.914449    59A      0.943500
      60A      0.943823    61A      0.960599    62A      0.960682
      63A      1.003355    64A      1.127643    65A      1.127716
      66A      1.141337    67A      1.162901    68A      1.163152
      69A      1.222883    70A      1.273773    71A      1.274134
      72A      1.279809    73A      1.323523    74A      1.323766
      75A      1.355144    76A      1.365252    77A      1.365843
      78A      1.391863    79A      1.402708    80A      1.403341
      81A      1.415906    82A      1.416441    83A      1.427163
      84A      1.490605    85A      1.497725    86A      1.542171
      87A      1.542457    88A      1.574050    89A      1.574509
      90A      1.667667    91A      1.737722    92A      1.738251
      93A      1.766801    94A      1.828506    95A      1.829334
      96A      1.970100    97A      2.017096    98A      2.017828
      99A      2.017973   100A      2.050597   101A      2.052540
     102A      2.737453   103A      2.737561   104A      2.790717
     105A      2.810910   106A      2.888948   107A      2.889781
     108A      2.894916   109A      2.928948   110A      2.929288
     111A      2.958375   112A      2.963464   113A      2.963999
     114A      3.033108   115A      3.070048   116A      3.070631
     117A      3.083428   118A      3.169382   119A      3.169489
     120A      3.180319   121A      3.285306   122A      3.285400
     123A      3.327230   124A      3.328112   125A      3.376314
     126A      3.490908   127A      3.491399   128A      3.514297
     129A      3.525942   130A      3.567385   131A      3.569035
     132A      3.576819   133A      3.665434   134A      3.665810
     135A      3.677849   136A      3.692990   137A      3.693626
     138A      3.774922   139A      3.777555   140A      3.788607
     141A      3.910812   142A      3.911762   143A      4.032099
     144A      4.107878   145A      4.109920   146A      4.144269
     147A      4.145346   148A      4.170294   149A      4.200935
     150A      4.201438   151A      4.202209   152A      4.207198
     153A      4.313204   154A      4.314250   155A      4.356569
     156A      4.421382   157A      4.422372   158A      4.441411
     159A      4.513654   160A      4.515165   161A      4.576116
     162A      4.577445   163A      4.616841   164A      4.707431
     165A      4.772236   166A      4.773451   167A      4.834561
     168A      4.962075   169A      5.001250   170A      5.002494
     171A      5.222738   172A      5.241394   173A      5.241643
     174A      5.349966   175A      5.351883   176A      5.476133

    Beta Occupied:

       1A    -10.168498     2A    -10.168312     3A    -10.168125
       4A    -10.166602     5A     -0.781105     6A     -0.683764
       7A     -0.683500     8A     -0.511494     9A     -0.430973
      10A     -0.430816    11A     -0.421687    12A     -0.376450
      13A     -0.376384    14A     -0.362276    15A     -0.333275
      16A     -0.332976

    Beta Virtual:

      17A     -0.025976    18A      0.076753    19A      0.134603
      20A      0.134737    21A      0.144093    22A      0.144138
      23A      0.163102    24A      0.181947    25A      0.181956
      26A      0.214578    27A      0.219020    28A      0.281976
      29A      0.282626    30A      0.400455    31A      0.400457
      32A      0.419570    33A      0.426587    34A      0.426680
      35A      0.468387    36A      0.497385    37A      0.497470
      38A      0.513632    39A      0.556132    40A      0.583814
      41A      0.584210    42A      0.596986    43A      0.597398
      44A      0.609360    45A      0.627177    46A      0.631235
      47A      0.638884    48A      0.639113    49A      0.666447
      50A      0.666828    51A      0.685970    52A      0.685985
      53A      0.757182    54A      0.829759    55A      0.829763
      56A      0.854776    57A      0.922164    58A      0.922438
      59A      0.945338    60A      0.952730    61A      0.965884
      62A      0.966025    63A      1.008583    64A      1.131633
      65A      1.131812    66A      1.154722    67A      1.168009
      68A      1.168134    69A      1.231873    70A      1.279376
      71A      1.279748    72A      1.285579    73A      1.328499
      74A      1.328717    75A      1.364536    76A      1.370535
      77A      1.371049    78A      1.392926    79A      1.406149
      80A      1.406836    81A      1.420964    82A      1.421482
      83A      1.427445    84A      1.491647    85A      1.508168
      86A      1.546740    87A      1.546965    88A      1.581857
      89A      1.582230    90A      1.672441    91A      1.743463
      92A      1.744020    93A      1.777637    94A      1.832384
      95A      1.833226    96A      1.970963    97A      2.024175
      98A      2.024336    99A      2.038615   100A      2.057350
     101A      2.059225   102A      2.745750   103A      2.745912
     104A      2.811320   105A      2.815826   106A      2.901668
     107A      2.902387   108A      2.924524   109A      2.931492
     110A      2.931827   111A      2.959432   112A      2.967983
     113A      2.968488   114A      3.041123   115A      3.079941
     116A      3.080444   117A      3.085239   118A      3.185056
     119A      3.185323   120A      3.188030   121A      3.290157
     122A      3.290256   123A      3.331034   124A      3.331902
     125A      3.384109   126A      3.493572   127A      3.494104
     128A      3.512659   129A      3.528974   130A      3.576667
     131A      3.580735   132A      3.582327   133A      3.670048
     134A      3.670201   135A      3.691062   136A      3.724904
     137A      3.725258   138A      3.779519   139A      3.782065
     140A      3.817099   141A      3.920688   142A      3.921550
     143A      4.042863   144A      4.114619   145A      4.116653
     146A      4.151582   147A      4.152531   148A      4.184497
     149A      4.207083   150A      4.208016   151A      4.209394
     152A      4.211706   153A      4.320694   154A      4.321803
     155A      4.359941   156A      4.429646   157A      4.430592
     158A      4.444316   159A      4.521466   160A      4.522955
     161A      4.586745   162A      4.588082   163A      4.624046
     164A      4.717780   165A      4.779234   166A      4.780369
     167A      4.837473   168A      4.966896   169A      5.005291
     170A      5.006571   171A      5.228478   172A      5.243172
     173A      5.243445   174A      5.356453   175A      5.358413
     176A      5.478466

    Final Occupation by Irrep:
              A
    DOCC [    16 ]
    SOCC [     1 ]

  @DF-UKS Final Energy:  -157.81308852902245

   => Energetics <=

    Nuclear Repulsion Energy =            125.3573068949797289
    One-Electron Energy =                -458.6781373788071505
    Two-Electron Energy =                 195.8108661508639443
    DFT Exchange-Correlation Energy =     -20.3031241960589668
    Empirical Dispersion Energy =           0.0000000000000000
    VV10 Nonlocal Energy =                  0.0000000000000000
    Total Energy =                       -157.8130885290224512

  UHF NO Occupations:
  HONO-2 :   15  A 1.9995983
  HONO-1 :   16  A 1.9989811
  HONO-0 :   17  A 1.0000000
  LUNO+0 :   18  A 0.0010189
  LUNO+1 :   19  A 0.0004017
  LUNO+2 :   20  A 0.0001978
  LUNO+3 :   21  A 0.0001966

Computation Completed

Properties will be evaluated at   0.000000,   0.000000,   0.000000 [a0]

Properties computed using the SCF density matrix

  Nuclear Dipole Moment: [e a0]
     X:     0.8276      Y:    -0.0000      Z:     0.0033

  Electronic Dipole Moment: [e a0]
     X:    -0.7503      Y:     0.0000      Z:    -0.0033

  Dipole Moment: [e a0]
     X:     0.0773      Y:     0.0000      Z:     0.0000     Total:     0.0773

  Dipole Moment: [D]
     X:     0.1964      Y:     0.0000      Z:     0.0001     Total:     0.1964

*** tstop() called on n033 at Fri Nov  5 15:00:46 2021
Module time:
	user time   =     634.97 seconds =      10.58 minutes
	system time =      12.22 seconds =       0.20 minutes
	total time  =        163 seconds =       2.72 minutes
Total time:
	user time   =     634.97 seconds =      10.58 minutes
	system time =      12.22 seconds =       0.20 minutes
	total time  =        163 seconds =       2.72 minutes
Grab this energy -157.81308852902245
    Psi4 stopped on: Friday, 05 November 2021 03:00PM
    Psi4 wall time for execution: 0:02:42.70

*** Psi4 exiting successfully. Buy a developer a beer!
