                               Psi4 1.4a2.dev629

  ==> Input File <==

--------------------------------------------------------------------------
import os
memory 14 GB

molecule {
 C   -0.3233395021    0.0019964350    0.0010201690
 C    0.0605673137   -1.3996137601   -2.4279940131
 C    0.0608653730    2.8009128597   -0.0018021459
 C    0.0618664460   -1.4008301040    2.4265004758
 H    2.0868934329   -1.6424343603   -2.8509536032
 H   -0.7667380671   -0.3909106921   -4.0293992722
 H   -0.7643687277   -3.2905659533   -2.3439304306
 H    2.0870195020    3.2835130259    0.0007006186
 H   -0.7649915955    3.6803847727    1.6760169092
 H   -0.7652850725    3.6805632758   -1.6754534227
 H    2.0867496222   -1.6419185541    2.8514467702
 H   -0.7648908390   -3.2902924966    2.3443499691
 H   -0.7669557625   -0.3908287623    4.0294979757
units bohr
0 2
}

basis {

assign 6-31g_2dfp_

[ 6-31g_2dfp_ ]

spherical

!----------------------------------------------------------------------
! Basis Set Exchange
! Version v0.8.13
! https://www.basissetexchange.org
!----------------------------------------------------------------------
!   Basis set: 6-31G(2df,p)
! Description: 6-31G(2df,p)
!        Role: orbital
!     Version: 0  (Data from the original Basis Set Exchange)
!----------------------------------------------------------------------

****
H     0
S    3   1.00
     18.7311370              0.03349460
      2.8253937              0.23472695
      0.6401217              0.81375733
S    1   1.00
      0.1612778              1.00000000
P    1   1.00
      1.5000000              1.0000000
P    1   1.00
      0.3750000              1.0000000
****
B     0
S    6   1.00
   2068.8823000              0.0018663
    310.6495700              0.0142515
     70.6830330              0.0695516
     19.8610800              0.2325729
      6.2993048              0.4670787
      2.1270270              0.3634314
SP   3   1.00
      4.7279710             -0.1303938              0.0745976
      1.1903377             -0.1307889              0.3078467
      0.3594117              1.1309444              0.7434568
SP   1   1.00
      0.1267512              1.0000000              1.0000000
D    1   1.00
      0.8020000              1.0000000
D    1   1.00
      0.2005000              1.0000000
F    1   1.00
      0.5000000              1.0000000
****
C     0
S    6   1.00
   3047.5249000              0.0018347
    457.3695100              0.0140373
    103.9486900              0.0688426
     29.2101550              0.2321844
      9.2866630              0.4679413
      3.1639270              0.3623120
SP   3   1.00
      7.8682724             -0.1193324              0.0689991
      1.8812885             -0.1608542              0.3164240
      0.5442493              1.1434564              0.7443083
SP   1   1.00
      0.1687144              1.0000000              1.0000000
D    1   1.00
      1.2520000              1.0000000
D    1   1.00
      0.3130000              1.0000000
F    1   1.00
      0.8000000              1.0000000
****
N     0
S    6   1.00
   4173.5110000              0.0018348
    627.4579000              0.0139950
    142.9021000              0.0685870
     40.2343300              0.2322410
     12.8202100              0.4690700
      4.3904370              0.3604550
SP   3   1.00
     11.6263580             -0.1149610              0.0675800
      2.7162800             -0.1691180              0.3239070
      0.7722180              1.1458520              0.7408950
SP   1   1.00
      0.2120313              1.0000000              1.0000000
D    1   1.00
      1.8260000              1.0000000
D    1   1.00
      0.4565000              1.0000000
F    1   1.00
      1.0000000              1.0000000
****
O     0
S    6   1.00
   5484.6717000              0.0018311
    825.2349500              0.0139501
    188.0469600              0.0684451
     52.9645000              0.2327143
     16.8975700              0.4701930
      5.7996353              0.3585209
SP   3   1.00
     15.5396160             -0.1107775              0.0708743
      3.5999336             -0.1480263              0.3397528
      1.0137618              1.1307670              0.7271586
SP   1   1.00
      0.2700058              1.0000000              1.0000000
D    1   1.00
      2.5840000              1.0000000
D    1   1.00
      0.6460000              1.0000000
F    1   1.00
      1.4000000              1.0000000
****
F     0
S    6   1.00
   7001.7130900              0.0018196169
   1051.3660900              0.0139160796
    239.2856900              0.0684053245
     67.3974453              0.233185760
     21.5199573              0.471267439
      7.40310130             0.356618546
SP   3   1.00
     20.8479528             -0.108506975            0.0716287243
      4.80830834            -0.146451658            0.3459121030
      1.34406986             1.128688580            0.7224699570
SP   1   1.00
      0.358151393            1.0000000              1.0000000
D    1   1.00
      3.5000000              1.0000000
D    1   1.00
      0.8750000              1.0000000
F    1   1.00
      1.8500000              1.0000000
****
Al     0
S    6   1.00
  13983.1000000              0.00194267
   2098.7500000              0.0148599
    477.7050000              0.0728494
    134.3600000              0.2468300
     42.8709000              0.4872580
     14.5189000              0.3234960
SP   6   1.00
    239.6680000             -0.00292619             0.00460285
     57.4419000             -0.0374080              0.0331990
     18.2859000             -0.1144870              0.1362820
      6.5991400              0.1156350              0.3304760
      2.4904900              0.6125950              0.4491460
      0.9445400              0.3937990              0.2657040
SP   3   1.00
      1.2779000             -0.2276060             -0.0175130
      0.3975900              0.00144583             0.2445330
      0.1600950              1.0927900              0.8049340
SP   1   1.00
      0.0556577              1.0000000              1.0000000
D    1   1.00
      0.6500000              1.0000000
D    1   1.00
      0.1625000              1.0000000
F    1   1.00
      0.2500000              1.0000000
****
Si     0
S    6   1.00
  16115.9000000              0.00195948
   2425.5800000              0.01492880
    553.8670000              0.07284780
    156.3400000              0.24613000
     50.0683000              0.48591400
     17.0178000              0.32500200
SP   6   1.00
    292.7180000             -0.00278094             0.00443826
     69.8731000             -0.03571460             0.03266790
     22.3363000             -0.11498500             0.13472100
      8.1503900              0.09356340             0.32867800
      3.1345800              0.60301700             0.44964000
      1.2254300              0.41895900             0.26137200
SP   3   1.00
      1.7273800             -0.24463000            -0.01779510
      0.5729220              0.00431572             0.25353900
      0.2221920              1.09818000             0.80066900
SP   1   1.00
      0.0778369              1.00000000             1.00000000
D    1   1.00
      0.9000000              1.0000000
D    1   1.00
      0.2250000              1.0000000
F    1   1.00
      0.3200000              1.0000000
****
P     0
S    6   1.00
  19413.3000000              0.0018516
   2909.4200000              0.0142062
    661.3640000              0.0699995
    185.7590000              0.2400790
     59.1943000              0.4847620
     20.0310000              0.3352000
SP   6   1.00
    339.4780000             -0.00278217             0.00456462
     81.0101000             -0.0360499              0.03369360
     25.8780000             -0.1166310              0.13975500
      9.4522100              0.0968328              0.33936200
      3.6656600              0.6144180              0.45092100
      1.4674600              0.4037980              0.23858600
SP   3   1.00
      2.1562300             -0.2529230             -0.01776530
      0.7489970              0.0328517              0.27405800
      0.2831450              1.0812500              0.78542100
SP   1   1.00
      0.0998317              1.0000000              1.00000000
D    1   1.00
      1.1000000              1.0000000
D    1   1.00
      0.2750000              1.0000000
F    1   1.00
      0.4500000              1.0000000
****
S     0
S    6   1.00
  21917.1000000              0.0018690
   3301.4900000              0.0142300
    754.1460000              0.0696960
    212.7110000              0.2384870
     67.9896000              0.4833070
     23.0515000              0.3380740
SP   6   1.00
    423.7350000             -0.0023767              0.0040610
    100.7100000             -0.0316930              0.0306810
     32.1599000             -0.1133170              0.1304520
     11.8079000              0.0560900              0.3272050
      4.6311000              0.5922550              0.4528510
      1.8702500              0.4550060              0.2560420
SP   3   1.00
      2.6158400             -0.2503740             -0.0145110
      0.9221670              0.0669570              0.3102630
      0.3412870              1.0545100              0.7544830
SP   1   1.00
      0.1171670              1.0000000              1.0000000
D    1   1.00
      1.3000000              1.0000000
D    1   1.00
      0.3250000              1.0000000
F    1   1.00
      0.5500000              1.0000000
****
Cl     0
S    6   1.00
  25180.1000000              0.0018330
   3780.3500000              0.0140340
    860.4740000              0.0690970
    242.1450000              0.2374520
     77.3349000              0.4830340
     26.2470000              0.3398560
SP   6   1.00
    491.7650000             -0.0022974              0.0039894
    116.9840000             -0.0307140              0.0303180
     37.4153000             -0.1125280              0.1298800
     13.7834000              0.0450160              0.3279510
      5.4521500              0.5893530              0.4535270
      2.2258800              0.4652060              0.2521540
SP   3   1.00
      3.1864900             -0.2518300             -0.0142990
      1.1442700              0.0615890              0.3235720
      0.4203770              1.0601800              0.7435070
SP   1   1.00
      0.1426570              1.0000000              1.0000000
D    1   1.00
      1.5000000              1.0000000
D    1   1.00
      0.3750000              1.0000000
F    1   1.00
      0.7000000              1.0000000
****
}

set {
reference uhf
freeze_core true
e_convergence 10
d_convergence 10
dft_spherical_points 1202
dft_radial_points 99
}

e = energy('b3lyp')

print_out('Grab this energy {0}'.format(e))
--------------------------------------------------------------------------

    Molecular point group: c1

    Geometry (in Bohr), charge = 0, multiplicity = 2:

       Center              X                  Y                   Z               Mass
    ------------   -----------------  -----------------  -----------------  -----------------
         C           -0.323339428034     0.001522004672     0.001458449426    12.000000000000
         C            0.060567387766    -1.400088190428    -2.427555732674    12.000000000000
         C            0.060865447066     2.800438429372    -0.001363865474    12.000000000000
         C            0.061866520066    -1.401304534328     2.426938756226    12.000000000000
         H            2.086893506966    -1.642908790628    -2.850515322774     1.007825032230
         H           -0.766737993034    -0.391385122428    -4.028960991774     1.007825032230
         H           -0.764368653634    -3.291040383628    -2.343492150174     1.007825032230
         H            2.087019576066     3.283038595572     0.001138899026     1.007825032230
         H           -0.764991521434     3.679910342372     1.676455189626     1.007825032230
         H           -0.765284998434     3.680088845472    -1.675015142274     1.007825032230
         H            2.086749696266    -1.642392984428     2.851885050626     1.007825032230
         H           -0.764890764934    -3.290766926928     2.344788249526     1.007825032230
         H           -0.766955688434    -0.391303192628     4.029936256126     1.007825032230

  Charge       = 0
  Multiplicity = 2
  Basis Set: ANONYMOUS480EB351
    Blend: 6-31G_2DFP_
  Basis Set: (ANONYMOUS480EB351 AUX)
    Blend: DEF2-UNIVERSAL-JKFIT

    Orbital Energies [Eh]
    ---------------------

    Alpha Occupied:

       1A    -10.180342     2A    -10.167137     3A    -10.167077
       4A    -10.166832     5A     -0.797767     6A     -0.686332
       7A     -0.686041     8A     -0.530776     9A     -0.441130
      10A     -0.434737    11A     -0.434600    12A     -0.382653
      13A     -0.382545    14A     -0.363610    15A     -0.338300
      16A     -0.337696    17A     -0.168960

    Alpha Virtual:

      18A      0.076072    19A      0.134107    20A      0.134204
      21A      0.142538    22A      0.142715    23A      0.154880
      24A      0.178713    25A      0.178843    26A      0.203548
      27A      0.214804    28A      0.275688    29A      0.276282
      30A      0.399112    31A      0.399338    32A      0.403351
      33A      0.424044    34A      0.424154    35A      0.456593
      36A      0.495321    37A      0.495459    38A      0.512159
      39A      0.513979    40A      0.578530    41A      0.579104
      42A      0.591337    43A      0.591925    44A      0.602576
      45A      0.624756    46A      0.631770    47A      0.636211
      48A      0.636301    49A      0.663316    50A      0.663506
      51A      0.683825    52A      0.683883    53A      0.734994
      54A      0.825192    55A      0.825620    56A      0.853916
      57A      0.914849    58A      0.915190    59A      0.944123
      60A      0.944611    61A      0.960611    62A      0.961981
      63A      1.003463    64A      1.127880    65A      1.128325
      66A      1.142212    67A      1.163162    68A      1.163397
      69A      1.223326    70A      1.274251    71A      1.274724
      72A      1.279351    73A      1.324299    74A      1.324417
      75A      1.355995    76A      1.365764    77A      1.366339
      78A      1.392436    79A      1.403656    80A      1.404462
      81A      1.416632    82A      1.417596    83A      1.427917
      84A      1.491494    85A      1.499079    86A      1.542503
      87A      1.543155    88A      1.574131    89A      1.574764
      90A      1.669822    91A      1.739024    92A      1.739807
      93A      1.768331    94A      1.830902    95A      1.831900
      96A      1.971724    97A      2.018018    98A      2.018657
      99A      2.019721   100A      2.051635   101A      2.053646
     102A      2.738198   103A      2.738768   104A      2.790929
     105A      2.811417   106A      2.889225   107A      2.890645
     108A      2.894990   109A      2.929332   110A      2.929665
     111A      2.958992   112A      2.964048   113A      2.964709
     114A      3.034010   115A      3.071104   116A      3.071463
     117A      3.084350   118A      3.168535   119A      3.169013
     120A      3.180604   121A      3.285091   122A      3.285536
     123A      3.326827   124A      3.327486   125A      3.375622
     126A      3.489968   127A      3.490323   128A      3.514026
     129A      3.525307   130A      3.567965   131A      3.568742
     132A      3.575240   133A      3.666101   134A      3.666595
     135A      3.679668   136A      3.693707   137A      3.694587
     138A      3.775559   139A      3.778053   140A      3.789152
     141A      3.911787   142A      3.912671   143A      4.034455
     144A      4.110081   145A      4.112643   146A      4.147233
     147A      4.148980   148A      4.173290   149A      4.202567
     150A      4.203050   151A      4.203172   152A      4.210859
     153A      4.314810   154A      4.317067   155A      4.359021
     156A      4.423831   157A      4.425045   158A      4.443479
     159A      4.516378   160A      4.517283   161A      4.577813
     162A      4.578706   163A      4.617521   164A      4.709461
     165A      4.773540   166A      4.775644   167A      4.836960
     168A      4.962858   169A      5.002488   170A      5.003414
     171A      5.228028   172A      5.246300   173A      5.247340
     174A      5.354787   175A      5.356217   176A      5.479358

    Beta Occupied:

       1A    -10.167894     2A    -10.167837     3A    -10.167593
       4A    -10.166519     5A     -0.781092     6A     -0.684127
       7A     -0.683851     8A     -0.511747     9A     -0.431109
      10A     -0.430980    11A     -0.421818    12A     -0.376742
      13A     -0.376628    14A     -0.362593    15A     -0.333421
      16A     -0.332821

    Beta Virtual:

      17A     -0.025742    18A      0.077081    19A      0.134991
      20A      0.135100    21A      0.144419    22A      0.144575
      23A      0.163339    24A      0.182404    25A      0.182494
      26A      0.215034    27A      0.218930    28A      0.282051
      29A      0.282616    30A      0.400284    31A      0.400511
      32A      0.419787    33A      0.426856    34A      0.426968
      35A      0.468500    36A      0.497585    37A      0.497715
      38A      0.513894    39A      0.556324    40A      0.584078
      41A      0.584655    42A      0.597530    43A      0.598092
      44A      0.609997    45A      0.628134    46A      0.631929
      47A      0.639477    48A      0.639603    49A      0.666875
      50A      0.667075    51A      0.686439    52A      0.686539
      53A      0.757517    54A      0.830338    55A      0.830811
      56A      0.855269    57A      0.922845    58A      0.923136
      59A      0.945960    60A      0.953535    61A      0.965978
      62A      0.967231    63A      1.008703    64A      1.131835
      65A      1.132429    66A      1.155583    67A      1.168307
      68A      1.168405    69A      1.232298    70A      1.279828
      71A      1.280340    72A      1.285107    73A      1.329277
      74A      1.329418    75A      1.365412    76A      1.371001
      77A      1.371588    78A      1.393498    79A      1.407094
      80A      1.407951    81A      1.421698    82A      1.422627
      83A      1.428190    84A      1.492542    85A      1.509523
      86A      1.546901    87A      1.547572    88A      1.582011
      89A      1.582628    90A      1.674669    91A      1.744780
      92A      1.745576    93A      1.779107    94A      1.834760
      95A      1.835754    96A      1.972584    97A      2.025037
      98A      2.025846    99A      2.039693   100A      2.058315
     101A      2.060396   102A      2.746552   103A      2.747087
     104A      2.811830   105A      2.816062   106A      2.901954
     107A      2.903328   108A      2.924658   109A      2.931780
     110A      2.932183   111A      2.960056   112A      2.968609
     113A      2.969234   114A      3.041944   115A      3.081014
     116A      3.081374   117A      3.086166   118A      3.184223
     119A      3.184803   120A      3.188310   121A      3.289912
     122A      3.290312   123A      3.330646   124A      3.331276
     125A      3.383441   126A      3.492709   127A      3.493038
     128A      3.512394   129A      3.528360   130A      3.574898
     131A      3.581466   132A      3.582111   133A      3.670823
     134A      3.671421   135A      3.692949   136A      3.725550
     137A      3.725971   138A      3.780130   139A      3.782536
     140A      3.817697   141A      3.921597   142A      3.922494
     143A      4.045341   144A      4.117006   145A      4.119351
     146A      4.154423   147A      4.156214   148A      4.187342
     149A      4.208909   150A      4.209082   151A      4.210640
     152A      4.215334   153A      4.322206   154A      4.324546
     155A      4.362389   156A      4.432066   157A      4.433226
     158A      4.446378   159A      4.524183   160A      4.525057
     161A      4.588429   162A      4.589289   163A      4.624717
     164A      4.719806   165A      4.780540   166A      4.782551
     167A      4.839879   168A      4.967652   169A      5.006519
     170A      5.007461   171A      5.233743   172A      5.248081
     173A      5.249129   174A      5.361245   175A      5.362720
     176A      5.481680

    Final Occupation by Irrep:
              A
    DOCC [    16 ]
    SOCC [     1 ]

  @DF-UKS Final Energy:  -157.81306677794879

   => Energetics <=

    Nuclear Repulsion Energy =            125.3946342960526010
    One-Electron Energy =                -458.7489259744271521
    Two-Electron Energy =                 195.8483681344902720
    DFT Exchange-Correlation Energy =     -20.3071432340644833
    Empirical Dispersion Energy =           0.0000000000000000
    VV10 Nonlocal Energy =                  0.0000000000000000
    Total Energy =                       -157.8130667779487908

  UHF NO Occupations:
  HONO-2 :   15  A 1.9996009
  HONO-1 :   16  A 1.9989804
  HONO-0 :   17  A 1.0000000
  LUNO+0 :   18  A 0.0010196
  LUNO+1 :   19  A 0.0003991
  LUNO+2 :   20  A 0.0001981
  LUNO+3 :   21  A 0.0001970

Computation Completed

Properties will be evaluated at   0.000000,   0.000000,   0.000000 [a0]

Properties computed using the SCF density matrix

  Nuclear Dipole Moment: [e a0]
     X:     0.8272      Y:    -0.0034      Z:     0.0031

  Electronic Dipole Moment: [e a0]
     X:    -0.7493      Y:     0.0034      Z:    -0.0030

  Dipole Moment: [e a0]
     X:     0.0779      Y:     0.0000      Z:     0.0000     Total:     0.0779

  Dipole Moment: [D]
     X:     0.1980      Y:     0.0001      Z:     0.0001     Total:     0.1980

*** tstop() called on n033 at Fri Nov  5 12:09:00 2021
Module time:
	user time   =     632.73 seconds =      10.55 minutes
	system time =      12.25 seconds =       0.20 minutes
	total time  =        162 seconds =       2.70 minutes
Total time:
	user time   =     632.73 seconds =      10.55 minutes
	system time =      12.25 seconds =       0.20 minutes
	total time  =        162 seconds =       2.70 minutes
Grab this energy -157.8130667779488
    Psi4 stopped on: Friday, 05 November 2021 12:09PM
    Psi4 wall time for execution: 0:02:42.17

*** Psi4 exiting successfully. Buy a developer a beer!
