                               Psi4 1.4a2.dev629

  ==> Input File <==

--------------------------------------------------------------------------
import os
memory 14 GB

molecule {
 C   -0.3251198246   -0.0005000856   -0.0000000000
 C    0.0598936760   -1.4013197523   -2.4264794137
 C    0.0618403010    2.8019183774   -0.0000000000
 C    0.0598936760   -1.4013197523    2.4264794137
 H    2.0893151324   -1.6410915963   -2.8419158599
 H   -0.7669812081   -0.3916660146   -4.0277160769
 H   -0.7650706180   -3.2913579808   -2.3526475480
 H    2.0829956526    3.2825686139   -0.0000000000
 H   -0.7633189851    3.6834297344    1.6790668810
 H   -0.7633189851    3.6834297344   -1.6790668810
 H    2.0893151324   -1.6410915963    2.8419158599
 H   -0.7650706180   -3.2913579808    2.3526475480
 H   -0.7669812081   -0.3916660146    4.0277160769
units bohr
0 2
}

basis {

assign 6-31g_2dfp_

[ 6-31g_2dfp_ ]

spherical

!----------------------------------------------------------------------
! Basis Set Exchange
! Version v0.8.13
! https://www.basissetexchange.org
!----------------------------------------------------------------------
!   Basis set: 6-31G(2df,p)
! Description: 6-31G(2df,p)
!        Role: orbital
!     Version: 0  (Data from the original Basis Set Exchange)
!----------------------------------------------------------------------

****
H     0
S    3   1.00
     18.7311370              0.03349460
      2.8253937              0.23472695
      0.6401217              0.81375733
S    1   1.00
      0.1612778              1.00000000
P    1   1.00
      1.5000000              1.0000000
P    1   1.00
      0.3750000              1.0000000
****
B     0
S    6   1.00
   2068.8823000              0.0018663
    310.6495700              0.0142515
     70.6830330              0.0695516
     19.8610800              0.2325729
      6.2993048              0.4670787
      2.1270270              0.3634314
SP   3   1.00
      4.7279710             -0.1303938              0.0745976
      1.1903377             -0.1307889              0.3078467
      0.3594117              1.1309444              0.7434568
SP   1   1.00
      0.1267512              1.0000000              1.0000000
D    1   1.00
      0.8020000              1.0000000
D    1   1.00
      0.2005000              1.0000000
F    1   1.00
      0.5000000              1.0000000
****
C     0
S    6   1.00
   3047.5249000              0.0018347
    457.3695100              0.0140373
    103.9486900              0.0688426
     29.2101550              0.2321844
      9.2866630              0.4679413
      3.1639270              0.3623120
SP   3   1.00
      7.8682724             -0.1193324              0.0689991
      1.8812885             -0.1608542              0.3164240
      0.5442493              1.1434564              0.7443083
SP   1   1.00
      0.1687144              1.0000000              1.0000000
D    1   1.00
      1.2520000              1.0000000
D    1   1.00
      0.3130000              1.0000000
F    1   1.00
      0.8000000              1.0000000
****
N     0
S    6   1.00
   4173.5110000              0.0018348
    627.4579000              0.0139950
    142.9021000              0.0685870
     40.2343300              0.2322410
     12.8202100              0.4690700
      4.3904370              0.3604550
SP   3   1.00
     11.6263580             -0.1149610              0.0675800
      2.7162800             -0.1691180              0.3239070
      0.7722180              1.1458520              0.7408950
SP   1   1.00
      0.2120313              1.0000000              1.0000000
D    1   1.00
      1.8260000              1.0000000
D    1   1.00
      0.4565000              1.0000000
F    1   1.00
      1.0000000              1.0000000
****
O     0
S    6   1.00
   5484.6717000              0.0018311
    825.2349500              0.0139501
    188.0469600              0.0684451
     52.9645000              0.2327143
     16.8975700              0.4701930
      5.7996353              0.3585209
SP   3   1.00
     15.5396160             -0.1107775              0.0708743
      3.5999336             -0.1480263              0.3397528
      1.0137618              1.1307670              0.7271586
SP   1   1.00
      0.2700058              1.0000000              1.0000000
D    1   1.00
      2.5840000              1.0000000
D    1   1.00
      0.6460000              1.0000000
F    1   1.00
      1.4000000              1.0000000
****
F     0
S    6   1.00
   7001.7130900              0.0018196169
   1051.3660900              0.0139160796
    239.2856900              0.0684053245
     67.3974453              0.233185760
     21.5199573              0.471267439
      7.40310130             0.356618546
SP   3   1.00
     20.8479528             -0.108506975            0.0716287243
      4.80830834            -0.146451658            0.3459121030
      1.34406986             1.128688580            0.7224699570
SP   1   1.00
      0.358151393            1.0000000              1.0000000
D    1   1.00
      3.5000000              1.0000000
D    1   1.00
      0.8750000              1.0000000
F    1   1.00
      1.8500000              1.0000000
****
Al     0
S    6   1.00
  13983.1000000              0.00194267
   2098.7500000              0.0148599
    477.7050000              0.0728494
    134.3600000              0.2468300
     42.8709000              0.4872580
     14.5189000              0.3234960
SP   6   1.00
    239.6680000             -0.00292619             0.00460285
     57.4419000             -0.0374080              0.0331990
     18.2859000             -0.1144870              0.1362820
      6.5991400              0.1156350              0.3304760
      2.4904900              0.6125950              0.4491460
      0.9445400              0.3937990              0.2657040
SP   3   1.00
      1.2779000             -0.2276060             -0.0175130
      0.3975900              0.00144583             0.2445330
      0.1600950              1.0927900              0.8049340
SP   1   1.00
      0.0556577              1.0000000              1.0000000
D    1   1.00
      0.6500000              1.0000000
D    1   1.00
      0.1625000              1.0000000
F    1   1.00
      0.2500000              1.0000000
****
Si     0
S    6   1.00
  16115.9000000              0.00195948
   2425.5800000              0.01492880
    553.8670000              0.07284780
    156.3400000              0.24613000
     50.0683000              0.48591400
     17.0178000              0.32500200
SP   6   1.00
    292.7180000             -0.00278094             0.00443826
     69.8731000             -0.03571460             0.03266790
     22.3363000             -0.11498500             0.13472100
      8.1503900              0.09356340             0.32867800
      3.1345800              0.60301700             0.44964000
      1.2254300              0.41895900             0.26137200
SP   3   1.00
      1.7273800             -0.24463000            -0.01779510
      0.5729220              0.00431572             0.25353900
      0.2221920              1.09818000             0.80066900
SP   1   1.00
      0.0778369              1.00000000             1.00000000
D    1   1.00
      0.9000000              1.0000000
D    1   1.00
      0.2250000              1.0000000
F    1   1.00
      0.3200000              1.0000000
****
P     0
S    6   1.00
  19413.3000000              0.0018516
   2909.4200000              0.0142062
    661.3640000              0.0699995
    185.7590000              0.2400790
     59.1943000              0.4847620
     20.0310000              0.3352000
SP   6   1.00
    339.4780000             -0.00278217             0.00456462
     81.0101000             -0.0360499              0.03369360
     25.8780000             -0.1166310              0.13975500
      9.4522100              0.0968328              0.33936200
      3.6656600              0.6144180              0.45092100
      1.4674600              0.4037980              0.23858600
SP   3   1.00
      2.1562300             -0.2529230             -0.01776530
      0.7489970              0.0328517              0.27405800
      0.2831450              1.0812500              0.78542100
SP   1   1.00
      0.0998317              1.0000000              1.00000000
D    1   1.00
      1.1000000              1.0000000
D    1   1.00
      0.2750000              1.0000000
F    1   1.00
      0.4500000              1.0000000
****
S     0
S    6   1.00
  21917.1000000              0.0018690
   3301.4900000              0.0142300
    754.1460000              0.0696960
    212.7110000              0.2384870
     67.9896000              0.4833070
     23.0515000              0.3380740
SP   6   1.00
    423.7350000             -0.0023767              0.0040610
    100.7100000             -0.0316930              0.0306810
     32.1599000             -0.1133170              0.1304520
     11.8079000              0.0560900              0.3272050
      4.6311000              0.5922550              0.4528510
      1.8702500              0.4550060              0.2560420
SP   3   1.00
      2.6158400             -0.2503740             -0.0145110
      0.9221670              0.0669570              0.3102630
      0.3412870              1.0545100              0.7544830
SP   1   1.00
      0.1171670              1.0000000              1.0000000
D    1   1.00
      1.3000000              1.0000000
D    1   1.00
      0.3250000              1.0000000
F    1   1.00
      0.5500000              1.0000000
****
Cl     0
S    6   1.00
  25180.1000000              0.0018330
   3780.3500000              0.0140340
    860.4740000              0.0690970
    242.1450000              0.2374520
     77.3349000              0.4830340
     26.2470000              0.3398560
SP   6   1.00
    491.7650000             -0.0022974              0.0039894
    116.9840000             -0.0307140              0.0303180
     37.4153000             -0.1125280              0.1298800
     13.7834000              0.0450160              0.3279510
      5.4521500              0.5893530              0.4535270
      2.2258800              0.4652060              0.2521540
SP   3   1.00
      3.1864900             -0.2518300             -0.0142990
      1.1442700              0.0615890              0.3235720
      0.4203770              1.0601800              0.7435070
SP   1   1.00
      0.1426570              1.0000000              1.0000000
D    1   1.00
      1.5000000              1.0000000
D    1   1.00
      0.3750000              1.0000000
F    1   1.00
      0.7000000              1.0000000
****
}

set {
reference uhf
freeze_core true
e_convergence 10
d_convergence 10
dft_spherical_points 1202
dft_radial_points 99
}

e = energy('b3lyp')

print_out('Grab this energy {0}'.format(e))
--------------------------------------------------------------------------

    Molecular point group: cs

    Geometry (in Bohr), charge = 0, multiplicity = 2:

       Center              X                  Y                   Z               Mass
    ------------   -----------------  -----------------  -----------------  -----------------
         C           -0.324454908568    -0.000264441859     0.000000000000    12.000000000000
         C            0.060558592032    -1.401084108559    -2.426479413700    12.000000000000
         C            0.062505217032     2.802154021141     0.000000000000    12.000000000000
         C            0.060558592032    -1.401084108559     2.426479413700    12.000000000000
         H            2.089980048432    -1.640855952559    -2.841915859900     1.007825032230
         H           -0.766316292068    -0.391430370859    -4.027716076900     1.007825032230
         H           -0.764405701968    -3.291122337059    -2.352647548000     1.007825032230
         H            2.083660568632     3.282804257641     0.000000000000     1.007825032230
         H           -0.762654069068     3.683665378141     1.679066881000     1.007825032230
         H           -0.762654069068     3.683665378141    -1.679066881000     1.007825032230
         H            2.089980048432    -1.640855952559     2.841915859900     1.007825032230
         H           -0.764405701968    -3.291122337059     2.352647548000     1.007825032230
         H           -0.766316292068    -0.391430370859     4.027716076900     1.007825032230

  Charge       = 0
  Multiplicity = 2
  Basis Set: ANONYMOUS274BE1CB
    Blend: 6-31G_2DFP_
  Basis Set: (ANONYMOUS274BE1CB AUX)
    Blend: DEF2-UNIVERSAL-JKFIT

    Orbital Energies [Eh]
    ---------------------

    Alpha Occupied:

       1Ap   -10.180355     1App  -10.167090     2Ap   -10.167072
       3Ap   -10.167023     4Ap    -0.797702     5Ap    -0.686152
       2App   -0.686149     6Ap    -0.530766     7Ap    -0.441296
       8Ap    -0.434478     3App   -0.434440     9Ap    -0.382774
       4App   -0.382728     5App   -0.363473     6App   -0.338007
      10Ap    -0.337944    11Ap    -0.168871

    Alpha Virtual:

      12Ap     0.076035     7App    0.134039    13Ap     0.134369
       8App    0.142499    14Ap     0.142615    15Ap     0.154674
       9App    0.178728    16Ap     0.178906    17Ap     0.203416
      10App    0.214582    18Ap     0.275871    11App    0.276022
      19Ap     0.398967    12App    0.399037    20Ap     0.403418
      13App    0.424165    21Ap     0.424334    22Ap     0.456357
      23Ap     0.495265    14App    0.495557    15App    0.512350
      24Ap     0.513926    16App    0.578492    25Ap     0.578813
      17App    0.591679    26Ap     0.591983    27Ap     0.602812
      28Ap     0.624700    18App    0.631505    19App    0.636068
      29Ap     0.636258    20App    0.662764    30Ap     0.663520
      31Ap     0.683765    21App    0.684112    32Ap     0.734910
      33Ap     0.825486    22App    0.825517    23App    0.853580
      24App    0.914668    34Ap     0.915098    25App    0.943904
      35Ap     0.945406    26App    0.961437    36Ap     0.961712
      37Ap     1.002723    27App    1.127613    38Ap     1.127702
      39Ap     1.142801    28App    1.162601    40Ap     1.162844
      41Ap     1.223407    29App    1.274362    42Ap     1.274645
      43Ap     1.279157    30App    1.324028    44Ap     1.324125
      45Ap     1.356375    31App    1.365709    46Ap     1.365753
      32App    1.392642    33App    1.403870    47Ap     1.404783
      48Ap     1.416760    34App    1.417778    35App    1.427296
      36App    1.490892    49Ap     1.499392    37App    1.542309
      50Ap     1.543239    51Ap     1.574905    38App    1.575234
      52Ap     1.669757    39App    1.739414    53Ap     1.739656
      54Ap     1.768502    55Ap     1.830319    40App    1.831915
      41App    1.971618    42App    2.017776    56Ap     2.018172
      57Ap     2.018972    43App    2.051222    58Ap     2.053131
      44App    2.738492    59Ap     2.739314    60Ap     2.790700
      45App    2.810909    61Ap     2.889752    46App    2.889805
      62Ap     2.894718    47App    2.929039    63Ap     2.929041
      48App    2.958938    49App    2.964005    64Ap     2.964644
      65Ap     3.033537    50App    3.071719    66Ap     3.071790
      51App    3.084723    67Ap     3.168619    52App    3.169079
      68Ap     3.180443    69Ap     3.285394    53App    3.286044
      70Ap     3.325840    54App    3.326261    71Ap     3.375911
      72Ap     3.490501    55App    3.490794    56App    3.513737
      73Ap     3.525152    74Ap     3.567743    57App    3.567964
      58App    3.574344    59App    3.665740    75Ap     3.667137
      76Ap     3.678555    77Ap     3.694525    60App    3.694773
      78Ap     3.775614    61App    3.775682    79Ap     3.790439
      80Ap     3.912025    62App    3.912235    81Ap     4.035556
      63App    4.110802    82Ap     4.111672    83Ap     4.147755
      64App    4.148904    84Ap     4.173283    85Ap     4.201258
      65App    4.202918    86Ap     4.203370    66App    4.210421
      67App    4.314875    87Ap     4.316508    68App    4.357799
      88Ap     4.424636    69App    4.425309    70App    4.442437
      71App    4.515324    89Ap     4.516715    90Ap     4.577174
      72App    4.577431    91Ap     4.617019    92Ap     4.709169
      73App    4.773760    93Ap     4.774679    74App    4.837915
      94Ap     4.962349    75App    5.002313    95Ap     5.003807
      96Ap     5.227656    76App    5.244781    97Ap     5.248940
      77App    5.353714    98Ap     5.356206    78App    5.479111

    Beta Occupied:

       1App  -10.167843     1Ap   -10.167829     2Ap   -10.167788
       3Ap   -10.166527     4Ap    -0.781024     2App   -0.683958
       5Ap    -0.683951     6Ap    -0.511741     7Ap    -0.430856
       3App   -0.430826     8Ap    -0.421983     9Ap    -0.376891
       4App   -0.376801     5App   -0.362463     6App   -0.333119
      10Ap    -0.333071

    Beta Virtual:

      11Ap    -0.025577    12Ap     0.077048     7App    0.134924
      13Ap     0.135235     8App    0.144384    14Ap     0.144450
      15Ap     0.163082     9App    0.182388    16Ap     0.182602
      10App    0.214809    17Ap     0.218837    18Ap     0.282227
      11App    0.282384    19Ap     0.400133    12App    0.400200
      20Ap     0.419843    13App    0.426982    21Ap     0.427151
      22Ap     0.468187    23Ap     0.497505    14App    0.497811
      15App    0.514080    24Ap     0.556354    16App    0.584036
      25Ap     0.584329    17App    0.597861    26Ap     0.598211
      27Ap     0.610213    28Ap     0.628074    18App    0.631664
      19App    0.639352    29Ap     0.639551    20App    0.666336
      30Ap     0.667030    31Ap     0.686437    21App    0.686748
      32Ap     0.757470    33Ap     0.830636    22App    0.830671
      23App    0.854932    24App    0.922606    34Ap     0.923010
      25App    0.945742    35Ap     0.954253    26App    0.966740
      36Ap     0.967073    37Ap     1.007935    38Ap     1.131668
      27App    1.131699    39Ap     1.156395    28App    1.167644
      40Ap     1.167965    41Ap     1.232275    29App    1.279930
      42Ap     1.280233    43Ap     1.284847    30App    1.328981
      44Ap     1.329073    45Ap     1.365845    46Ap     1.370959
      31App    1.371005    32App    1.393685    33App    1.407278
      47Ap     1.408277    48Ap     1.421848    34App    1.422899
      35App    1.427561    36App    1.491951    49Ap     1.509858
      37App    1.546735    50Ap     1.547637    51Ap     1.582782
      38App    1.583082    52Ap     1.674601    39App    1.745174
      53Ap     1.745423    54Ap     1.779260    55Ap     1.834170
      40App    1.835780    41App    1.972471    42App    2.024111
      56Ap     2.025038    57Ap     2.039868    43App    2.057995
      58Ap     2.059824    44App    2.746826    59Ap     2.747630
      45App    2.811316    60Ap     2.815831    61Ap     2.902478
      46App    2.902612    62Ap     2.924415    47App    2.931471
      63Ap     2.931538    48App    2.959996    49App    2.968499
      64Ap     2.969168    65Ap     3.041479    50App    3.081527
      66Ap     3.081807    51App    3.086559    67Ap     3.184258
      52App    3.184949    68Ap     3.188115    69Ap     3.290205
      53App    3.290876    70Ap     3.329647    54App    3.330114
      71Ap     3.383755    72Ap     3.493204    55App    3.493419
      56App    3.512095    73Ap     3.528235    57App    3.574197
      74Ap     3.581098    58App    3.581422    59App    3.670526
      75Ap     3.672039    76Ap     3.691905    77Ap     3.725976
      60App    3.726257    61App    3.780082    78Ap     3.780143
      79Ap     3.818957    80Ap     3.921866    62App    3.922121
      81Ap     4.046389    63App    4.117548    82Ap     4.118377
      83Ap     4.155103    64App    4.156136    84Ap     4.187368
      85Ap     4.207349    65App    4.208946    86Ap     4.211130
      66App    4.214864    67App    4.322299    87Ap     4.323931
      68App    4.361139    88Ap     4.432846    69App    4.433518
      70App    4.445340    71App    4.523125    89Ap     4.524521
      90Ap     4.587740    72App    4.588024    91Ap     4.624290
      92Ap     4.719407    73App    4.780726    93Ap     4.781647
      74App    4.840828    94Ap     4.967147    75App    5.006355
      95Ap     5.007813    96Ap     5.233385    76App    5.246573
      97Ap     5.250710    77App    5.360183    98Ap     5.362694
      78App    5.481427

    Final Occupation by Irrep:
             Ap   App
    DOCC [    10,    6 ]
    SOCC [     1,    0 ]

  @DF-UKS Final Energy:  -157.81305225326363

   => Energetics <=

    Nuclear Repulsion Energy =            125.3830426494216539
    One-Electron Energy =                -458.7262665907247765
    Two-Electron Energy =                 195.8369719769643780
    DFT Exchange-Correlation Energy =     -20.3068002889248937
    Empirical Dispersion Energy =           0.0000000000000000
    VV10 Nonlocal Energy =                  0.0000000000000000
    Total Energy =                       -157.8130522532636348

  UHF NO Occupations:
  HONO-2 :    9 Ap 1.9996022
  HONO-1 :   10 Ap 1.9989785
  HONO-0 :   11 Ap 1.0000000
  LUNO+0 :   12 Ap 0.0010215
  LUNO+1 :   13 Ap 0.0003978
  LUNO+2 :    7App 0.0001979
  LUNO+3 :   14 Ap 0.0001978

Computation Completed

Properties will be evaluated at   0.000000,   0.000000,   0.000000 [a0]

Properties computed using the SCF density matrix

  Nuclear Dipole Moment: [e a0]
     X:     0.8319      Y:     0.0016      Z:     0.0000

  Electronic Dipole Moment: [e a0]
     X:    -0.7535      Y:    -0.0023      Z:     0.0000

  Dipole Moment: [e a0]
     X:     0.0783      Y:    -0.0007      Z:     0.0000     Total:     0.0783

  Dipole Moment: [D]
     X:     0.1991      Y:    -0.0017      Z:     0.0000     Total:     0.1991

*** tstop() called on n061 at Fri Nov  5 14:19:40 2021
Module time:
	user time   =     668.58 seconds =      11.14 minutes
	system time =      17.27 seconds =       0.29 minutes
	total time  =        172 seconds =       2.87 minutes
Total time:
	user time   =     668.58 seconds =      11.14 minutes
	system time =      17.27 seconds =       0.29 minutes
	total time  =        172 seconds =       2.87 minutes
Grab this energy -157.81305225326363
    Psi4 stopped on: Friday, 05 November 2021 02:19PM
    Psi4 wall time for execution: 0:02:52.44

*** Psi4 exiting successfully. Buy a developer a beer!
