                               Psi4 1.4a2.dev629

  ==> Input File <==

--------------------------------------------------------------------------
import os
memory 14 GB

molecule {
 C   -0.3220148466   -0.0000020080   -0.0000000000
 C    0.0620607444   -1.3980782477   -2.4215323205
 C    0.0619412436    2.7961609175    0.0000000000
 C    0.0620607444   -1.3980782477    2.4215323205
 H    2.0833335732   -1.6405907148   -2.8413675953
 H   -0.7642846390   -0.3836436145   -4.0214856919
 H   -0.7644485624   -3.2908284923   -2.3430254011
 H    2.0831947436    3.2810895771    0.0000000000
 H   -0.7645256248    3.6745046693    1.6784670107
 H   -0.7645256248    3.6745046693   -1.6784670107
 H    2.0833335732   -1.6405907148    2.8413675953
 H   -0.7644485624   -3.2908284923    2.3430254011
 H   -0.7642846390   -0.3836436145    4.0214856919
units bohr
0 2
}

basis {

assign 6-31g_2dfp_

[ 6-31g_2dfp_ ]

spherical

!----------------------------------------------------------------------
! Basis Set Exchange
! Version v0.8.13
! https://www.basissetexchange.org
!----------------------------------------------------------------------
!   Basis set: 6-31G(2df,p)
! Description: 6-31G(2df,p)
!        Role: orbital
!     Version: 0  (Data from the original Basis Set Exchange)
!----------------------------------------------------------------------

****
H     0
S    3   1.00
     18.7311370              0.03349460
      2.8253937              0.23472695
      0.6401217              0.81375733
S    1   1.00
      0.1612778              1.00000000
P    1   1.00
      1.5000000              1.0000000
P    1   1.00
      0.3750000              1.0000000
****
B     0
S    6   1.00
   2068.8823000              0.0018663
    310.6495700              0.0142515
     70.6830330              0.0695516
     19.8610800              0.2325729
      6.2993048              0.4670787
      2.1270270              0.3634314
SP   3   1.00
      4.7279710             -0.1303938              0.0745976
      1.1903377             -0.1307889              0.3078467
      0.3594117              1.1309444              0.7434568
SP   1   1.00
      0.1267512              1.0000000              1.0000000
D    1   1.00
      0.8020000              1.0000000
D    1   1.00
      0.2005000              1.0000000
F    1   1.00
      0.5000000              1.0000000
****
C     0
S    6   1.00
   3047.5249000              0.0018347
    457.3695100              0.0140373
    103.9486900              0.0688426
     29.2101550              0.2321844
      9.2866630              0.4679413
      3.1639270              0.3623120
SP   3   1.00
      7.8682724             -0.1193324              0.0689991
      1.8812885             -0.1608542              0.3164240
      0.5442493              1.1434564              0.7443083
SP   1   1.00
      0.1687144              1.0000000              1.0000000
D    1   1.00
      1.2520000              1.0000000
D    1   1.00
      0.3130000              1.0000000
F    1   1.00
      0.8000000              1.0000000
****
N     0
S    6   1.00
   4173.5110000              0.0018348
    627.4579000              0.0139950
    142.9021000              0.0685870
     40.2343300              0.2322410
     12.8202100              0.4690700
      4.3904370              0.3604550
SP   3   1.00
     11.6263580             -0.1149610              0.0675800
      2.7162800             -0.1691180              0.3239070
      0.7722180              1.1458520              0.7408950
SP   1   1.00
      0.2120313              1.0000000              1.0000000
D    1   1.00
      1.8260000              1.0000000
D    1   1.00
      0.4565000              1.0000000
F    1   1.00
      1.0000000              1.0000000
****
O     0
S    6   1.00
   5484.6717000              0.0018311
    825.2349500              0.0139501
    188.0469600              0.0684451
     52.9645000              0.2327143
     16.8975700              0.4701930
      5.7996353              0.3585209
SP   3   1.00
     15.5396160             -0.1107775              0.0708743
      3.5999336             -0.1480263              0.3397528
      1.0137618              1.1307670              0.7271586
SP   1   1.00
      0.2700058              1.0000000              1.0000000
D    1   1.00
      2.5840000              1.0000000
D    1   1.00
      0.6460000              1.0000000
F    1   1.00
      1.4000000              1.0000000
****
F     0
S    6   1.00
   7001.7130900              0.0018196169
   1051.3660900              0.0139160796
    239.2856900              0.0684053245
     67.3974453              0.233185760
     21.5199573              0.471267439
      7.40310130             0.356618546
SP   3   1.00
     20.8479528             -0.108506975            0.0716287243
      4.80830834            -0.146451658            0.3459121030
      1.34406986             1.128688580            0.7224699570
SP   1   1.00
      0.358151393            1.0000000              1.0000000
D    1   1.00
      3.5000000              1.0000000
D    1   1.00
      0.8750000              1.0000000
F    1   1.00
      1.8500000              1.0000000
****
Al     0
S    6   1.00
  13983.1000000              0.00194267
   2098.7500000              0.0148599
    477.7050000              0.0728494
    134.3600000              0.2468300
     42.8709000              0.4872580
     14.5189000              0.3234960
SP   6   1.00
    239.6680000             -0.00292619             0.00460285
     57.4419000             -0.0374080              0.0331990
     18.2859000             -0.1144870              0.1362820
      6.5991400              0.1156350              0.3304760
      2.4904900              0.6125950              0.4491460
      0.9445400              0.3937990              0.2657040
SP   3   1.00
      1.2779000             -0.2276060             -0.0175130
      0.3975900              0.00144583             0.2445330
      0.1600950              1.0927900              0.8049340
SP   1   1.00
      0.0556577              1.0000000              1.0000000
D    1   1.00
      0.6500000              1.0000000
D    1   1.00
      0.1625000              1.0000000
F    1   1.00
      0.2500000              1.0000000
****
Si     0
S    6   1.00
  16115.9000000              0.00195948
   2425.5800000              0.01492880
    553.8670000              0.07284780
    156.3400000              0.24613000
     50.0683000              0.48591400
     17.0178000              0.32500200
SP   6   1.00
    292.7180000             -0.00278094             0.00443826
     69.8731000             -0.03571460             0.03266790
     22.3363000             -0.11498500             0.13472100
      8.1503900              0.09356340             0.32867800
      3.1345800              0.60301700             0.44964000
      1.2254300              0.41895900             0.26137200
SP   3   1.00
      1.7273800             -0.24463000            -0.01779510
      0.5729220              0.00431572             0.25353900
      0.2221920              1.09818000             0.80066900
SP   1   1.00
      0.0778369              1.00000000             1.00000000
D    1   1.00
      0.9000000              1.0000000
D    1   1.00
      0.2250000              1.0000000
F    1   1.00
      0.3200000              1.0000000
****
P     0
S    6   1.00
  19413.3000000              0.0018516
   2909.4200000              0.0142062
    661.3640000              0.0699995
    185.7590000              0.2400790
     59.1943000              0.4847620
     20.0310000              0.3352000
SP   6   1.00
    339.4780000             -0.00278217             0.00456462
     81.0101000             -0.0360499              0.03369360
     25.8780000             -0.1166310              0.13975500
      9.4522100              0.0968328              0.33936200
      3.6656600              0.6144180              0.45092100
      1.4674600              0.4037980              0.23858600
SP   3   1.00
      2.1562300             -0.2529230             -0.01776530
      0.7489970              0.0328517              0.27405800
      0.2831450              1.0812500              0.78542100
SP   1   1.00
      0.0998317              1.0000000              1.00000000
D    1   1.00
      1.1000000              1.0000000
D    1   1.00
      0.2750000              1.0000000
F    1   1.00
      0.4500000              1.0000000
****
S     0
S    6   1.00
  21917.1000000              0.0018690
   3301.4900000              0.0142300
    754.1460000              0.0696960
    212.7110000              0.2384870
     67.9896000              0.4833070
     23.0515000              0.3380740
SP   6   1.00
    423.7350000             -0.0023767              0.0040610
    100.7100000             -0.0316930              0.0306810
     32.1599000             -0.1133170              0.1304520
     11.8079000              0.0560900              0.3272050
      4.6311000              0.5922550              0.4528510
      1.8702500              0.4550060              0.2560420
SP   3   1.00
      2.6158400             -0.2503740             -0.0145110
      0.9221670              0.0669570              0.3102630
      0.3412870              1.0545100              0.7544830
SP   1   1.00
      0.1171670              1.0000000              1.0000000
D    1   1.00
      1.3000000              1.0000000
D    1   1.00
      0.3250000              1.0000000
F    1   1.00
      0.5500000              1.0000000
****
Cl     0
S    6   1.00
  25180.1000000              0.0018330
   3780.3500000              0.0140340
    860.4740000              0.0690970
    242.1450000              0.2374520
     77.3349000              0.4830340
     26.2470000              0.3398560
SP   6   1.00
    491.7650000             -0.0022974              0.0039894
    116.9840000             -0.0307140              0.0303180
     37.4153000             -0.1125280              0.1298800
     13.7834000              0.0450160              0.3279510
      5.4521500              0.5893530              0.4535270
      2.2258800              0.4652060              0.2521540
SP   3   1.00
      3.1864900             -0.2518300             -0.0142990
      1.1442700              0.0615890              0.3235720
      0.4203770              1.0601800              0.7435070
SP   1   1.00
      0.1426570              1.0000000              1.0000000
D    1   1.00
      1.5000000              1.0000000
D    1   1.00
      0.3750000              1.0000000
F    1   1.00
      0.7000000              1.0000000
****
}

set {
reference uhf
freeze_core true
e_convergence 10
d_convergence 10
dft_spherical_points 1202
dft_radial_points 99
}

e = energy('b3lyp')

print_out('Grab this energy {0}'.format(e))
--------------------------------------------------------------------------

    Molecular point group: cs

    Geometry (in Bohr), charge = 0, multiplicity = 2:

       Center              X                  Y                   Z               Mass
    ------------   -----------------  -----------------  -----------------  -----------------
         C           -0.322802199931    -0.000002043615     0.000000000000    12.000000000000
         C            0.061273391069    -1.398078283315    -2.421532320500    12.000000000000
         C            0.061153890269     2.796160881885     0.000000000000    12.000000000000
         C            0.061273391069    -1.398078283315     2.421532320500    12.000000000000
         H            2.082546219869    -1.640590750415    -2.841367595300     1.007825032230
         H           -0.765071992331    -0.383643650115    -4.021485691900     1.007825032230
         H           -0.765235915731    -3.290828527915    -2.343025401100     1.007825032230
         H            2.082407390269     3.281089541485     0.000000000000     1.007825032230
         H           -0.765312978131     3.674504633685     1.678467010700     1.007825032230
         H           -0.765312978131     3.674504633685    -1.678467010700     1.007825032230
         H            2.082546219869    -1.640590750415     2.841367595300     1.007825032230
         H           -0.765235915731    -3.290828527915     2.343025401100     1.007825032230
         H           -0.765071992331    -0.383643650115     4.021485691900     1.007825032230

  Charge       = 0
  Multiplicity = 2
  Basis Set: ANONYMOUSE63FB696
    Blend: 6-31G_2DFP_
  Basis Set: (ANONYMOUSE63FB696 AUX)
    Blend: DEF2-UNIVERSAL-JKFIT

    Orbital Energies [Eh]
    ---------------------

    Alpha Occupied:

       1Ap   -10.179510     2Ap   -10.166665     1App  -10.166665
       3Ap   -10.166619     4Ap    -0.798854     5Ap    -0.686496
       2App   -0.686495     6Ap    -0.530785     7Ap    -0.441816
       3App   -0.435110     8Ap    -0.435109     9Ap    -0.382810
       4App   -0.382808     5App   -0.363314     6App   -0.338133
      10Ap    -0.338133    11Ap    -0.168598

    Alpha Virtual:

      12Ap     0.075957    13Ap     0.134181     7App    0.134182
      14Ap     0.142772     8App    0.142773    15Ap     0.155107
      16Ap     0.179131     9App    0.179131    17Ap     0.204682
      10App    0.214875    11App    0.276530    18Ap     0.276532
      19Ap     0.399321    12App    0.399325    20Ap     0.403214
      13App    0.423635    21Ap     0.423635    22Ap     0.457260
      23Ap     0.495438    14App    0.495439    15App    0.512615
      24Ap     0.514536    25Ap     0.579662    16App    0.579670
      17App    0.592445    26Ap     0.592447    27Ap     0.603782
      28Ap     0.624666    18App    0.631743    19App    0.636698
      29Ap     0.636702    30Ap     0.664375    20App    0.664376
      31Ap     0.684061    21App    0.684062    32Ap     0.734727
      22App    0.825281    33Ap     0.825284    23App    0.855200
      24App    0.915974    34Ap     0.915980    35Ap     0.943871
      25App    0.945177    26App    0.962350    36Ap     0.962366
      37Ap     1.004772    38Ap     1.128751    27App    1.128764
      39Ap     1.143293    40Ap     1.163758    28App    1.163771
      41Ap     1.223825    42Ap     1.275640    29App    1.275643
      43Ap     1.280036    30App    1.324900    44Ap     1.324902
      45Ap     1.355619    31App    1.367950    46Ap     1.367954
      32App    1.394008    47Ap     1.404748    33App    1.404750
      34App    1.416541    48Ap     1.416548    35App    1.429542
      36App    1.492733    49Ap     1.500614    37App    1.543942
      50Ap     1.543943    51Ap     1.575228    38App    1.575230
      52Ap     1.668493    53Ap     1.740895    39App    1.740906
      54Ap     1.771697    40App    1.831187    55Ap     1.831187
      41App    1.972093    56Ap     2.020090    42App    2.020094
      57Ap     2.020702    43App    2.058490    58Ap     2.058490
      44App    2.738759    59Ap     2.738760    60Ap     2.792470
      45App    2.813695    61Ap     2.891463    46App    2.891469
      62Ap     2.896786    63Ap     2.929474    47App    2.929483
      48App    2.959373    64Ap     2.964483    49App    2.964497
      65Ap     3.034660    50App    3.072286    66Ap     3.072300
      51App    3.084546    67Ap     3.169751    52App    3.169759
      68Ap     3.182542    69Ap     3.285903    53App    3.285903
      70Ap     3.326952    54App    3.326958    71Ap     3.374062
      55App    3.492181    72Ap     3.492202    56App    3.515993
      73Ap     3.526440    57App    3.568735    74Ap     3.568755
      58App    3.578124    75Ap     3.666724    59App    3.666732
      76Ap     3.681021    60App    3.695376    77Ap     3.695392
      78Ap     3.780850    61App    3.780876    79Ap     3.790591
      80Ap     3.913751    62App    3.913758    81Ap     4.035835
      82Ap     4.114225    63App    4.114228    83Ap     4.149492
      64App    4.149501    84Ap     4.176142    85Ap     4.204220
      65App    4.204579    86Ap     4.204582    66App    4.213578
      87Ap     4.317957    67App    4.317978    68App    4.360248
      88Ap     4.427267    69App    4.427269    70App    4.445640
      71App    4.520508    89Ap     4.520509    72App    4.581142
      90Ap     4.581155    91Ap     4.625005    92Ap     4.714792
      93Ap     4.780912    73App    4.780920    74App    4.839471
      94Ap     4.965624    75App    5.005880    95Ap     5.005893
      96Ap     5.231809    76App    5.245224    97Ap     5.245224
      98Ap     5.360109    77App    5.360121    78App    5.483179

    Beta Occupied:

       1Ap   -10.167419     1App  -10.167419     2Ap   -10.167389
       3Ap   -10.165708     4Ap    -0.782150     5Ap    -0.684266
       2App   -0.684265     6Ap    -0.511807     3App   -0.431437
       7Ap    -0.431436     8Ap    -0.422477     9Ap    -0.376884
       4App   -0.376882     5App   -0.362277     6App   -0.333264
      10Ap    -0.333264

    Beta Virtual:

      11Ap    -0.025583    12Ap     0.076962    13Ap     0.135000
       7App    0.135001    14Ap     0.144691     8App    0.144692
      15Ap     0.163591    16Ap     0.182857     9App    0.182857
      10App    0.215119    17Ap     0.219886    11App    0.282804
      18Ap     0.282806    19Ap     0.400521    12App    0.400525
      20Ap     0.419469    13App    0.426437    21Ap     0.426437
      22Ap     0.469623    23Ap     0.497703    14App    0.497704
      15App    0.514358    24Ap     0.556842    25Ap     0.585189
      16App    0.585197    17App    0.598573    26Ap     0.598573
      27Ap     0.611105    28Ap     0.628248    18App    0.631908
      19App    0.640097    29Ap     0.640101    30Ap     0.667864
      20App    0.667865    31Ap     0.686790    21App    0.686792
      32Ap     0.757075    22App    0.830446    33Ap     0.830449
      23App    0.856581    24App    0.923940    34Ap     0.923946
      25App    0.947025    35Ap     0.952660    26App    0.967716
      36Ap     0.967732    37Ap     1.009976    38Ap     1.132743
      27App    1.132754    39Ap     1.156605    40Ap     1.168857
      28App    1.168870    41Ap     1.232952    42Ap     1.281295
      29App    1.281299    43Ap     1.285780    30App    1.329842
      44Ap     1.329844    45Ap     1.365086    31App    1.373110
      46Ap     1.373114    32App    1.395057    47Ap     1.408245
      33App    1.408247    34App    1.421680    48Ap     1.421686
      35App    1.429836    36App    1.493806    49Ap     1.511114
      50Ap     1.548261    37App    1.548262    38App    1.583186
      51Ap     1.583187    52Ap     1.673297    53Ap     1.746666
      39App    1.746677    54Ap     1.782513    40App    1.835058
      55Ap     1.835059    41App    1.972969    56Ap     2.026635
      42App    2.026639    57Ap     2.042149    43App    2.065118
      58Ap     2.065118    44App    2.746990    59Ap     2.746991
      45App    2.814109    60Ap     2.817624    61Ap     2.903940
      46App    2.903945    62Ap     2.926760    63Ap     2.932130
      47App    2.932139    48App    2.960449    64Ap     2.969123
      49App    2.969137    65Ap     3.042468    50App    3.082296
      66Ap     3.082308    51App    3.086380    67Ap     3.185382
      52App    3.185387    68Ap     3.190178    69Ap     3.290848
      53App    3.290848    70Ap     3.330716    54App    3.330721
      71Ap     3.381891    55App    3.494945    72Ap     3.494966
      56App    3.514349    73Ap     3.529452    57App    3.578012
      58App    3.581902    74Ap     3.581924    75Ap     3.671455
      59App    3.671466    76Ap     3.694319    60App    3.726841
      77Ap     3.726857    78Ap     3.785480    61App    3.785506
      79Ap     3.818976    80Ap     3.923515    62App    3.923522
      81Ap     4.046598    82Ap     4.120756    63App    4.120757
      83Ap     4.156899    64App    4.156909    84Ap     4.190292
      65App    4.210405    85Ap     4.210409    86Ap     4.212310
      66App    4.218000    87Ap     4.325488    67App    4.325509
      68App    4.363634    88Ap     4.435591    69App    4.435593
      70App    4.448584    71App    4.528391    89Ap     4.528393
      72App    4.591804    90Ap     4.591816    91Ap     4.632273
      92Ap     4.725101    93Ap     4.787917    73App    4.787925
      74App    4.842398    94Ap     4.970430    75App    5.009933
      95Ap     5.009946    96Ap     5.237599    76App    5.247034
      97Ap     5.247034    98Ap     5.366670    77App    5.366683
      78App    5.485534

    Final Occupation by Irrep:
             Ap   App
    DOCC [    10,    6 ]
    SOCC [     1,    0 ]

  @DF-UKS Final Energy:  -157.81302914098706

   => Energetics <=

    Nuclear Repulsion Energy =            125.5815575422326589
    One-Electron Energy =                -459.1170712029987726
    Two-Electron Energy =                 196.0335503297324351
    DFT Exchange-Correlation Energy =     -20.3110658099533623
    Empirical Dispersion Energy =           0.0000000000000000
    VV10 Nonlocal Energy =                  0.0000000000000000
    Total Energy =                       -157.8130291409870551

  UHF NO Occupations:
  HONO-2 :    9 Ap 1.9996015
  HONO-1 :   10 Ap 1.9989883
  HONO-0 :   11 Ap 1.0000000
  LUNO+0 :   12 Ap 0.0010117
  LUNO+1 :   13 Ap 0.0003985
  LUNO+2 :    7App 0.0001954
  LUNO+3 :   14 Ap 0.0001954

Computation Completed

Properties will be evaluated at   0.000000,   0.000000,   0.000000 [a0]

Properties computed using the SCF density matrix

  Nuclear Dipole Moment: [e a0]
     X:     0.8216      Y:    -0.0000      Z:    -0.0000

  Electronic Dipole Moment: [e a0]
     X:    -0.7414      Y:     0.0000      Z:     0.0000

  Dipole Moment: [e a0]
     X:     0.0802      Y:     0.0000      Z:    -0.0000     Total:     0.0802

  Dipole Moment: [D]
     X:     0.2039      Y:     0.0000      Z:    -0.0000     Total:     0.2039

*** tstop() called on n056 at Fri Nov  5 14:53:07 2021
Module time:
	user time   =     544.34 seconds =       9.07 minutes
	system time =      12.30 seconds =       0.21 minutes
	total time  =        140 seconds =       2.33 minutes
Total time:
	user time   =     544.34 seconds =       9.07 minutes
	system time =      12.30 seconds =       0.21 minutes
	total time  =        140 seconds =       2.33 minutes
Grab this energy -157.81302914098706
    Psi4 stopped on: Friday, 05 November 2021 02:53PM
    Psi4 wall time for execution: 0:02:20.11

*** Psi4 exiting successfully. Buy a developer a beer!
