                               Psi4 1.4a2.dev629

  ==> Input File <==

--------------------------------------------------------------------------
import os
memory 14 GB

molecule {
 C   -0.3223144947    0.0053432809   -0.0000000000
 C    0.0622728816   -1.3999575519   -2.4266987054
 C    0.0619326584    2.8016637376   -0.0000000000
 C    0.0622728816   -1.3999575519    2.4266987054
 H    2.0835055008   -1.6447859810   -2.8469020312
 H   -0.7652037599   -0.3868669634   -4.0261727132
 H   -0.7639154083   -3.2951231654   -2.3488089102
 H    2.0837252828    3.2870813406    0.0000000000
 H   -0.7646348757    3.6796773254    1.6792421063
 H   -0.7646348757    3.6796773254   -1.6792421063
 H    2.0835055008   -1.6447859810    2.8469020312
 H   -0.7639154083   -3.2951231654    2.3488089102
 H   -0.7652037599   -0.3868669634    4.0261727132
units bohr
0 2
}

basis {

assign 6-31g_2dfp_

[ 6-31g_2dfp_ ]

spherical

!----------------------------------------------------------------------
! Basis Set Exchange
! Version v0.8.13
! https://www.basissetexchange.org
!----------------------------------------------------------------------
!   Basis set: 6-31G(2df,p)
! Description: 6-31G(2df,p)
!        Role: orbital
!     Version: 0  (Data from the original Basis Set Exchange)
!----------------------------------------------------------------------

****
H     0
S    3   1.00
     18.7311370              0.03349460
      2.8253937              0.23472695
      0.6401217              0.81375733
S    1   1.00
      0.1612778              1.00000000
P    1   1.00
      1.5000000              1.0000000
P    1   1.00
      0.3750000              1.0000000
****
B     0
S    6   1.00
   2068.8823000              0.0018663
    310.6495700              0.0142515
     70.6830330              0.0695516
     19.8610800              0.2325729
      6.2993048              0.4670787
      2.1270270              0.3634314
SP   3   1.00
      4.7279710             -0.1303938              0.0745976
      1.1903377             -0.1307889              0.3078467
      0.3594117              1.1309444              0.7434568
SP   1   1.00
      0.1267512              1.0000000              1.0000000
D    1   1.00
      0.8020000              1.0000000
D    1   1.00
      0.2005000              1.0000000
F    1   1.00
      0.5000000              1.0000000
****
C     0
S    6   1.00
   3047.5249000              0.0018347
    457.3695100              0.0140373
    103.9486900              0.0688426
     29.2101550              0.2321844
      9.2866630              0.4679413
      3.1639270              0.3623120
SP   3   1.00
      7.8682724             -0.1193324              0.0689991
      1.8812885             -0.1608542              0.3164240
      0.5442493              1.1434564              0.7443083
SP   1   1.00
      0.1687144              1.0000000              1.0000000
D    1   1.00
      1.2520000              1.0000000
D    1   1.00
      0.3130000              1.0000000
F    1   1.00
      0.8000000              1.0000000
****
N     0
S    6   1.00
   4173.5110000              0.0018348
    627.4579000              0.0139950
    142.9021000              0.0685870
     40.2343300              0.2322410
     12.8202100              0.4690700
      4.3904370              0.3604550
SP   3   1.00
     11.6263580             -0.1149610              0.0675800
      2.7162800             -0.1691180              0.3239070
      0.7722180              1.1458520              0.7408950
SP   1   1.00
      0.2120313              1.0000000              1.0000000
D    1   1.00
      1.8260000              1.0000000
D    1   1.00
      0.4565000              1.0000000
F    1   1.00
      1.0000000              1.0000000
****
O     0
S    6   1.00
   5484.6717000              0.0018311
    825.2349500              0.0139501
    188.0469600              0.0684451
     52.9645000              0.2327143
     16.8975700              0.4701930
      5.7996353              0.3585209
SP   3   1.00
     15.5396160             -0.1107775              0.0708743
      3.5999336             -0.1480263              0.3397528
      1.0137618              1.1307670              0.7271586
SP   1   1.00
      0.2700058              1.0000000              1.0000000
D    1   1.00
      2.5840000              1.0000000
D    1   1.00
      0.6460000              1.0000000
F    1   1.00
      1.4000000              1.0000000
****
F     0
S    6   1.00
   7001.7130900              0.0018196169
   1051.3660900              0.0139160796
    239.2856900              0.0684053245
     67.3974453              0.233185760
     21.5199573              0.471267439
      7.40310130             0.356618546
SP   3   1.00
     20.8479528             -0.108506975            0.0716287243
      4.80830834            -0.146451658            0.3459121030
      1.34406986             1.128688580            0.7224699570
SP   1   1.00
      0.358151393            1.0000000              1.0000000
D    1   1.00
      3.5000000              1.0000000
D    1   1.00
      0.8750000              1.0000000
F    1   1.00
      1.8500000              1.0000000
****
Al     0
S    6   1.00
  13983.1000000              0.00194267
   2098.7500000              0.0148599
    477.7050000              0.0728494
    134.3600000              0.2468300
     42.8709000              0.4872580
     14.5189000              0.3234960
SP   6   1.00
    239.6680000             -0.00292619             0.00460285
     57.4419000             -0.0374080              0.0331990
     18.2859000             -0.1144870              0.1362820
      6.5991400              0.1156350              0.3304760
      2.4904900              0.6125950              0.4491460
      0.9445400              0.3937990              0.2657040
SP   3   1.00
      1.2779000             -0.2276060             -0.0175130
      0.3975900              0.00144583             0.2445330
      0.1600950              1.0927900              0.8049340
SP   1   1.00
      0.0556577              1.0000000              1.0000000
D    1   1.00
      0.6500000              1.0000000
D    1   1.00
      0.1625000              1.0000000
F    1   1.00
      0.2500000              1.0000000
****
Si     0
S    6   1.00
  16115.9000000              0.00195948
   2425.5800000              0.01492880
    553.8670000              0.07284780
    156.3400000              0.24613000
     50.0683000              0.48591400
     17.0178000              0.32500200
SP   6   1.00
    292.7180000             -0.00278094             0.00443826
     69.8731000             -0.03571460             0.03266790
     22.3363000             -0.11498500             0.13472100
      8.1503900              0.09356340             0.32867800
      3.1345800              0.60301700             0.44964000
      1.2254300              0.41895900             0.26137200
SP   3   1.00
      1.7273800             -0.24463000            -0.01779510
      0.5729220              0.00431572             0.25353900
      0.2221920              1.09818000             0.80066900
SP   1   1.00
      0.0778369              1.00000000             1.00000000
D    1   1.00
      0.9000000              1.0000000
D    1   1.00
      0.2250000              1.0000000
F    1   1.00
      0.3200000              1.0000000
****
P     0
S    6   1.00
  19413.3000000              0.0018516
   2909.4200000              0.0142062
    661.3640000              0.0699995
    185.7590000              0.2400790
     59.1943000              0.4847620
     20.0310000              0.3352000
SP   6   1.00
    339.4780000             -0.00278217             0.00456462
     81.0101000             -0.0360499              0.03369360
     25.8780000             -0.1166310              0.13975500
      9.4522100              0.0968328              0.33936200
      3.6656600              0.6144180              0.45092100
      1.4674600              0.4037980              0.23858600
SP   3   1.00
      2.1562300             -0.2529230             -0.01776530
      0.7489970              0.0328517              0.27405800
      0.2831450              1.0812500              0.78542100
SP   1   1.00
      0.0998317              1.0000000              1.00000000
D    1   1.00
      1.1000000              1.0000000
D    1   1.00
      0.2750000              1.0000000
F    1   1.00
      0.4500000              1.0000000
****
S     0
S    6   1.00
  21917.1000000              0.0018690
   3301.4900000              0.0142300
    754.1460000              0.0696960
    212.7110000              0.2384870
     67.9896000              0.4833070
     23.0515000              0.3380740
SP   6   1.00
    423.7350000             -0.0023767              0.0040610
    100.7100000             -0.0316930              0.0306810
     32.1599000             -0.1133170              0.1304520
     11.8079000              0.0560900              0.3272050
      4.6311000              0.5922550              0.4528510
      1.8702500              0.4550060              0.2560420
SP   3   1.00
      2.6158400             -0.2503740             -0.0145110
      0.9221670              0.0669570              0.3102630
      0.3412870              1.0545100              0.7544830
SP   1   1.00
      0.1171670              1.0000000              1.0000000
D    1   1.00
      1.3000000              1.0000000
D    1   1.00
      0.3250000              1.0000000
F    1   1.00
      0.5500000              1.0000000
****
Cl     0
S    6   1.00
  25180.1000000              0.0018330
   3780.3500000              0.0140340
    860.4740000              0.0690970
    242.1450000              0.2374520
     77.3349000              0.4830340
     26.2470000              0.3398560
SP   6   1.00
    491.7650000             -0.0022974              0.0039894
    116.9840000             -0.0307140              0.0303180
     37.4153000             -0.1125280              0.1298800
     13.7834000              0.0450160              0.3279510
      5.4521500              0.5893530              0.4535270
      2.2258800              0.4652060              0.2521540
SP   3   1.00
      3.1864900             -0.2518300             -0.0142990
      1.1442700              0.0615890              0.3235720
      0.4203770              1.0601800              0.7435070
SP   1   1.00
      0.1426570              1.0000000              1.0000000
D    1   1.00
      1.5000000              1.0000000
D    1   1.00
      0.3750000              1.0000000
F    1   1.00
      0.7000000              1.0000000
****
}

set {
reference uhf
freeze_core true
e_convergence 10
d_convergence 10
dft_spherical_points 1202
dft_radial_points 99
}

e = energy('b3lyp')

print_out('Grab this energy {0}'.format(e))
--------------------------------------------------------------------------

    Molecular point group: cs

    Geometry (in Bohr), charge = 0, multiplicity = 2:

       Center              X                  Y                   Z               Mass
    ------------   -----------------  -----------------  -----------------  -----------------
         C           -0.323124198385     0.003977756408     0.000000000000    12.000000000000
         C            0.061463177915    -1.401323076392    -2.426698705400    12.000000000000
         C            0.061122954715     2.800298213108     0.000000000000    12.000000000000
         C            0.061463177915    -1.401323076392     2.426698705400    12.000000000000
         H            2.082695797115    -1.646151505492    -2.846902031200     1.007825032230
         H           -0.766013463585    -0.388232487892    -4.026172713200     1.007825032230
         H           -0.764725111985    -3.296488689892    -2.348808910200     1.007825032230
         H            2.082915579115     3.285715816108     0.000000000000     1.007825032230
         H           -0.765444579385     3.678311800908     1.679242106300     1.007825032230
         H           -0.765444579385     3.678311800908    -1.679242106300     1.007825032230
         H            2.082695797115    -1.646151505492     2.846902031200     1.007825032230
         H           -0.764725111985    -3.296488689892     2.348808910200     1.007825032230
         H           -0.766013463585    -0.388232487892     4.026172713200     1.007825032230

  Charge       = 0
  Multiplicity = 2
  Basis Set: ANONYMOUSC91A9BD8
    Blend: 6-31G_2DFP_
  Basis Set: (ANONYMOUSC91A9BD8 AUX)
    Blend: DEF2-UNIVERSAL-JKFIT

    Orbital Energies [Eh]
    ---------------------

    Alpha Occupied:

       1Ap   -10.180284     1App  -10.167043     2Ap   -10.167023
       3Ap   -10.166968     4Ap    -0.797807     5Ap    -0.686382
       2App   -0.686005     6Ap    -0.530787     7Ap    -0.441226
       3App   -0.434844     8Ap    -0.434408     9Ap    -0.382853
       4App   -0.382619     5App   -0.363431    10Ap    -0.338463
       6App   -0.337425    11Ap    -0.168924

    Alpha Virtual:

      12Ap     0.075986    13Ap     0.134135     7App    0.134159
       8App    0.142387    14Ap     0.142736    15Ap     0.155045
       9App    0.178952    16Ap     0.178962    17Ap     0.203585
      10App    0.214529    11App    0.275720    18Ap     0.276300
      12App    0.399227    19Ap     0.399470    20Ap     0.403428
      13App    0.423909    21Ap     0.423909    22Ap     0.456670
      14App    0.495163    23Ap     0.495258    15App    0.512279
      24Ap     0.514131    16App    0.578776    25Ap     0.579180
      26Ap     0.591900    17App    0.591924    27Ap     0.603326
      28Ap     0.624250    18App    0.631388    19App    0.635722
      29Ap     0.636043    30Ap     0.663842    20App    0.663976
      31Ap     0.683553    21App    0.683654    32Ap     0.734932
      22App    0.825330    33Ap     0.825547    23App    0.854195
      34Ap     0.915129    24App    0.915359    25App    0.943840
      35Ap     0.944475    26App    0.961211    36Ap     0.961576
      37Ap     1.003640    27App    1.127623    38Ap     1.128060
      39Ap     1.142982    28App    1.162618    40Ap     1.163383
      41Ap     1.222915    42Ap     1.274264    29App    1.275204
      43Ap     1.279511    30App    1.324471    44Ap     1.324659
      45Ap     1.355455    31App    1.365848    46Ap     1.366391
      32App    1.392489    33App    1.404987    47Ap     1.405144
      48Ap     1.415816    34App    1.416478    35App    1.428138
      36App    1.491510    49Ap     1.500032    50Ap     1.543206
      37App    1.543208    51Ap     1.574056    38App    1.574091
      52Ap     1.668558    39App    1.740074    53Ap     1.740473
      54Ap     1.770165    40App    1.829733    55Ap     1.830257
      41App    1.970713    56Ap     2.018264    57Ap     2.018484
      42App    2.019536    43App    2.053459    58Ap     2.054580
      44App    2.737930    59Ap     2.738407    60Ap     2.791319
      45App    2.810967    46App    2.889770    61Ap     2.890885
      62Ap     2.895270    47App    2.928901    63Ap     2.929678
      48App    2.959129    64Ap     2.964636    49App    2.964976
      65Ap     3.034702    50App    3.070806    66Ap     3.071840
      51App    3.082953    67Ap     3.168776    52App    3.168987
      68Ap     3.180711    53App    3.285116    69Ap     3.285704
      70Ap     3.326138    54App    3.326919    71Ap     3.375425
      55App    3.489823    72Ap     3.490943    56App    3.515237
      73Ap     3.524151    74Ap     3.568565    57App    3.569014
      58App    3.575978    75Ap     3.666444    59App    3.667078
      76Ap     3.679048    77Ap     3.693908    60App    3.693953
      61App    3.775669    78Ap     3.777077    79Ap     3.789957
      62App    3.911206    80Ap     3.912136    81Ap     4.033965
      63App    4.111076    82Ap     4.111723    64App    4.147716
      83Ap     4.149662    84Ap     4.174932    65App    4.201810
      85Ap     4.202109    86Ap     4.203354    66App    4.212003
      67App    4.315862    87Ap     4.317013    68App    4.357771
      69App    4.425118    88Ap     4.425236    70App    4.443212
      71App    4.517363    89Ap     4.517640    90Ap     4.577160
      72App    4.577731    91Ap     4.617924    92Ap     4.710018
      73App    4.773926    93Ap     4.775072    74App    4.835525
      94Ap     4.962522    95Ap     5.004043    75App    5.004519
      96Ap     5.230796    76App    5.243779    97Ap     5.243859
      77App    5.356950    98Ap     5.358045    78App    5.477400

    Beta Occupied:

       1App  -10.167794     1Ap   -10.167779     2Ap   -10.167736
       3Ap   -10.166455     4Ap    -0.781125     5Ap    -0.684161
       2App   -0.683807     6Ap    -0.511709     3App   -0.431187
       7Ap    -0.430768     8Ap    -0.421973     9Ap    -0.376923
       4App   -0.376771     5App   -0.362405    10Ap    -0.333600
       6App   -0.332542

    Beta Virtual:

      11Ap    -0.025615    12Ap     0.076980     7App    0.134965
      13Ap     0.134975     8App    0.144291    14Ap     0.144618
      15Ap     0.163485     9App    0.182639    16Ap     0.182673
      10App    0.214766    17Ap     0.218970    11App    0.282097
      18Ap     0.282608    12App    0.400396    19Ap     0.400634
      20Ap     0.419779    13App    0.426709    21Ap     0.426731
      22Ap     0.468677    14App    0.497412    23Ap     0.497513
      15App    0.514006    24Ap     0.556512    16App    0.584276
      25Ap     0.584727    26Ap     0.598097    17App    0.598102
      27Ap     0.610611    28Ap     0.627765    18App    0.631544
      19App    0.639032    29Ap     0.639384    30Ap     0.667381
      20App    0.667503    31Ap     0.686200    21App    0.686303
      32Ap     0.757459    22App    0.830481    33Ap     0.830690
      23App    0.855540    34Ap     0.923055    24App    0.923339
      25App    0.945685    35Ap     0.953354    26App    0.966544
      36Ap     0.966925    37Ap     1.008920    27App    1.131639
      38Ap     1.132045    39Ap     1.156264    28App    1.167721
      40Ap     1.168473    41Ap     1.231903    42Ap     1.279938
      29App    1.280771    43Ap     1.285320    30App    1.329426
      44Ap     1.329588    45Ap     1.364890    31App    1.371072
      46Ap     1.371518    32App    1.393531    33App    1.408443
      47Ap     1.408714    48Ap     1.420912    34App    1.421557
      35App    1.428402    36App    1.492584    49Ap     1.510468
      37App    1.547579    50Ap     1.547586    38App    1.581952
      51Ap     1.581975    52Ap     1.673355    39App    1.745837
      53Ap     1.746243    54Ap     1.780957    40App    1.833572
      55Ap     1.834126    41App    1.971585    56Ap     2.024893
      42App    2.026072    57Ap     2.039780    43App    2.060058
      58Ap     2.061171    44App    2.746225    59Ap     2.746765
      45App    2.811377    60Ap     2.816492    46App    2.902572
      61Ap     2.903510    62Ap     2.925176    47App    2.931325
      63Ap     2.932214    48App    2.960196    64Ap     2.969218
      49App    2.969552    65Ap     3.042425    50App    3.080806
      66Ap     3.081685    51App    3.084770    67Ap     3.184481
      52App    3.184634    68Ap     3.188524    53App    3.289925
      69Ap     3.290430    70Ap     3.329978    54App    3.330761
      71Ap     3.383270    55App    3.492580    72Ap     3.493721
      56App    3.513607    73Ap     3.527211    57App    3.575837
      74Ap     3.581779    58App    3.582142    75Ap     3.671365
      59App    3.671842    76Ap     3.692368    77Ap     3.725412
      60App    3.725709    61App    3.780272    78Ap     3.781684
      79Ap     3.818444    62App    3.920969    80Ap     3.921899
      81Ap     4.044790    63App    4.117933    82Ap     4.118493
      64App    4.154957    83Ap     4.156852    84Ap     4.188963
      65App    4.207642    85Ap     4.208312    86Ap     4.211000
      66App    4.216357    67App    4.323298    87Ap     4.324576
      68App    4.361179    69App    4.433331    88Ap     4.433448
      70App    4.446152    71App    4.525073    89Ap     4.525441
      90Ap     4.587784    72App    4.588371    91Ap     4.625232
      92Ap     4.720248    73App    4.780892    93Ap     4.782113
      74App    4.838454    94Ap     4.967303    95Ap     5.008074
      75App    5.008518    96Ap     5.236547    76App    5.245582
      97Ap     5.245651    77App    5.363430    98Ap     5.364579
      78App    5.479734

    Final Occupation by Irrep:
             Ap   App
    DOCC [    10,    6 ]
    SOCC [     1,    0 ]

  @DF-UKS Final Energy:  -157.81305141196353

   => Energetics <=

    Nuclear Repulsion Energy =            125.4000913716031249
    One-Electron Energy =                -458.7598152786356991
    Two-Electron Energy =                 195.8539328997472353
    DFT Exchange-Correlation Energy =     -20.3072604046781962
    Empirical Dispersion Energy =           0.0000000000000000
    VV10 Nonlocal Energy =                  0.0000000000000000
    Total Energy =                       -157.8130514119635279

  UHF NO Occupations:
  HONO-2 :    9 Ap 1.9996032
  HONO-1 :   10 Ap 1.9989813
  HONO-0 :   11 Ap 1.0000000
  LUNO+0 :   12 Ap 0.0010187
  LUNO+1 :   13 Ap 0.0003968
  LUNO+2 :    7App 0.0001986
  LUNO+3 :   14 Ap 0.0001965

Computation Completed

Properties will be evaluated at   0.000000,   0.000000,   0.000000 [a0]

Properties computed using the SCF density matrix

  Nuclear Dipole Moment: [e a0]
     X:     0.8215      Y:    -0.0096      Z:     0.0000

  Electronic Dipole Moment: [e a0]
     X:    -0.7404      Y:     0.0109      Z:     0.0000

  Dipole Moment: [e a0]
     X:     0.0811      Y:     0.0012      Z:     0.0000     Total:     0.0811

  Dipole Moment: [D]
     X:     0.2061      Y:     0.0031      Z:     0.0000     Total:     0.2062

*** tstop() called on n061 at Fri Nov  5 13:44:36 2021
Module time:
	user time   =     540.71 seconds =       9.01 minutes
	system time =      12.01 seconds =       0.20 minutes
	total time  =        139 seconds =       2.32 minutes
Total time:
	user time   =     540.71 seconds =       9.01 minutes
	system time =      12.01 seconds =       0.20 minutes
	total time  =        139 seconds =       2.32 minutes
Grab this energy -157.81305141196353
    Psi4 stopped on: Friday, 05 November 2021 01:44PM
    Psi4 wall time for execution: 0:02:19.01

*** Psi4 exiting successfully. Buy a developer a beer!
