                               Psi4 1.4a2.dev629

  ==> Input File <==

--------------------------------------------------------------------------
import os
memory 14 GB

molecule {
 C   -0.3233287188    0.0002236760    0.0000000000
 C    0.0614063083   -1.4019013864   -2.4289928436
 C    0.0610355427    2.8011299324    0.0000000000
 C    0.0614063083   -1.4019013864    2.4289928436
 H    2.0870262524   -1.6438179917   -2.8466370211
 H   -0.7656402491   -0.3877363551   -4.0248389411
 H   -0.7656978563   -3.2918115551   -2.3481475186
 H    2.0867693673    3.2882895243   -0.0000000000
 H   -0.7656364892    3.6804335652    1.6764504311
 H   -0.7656364892    3.6804335652   -1.6764504311
 H    2.0870262524   -1.6438179917    2.8466370211
 H   -0.7656978563   -3.2918115551    2.3481475186
 H   -0.7656402491   -0.3877363551    4.0248389411
units bohr
0 2
}

basis {

assign 6-31g_2dfp_

[ 6-31g_2dfp_ ]

spherical

!----------------------------------------------------------------------
! Basis Set Exchange
! Version v0.8.13
! https://www.basissetexchange.org
!----------------------------------------------------------------------
!   Basis set: 6-31G(2df,p)
! Description: 6-31G(2df,p)
!        Role: orbital
!     Version: 0  (Data from the original Basis Set Exchange)
!----------------------------------------------------------------------

****
H     0
S    3   1.00
     18.7311370              0.03349460
      2.8253937              0.23472695
      0.6401217              0.81375733
S    1   1.00
      0.1612778              1.00000000
P    1   1.00
      1.5000000              1.0000000
P    1   1.00
      0.3750000              1.0000000
****
B     0
S    6   1.00
   2068.8823000              0.0018663
    310.6495700              0.0142515
     70.6830330              0.0695516
     19.8610800              0.2325729
      6.2993048              0.4670787
      2.1270270              0.3634314
SP   3   1.00
      4.7279710             -0.1303938              0.0745976
      1.1903377             -0.1307889              0.3078467
      0.3594117              1.1309444              0.7434568
SP   1   1.00
      0.1267512              1.0000000              1.0000000
D    1   1.00
      0.8020000              1.0000000
D    1   1.00
      0.2005000              1.0000000
F    1   1.00
      0.5000000              1.0000000
****
C     0
S    6   1.00
   3047.5249000              0.0018347
    457.3695100              0.0140373
    103.9486900              0.0688426
     29.2101550              0.2321844
      9.2866630              0.4679413
      3.1639270              0.3623120
SP   3   1.00
      7.8682724             -0.1193324              0.0689991
      1.8812885             -0.1608542              0.3164240
      0.5442493              1.1434564              0.7443083
SP   1   1.00
      0.1687144              1.0000000              1.0000000
D    1   1.00
      1.2520000              1.0000000
D    1   1.00
      0.3130000              1.0000000
F    1   1.00
      0.8000000              1.0000000
****
N     0
S    6   1.00
   4173.5110000              0.0018348
    627.4579000              0.0139950
    142.9021000              0.0685870
     40.2343300              0.2322410
     12.8202100              0.4690700
      4.3904370              0.3604550
SP   3   1.00
     11.6263580             -0.1149610              0.0675800
      2.7162800             -0.1691180              0.3239070
      0.7722180              1.1458520              0.7408950
SP   1   1.00
      0.2120313              1.0000000              1.0000000
D    1   1.00
      1.8260000              1.0000000
D    1   1.00
      0.4565000              1.0000000
F    1   1.00
      1.0000000              1.0000000
****
O     0
S    6   1.00
   5484.6717000              0.0018311
    825.2349500              0.0139501
    188.0469600              0.0684451
     52.9645000              0.2327143
     16.8975700              0.4701930
      5.7996353              0.3585209
SP   3   1.00
     15.5396160             -0.1107775              0.0708743
      3.5999336             -0.1480263              0.3397528
      1.0137618              1.1307670              0.7271586
SP   1   1.00
      0.2700058              1.0000000              1.0000000
D    1   1.00
      2.5840000              1.0000000
D    1   1.00
      0.6460000              1.0000000
F    1   1.00
      1.4000000              1.0000000
****
F     0
S    6   1.00
   7001.7130900              0.0018196169
   1051.3660900              0.0139160796
    239.2856900              0.0684053245
     67.3974453              0.233185760
     21.5199573              0.471267439
      7.40310130             0.356618546
SP   3   1.00
     20.8479528             -0.108506975            0.0716287243
      4.80830834            -0.146451658            0.3459121030
      1.34406986             1.128688580            0.7224699570
SP   1   1.00
      0.358151393            1.0000000              1.0000000
D    1   1.00
      3.5000000              1.0000000
D    1   1.00
      0.8750000              1.0000000
F    1   1.00
      1.8500000              1.0000000
****
Al     0
S    6   1.00
  13983.1000000              0.00194267
   2098.7500000              0.0148599
    477.7050000              0.0728494
    134.3600000              0.2468300
     42.8709000              0.4872580
     14.5189000              0.3234960
SP   6   1.00
    239.6680000             -0.00292619             0.00460285
     57.4419000             -0.0374080              0.0331990
     18.2859000             -0.1144870              0.1362820
      6.5991400              0.1156350              0.3304760
      2.4904900              0.6125950              0.4491460
      0.9445400              0.3937990              0.2657040
SP   3   1.00
      1.2779000             -0.2276060             -0.0175130
      0.3975900              0.00144583             0.2445330
      0.1600950              1.0927900              0.8049340
SP   1   1.00
      0.0556577              1.0000000              1.0000000
D    1   1.00
      0.6500000              1.0000000
D    1   1.00
      0.1625000              1.0000000
F    1   1.00
      0.2500000              1.0000000
****
Si     0
S    6   1.00
  16115.9000000              0.00195948
   2425.5800000              0.01492880
    553.8670000              0.07284780
    156.3400000              0.24613000
     50.0683000              0.48591400
     17.0178000              0.32500200
SP   6   1.00
    292.7180000             -0.00278094             0.00443826
     69.8731000             -0.03571460             0.03266790
     22.3363000             -0.11498500             0.13472100
      8.1503900              0.09356340             0.32867800
      3.1345800              0.60301700             0.44964000
      1.2254300              0.41895900             0.26137200
SP   3   1.00
      1.7273800             -0.24463000            -0.01779510
      0.5729220              0.00431572             0.25353900
      0.2221920              1.09818000             0.80066900
SP   1   1.00
      0.0778369              1.00000000             1.00000000
D    1   1.00
      0.9000000              1.0000000
D    1   1.00
      0.2250000              1.0000000
F    1   1.00
      0.3200000              1.0000000
****
P     0
S    6   1.00
  19413.3000000              0.0018516
   2909.4200000              0.0142062
    661.3640000              0.0699995
    185.7590000              0.2400790
     59.1943000              0.4847620
     20.0310000              0.3352000
SP   6   1.00
    339.4780000             -0.00278217             0.00456462
     81.0101000             -0.0360499              0.03369360
     25.8780000             -0.1166310              0.13975500
      9.4522100              0.0968328              0.33936200
      3.6656600              0.6144180              0.45092100
      1.4674600              0.4037980              0.23858600
SP   3   1.00
      2.1562300             -0.2529230             -0.01776530
      0.7489970              0.0328517              0.27405800
      0.2831450              1.0812500              0.78542100
SP   1   1.00
      0.0998317              1.0000000              1.00000000
D    1   1.00
      1.1000000              1.0000000
D    1   1.00
      0.2750000              1.0000000
F    1   1.00
      0.4500000              1.0000000
****
S     0
S    6   1.00
  21917.1000000              0.0018690
   3301.4900000              0.0142300
    754.1460000              0.0696960
    212.7110000              0.2384870
     67.9896000              0.4833070
     23.0515000              0.3380740
SP   6   1.00
    423.7350000             -0.0023767              0.0040610
    100.7100000             -0.0316930              0.0306810
     32.1599000             -0.1133170              0.1304520
     11.8079000              0.0560900              0.3272050
      4.6311000              0.5922550              0.4528510
      1.8702500              0.4550060              0.2560420
SP   3   1.00
      2.6158400             -0.2503740             -0.0145110
      0.9221670              0.0669570              0.3102630
      0.3412870              1.0545100              0.7544830
SP   1   1.00
      0.1171670              1.0000000              1.0000000
D    1   1.00
      1.3000000              1.0000000
D    1   1.00
      0.3250000              1.0000000
F    1   1.00
      0.5500000              1.0000000
****
Cl     0
S    6   1.00
  25180.1000000              0.0018330
   3780.3500000              0.0140340
    860.4740000              0.0690970
    242.1450000              0.2374520
     77.3349000              0.4830340
     26.2470000              0.3398560
SP   6   1.00
    491.7650000             -0.0022974              0.0039894
    116.9840000             -0.0307140              0.0303180
     37.4153000             -0.1125280              0.1298800
     13.7834000              0.0450160              0.3279510
      5.4521500              0.5893530              0.4535270
      2.2258800              0.4652060              0.2521540
SP   3   1.00
      3.1864900             -0.2518300             -0.0142990
      1.1442700              0.0615890              0.3235720
      0.4203770              1.0601800              0.7435070
SP   1   1.00
      0.1426570              1.0000000              1.0000000
D    1   1.00
      1.5000000              1.0000000
D    1   1.00
      0.3750000              1.0000000
F    1   1.00
      0.7000000              1.0000000
****
}

set {
reference uhf
freeze_core true
e_convergence 10
d_convergence 10
dft_spherical_points 1202
dft_radial_points 99
}

e = energy('b3lyp')

print_out('Grab this energy {0}'.format(e))
--------------------------------------------------------------------------

    Molecular point group: cs

    Geometry (in Bohr), charge = 0, multiplicity = 2:

       Center              X                  Y                   Z               Mass
    ------------   -----------------  -----------------  -----------------  -----------------
         C           -0.323436468152     0.000695832064     0.000000000000    12.000000000000
         C            0.061298558948    -1.401429230336    -2.428992843600    12.000000000000
         C            0.060927793348     2.801602088464     0.000000000000    12.000000000000
         C            0.061298558948    -1.401429230336     2.428992843600    12.000000000000
         H            2.086918503048    -1.643345835636    -2.846637021100     1.007825032230
         H           -0.765747998452    -0.387264199036    -4.024838941100     1.007825032230
         H           -0.765805605652    -3.291339399036    -2.348147518600     1.007825032230
         H            2.086661617948     3.288761680364     0.000000000000     1.007825032230
         H           -0.765744238552     3.680905721264     1.676450431100     1.007825032230
         H           -0.765744238552     3.680905721264    -1.676450431100     1.007825032230
         H            2.086918503048    -1.643345835636     2.846637021100     1.007825032230
         H           -0.765805605652    -3.291339399036     2.348147518600     1.007825032230
         H           -0.765747998452    -0.387264199036     4.024838941100     1.007825032230

  Charge       = 0
  Multiplicity = 2
  Basis Set: ANONYMOUSFBF6EF7D
    Blend: 6-31G_2DFP_
  Basis Set: (ANONYMOUSFBF6EF7D AUX)
    Blend: DEF2-UNIVERSAL-JKFIT

    Orbital Energies [Eh]
    ---------------------

    Alpha Occupied:

       1Ap   -10.180393     2Ap   -10.167010     1App  -10.166957
       3Ap   -10.166921     4Ap    -0.797509     2App   -0.686201
       5Ap    -0.686154     6Ap    -0.530610     7Ap    -0.441114
       8Ap    -0.434685     3App   -0.434523     4App   -0.382826
       9Ap    -0.382647     5App   -0.363813    10Ap    -0.338047
       6App   -0.337630    11Ap    -0.168940

    Alpha Virtual:

      12Ap     0.076081    13Ap     0.134195     7App    0.134232
       8App    0.142698    14Ap     0.142826    15Ap     0.154774
      16Ap     0.178862     9App    0.179026    17Ap     0.203254
      10App    0.214926    11App    0.275517    18Ap     0.275971
      12App    0.399227    19Ap     0.399240    20Ap     0.403437
      13App    0.424106    21Ap     0.424196    22Ap     0.456413
      14App    0.495378    23Ap     0.495420    15App    0.512215
      24Ap     0.514038    16App    0.578822    25Ap     0.578890
      26Ap     0.591674    17App    0.591798    27Ap     0.602616
      28Ap     0.624882    18App    0.632002    19App    0.636028
      29Ap     0.636359    20App    0.663236    30Ap     0.663357
      31Ap     0.683844    21App    0.683888    32Ap     0.735125
      33Ap     0.825335    22App    0.825441    23App    0.853780
      24App    0.915050    34Ap     0.915086    25App    0.944080
      35Ap     0.944301    36Ap     0.961334    26App    0.961382
      37Ap     1.003621    27App    1.127967    38Ap     1.128095
      39Ap     1.141810    28App    1.163594    40Ap     1.164160
      41Ap     1.222905    29App    1.274061    42Ap     1.274648
      43Ap     1.279210    30App    1.324091    44Ap     1.324224
      45Ap     1.355655    31App    1.365762    46Ap     1.366073
      32App    1.392936    47Ap     1.404588    33App    1.404957
      34App    1.416951    48Ap     1.417282    35App    1.428179
      36App    1.490969    49Ap     1.499660    37App    1.542594
      50Ap     1.542736    38App    1.574153    51Ap     1.574535
      52Ap     1.670608    53Ap     1.738774    39App    1.739049
      54Ap     1.768341    55Ap     1.831334    40App    1.832344
      41App    1.971136    42App    2.017764    56Ap     2.018418
      57Ap     2.018922    43App    2.051540    58Ap     2.052905
      59Ap     2.738191    44App    2.738433    60Ap     2.790698
      45App    2.811340    46App    2.889777    61Ap     2.889914
      62Ap     2.894541    47App    2.929593    63Ap     2.929707
      48App    2.959043    49App    2.964331    64Ap     2.964477
      65Ap     3.033836    66Ap     3.071205    50App    3.071463
      51App    3.083950    52App    3.168493    67Ap     3.168843
      68Ap     3.180012    53App    3.285636    69Ap     3.285654
      54App    3.326730    70Ap     3.327096    71Ap     3.375702
      55App    3.489729    72Ap     3.490403    56App    3.513861
      73Ap     3.524979    57App    3.568054    74Ap     3.568248
      58App    3.575280    75Ap     3.666450    59App    3.667840
      76Ap     3.680238    77Ap     3.694139    60App    3.694365
      61App    3.776577    78Ap     3.776913    79Ap     3.789411
      62App    3.910380    80Ap     3.911869    81Ap     4.033902
      63App    4.111480    82Ap     4.111811    64App    4.147847
      83Ap     4.148418    84Ap     4.172571    85Ap     4.201631
      65App    4.202004    86Ap     4.202959    66App    4.210503
      67App    4.315339    87Ap     4.316772    68App    4.359613
      69App    4.424617    88Ap     4.426585    70App    4.445482
      71App    4.515860    89Ap     4.517160    72App    4.577527
      90Ap     4.577571    91Ap     4.617149    92Ap     4.708169
      93Ap     4.773466    73App    4.774070    74App    4.835586
      94Ap     4.964144    95Ap     5.003166    75App    5.004550
      96Ap     5.228566    76App    5.246892    97Ap     5.247292
      77App    5.355285    98Ap     5.355400    78App    5.478133

    Beta Occupied:

       1Ap   -10.167768     1App  -10.167706     2Ap   -10.167688
       3Ap   -10.166560     4Ap    -0.780849     2App   -0.684014
       5Ap    -0.683957     6Ap    -0.511535     7Ap    -0.431077
       3App   -0.430910     8Ap    -0.421854     4App   -0.376946
       9Ap    -0.376728     5App   -0.362801    10Ap    -0.333156
       6App   -0.332738

    Beta Virtual:

      11Ap    -0.025573    12Ap     0.077086     7App    0.135092
      13Ap     0.135097     8App    0.144583    14Ap     0.144678
      15Ap     0.163191    16Ap     0.182530     9App    0.182670
      10App    0.215154    17Ap     0.218685    11App    0.281893
      18Ap     0.282330    12App    0.400393    19Ap     0.400401
      20Ap     0.419875    13App    0.426915    21Ap     0.427007
      22Ap     0.468244    14App    0.497624    23Ap     0.497680
      15App    0.513941    24Ap     0.556414    16App    0.584368
      25Ap     0.584447    26Ap     0.597863    17App    0.597986
      27Ap     0.610046    28Ap     0.628219    18App    0.632156
      19App    0.639299    29Ap     0.639624    20App    0.666792
      30Ap     0.666925    31Ap     0.686481    21App    0.686500
      32Ap     0.757725    33Ap     0.830483    22App    0.830599
      23App    0.855120    24App    0.923022    34Ap     0.923063
      25App    0.945909    35Ap     0.953217    36Ap     0.966634
      26App    0.966676    37Ap     1.008870    27App    1.132006
      38Ap     1.132130    39Ap     1.155145    28App    1.168659
      40Ap     1.169264    41Ap     1.231935    29App    1.279622
      42Ap     1.280216    43Ap     1.284987    30App    1.329073
      44Ap     1.329177    45Ap     1.365061    31App    1.371092
      46Ap     1.371350    32App    1.393985    47Ap     1.408075
      33App    1.408338    34App    1.422014    48Ap     1.422312
      35App    1.428465    36App    1.492004    49Ap     1.510082
      37App    1.546973    50Ap     1.547129    38App    1.582036
      51Ap     1.582433    52Ap     1.675462    53Ap     1.744533
      39App    1.744816    54Ap     1.779081    55Ap     1.835175
      40App    1.836165    41App    1.971988    42App    2.024100
      56Ap     2.025181    57Ap     2.039873    43App    2.058292
      58Ap     2.059665    59Ap     2.746580    44App    2.746777
      45App    2.811753    60Ap     2.815867    46App    2.902527
      61Ap     2.902626    62Ap     2.924204    47App    2.932059
      63Ap     2.932146    48App    2.960108    49App    2.968830
      64Ap     2.969004    65Ap     3.041729    66Ap     3.081077
      50App    3.081321    51App    3.085762    52App    3.184325
      67Ap     3.184636    68Ap     3.187782    69Ap     3.290377
      53App    3.290413    54App    3.330547    70Ap     3.330897
      71Ap     3.383489    55App    3.492427    72Ap     3.493148
      56App    3.512229    73Ap     3.528061    57App    3.575131
      58App    3.581447    74Ap     3.581674    75Ap     3.671362
      59App    3.672817    76Ap     3.693537    77Ap     3.725635
      60App    3.725881    61App    3.780996    78Ap     3.781417
      79Ap     3.818012    62App    3.920286    80Ap     3.921672
      81Ap     4.044868    63App    4.118097    82Ap     4.118632
      64App    4.155203    83Ap     4.155583    84Ap     4.186577
      65App    4.207933    85Ap     4.208594    86Ap     4.209875
      66App    4.214960    67App    4.322841    87Ap     4.324332
      68App    4.362954    69App    4.432776    88Ap     4.434706
      70App    4.448387    71App    4.523591    89Ap     4.524881
      72App    4.588094    90Ap     4.588170    91Ap     4.624322
      92Ap     4.718512    93Ap     4.780441    73App    4.781004
      74App    4.838507    94Ap     4.968917    95Ap     5.007197
      75App    5.008552    96Ap     5.234265    76App    5.248673
      97Ap     5.249059    77App    5.361717    98Ap     5.361873
      78App    5.480447

    Final Occupation by Irrep:
             Ap   App
    DOCC [    10,    6 ]
    SOCC [     1,    0 ]

  @DF-UKS Final Energy:  -157.81304703267671

   => Energetics <=

    Nuclear Repulsion Energy =            125.3666586813529875
    One-Electron Energy =                -458.6938816521184208
    Two-Electron Energy =                 195.8214347002096076
    DFT Exchange-Correlation Energy =     -20.3072587621208953
    Empirical Dispersion Energy =           0.0000000000000000
    VV10 Nonlocal Energy =                  0.0000000000000000
    Total Energy =                       -157.8130470326767067

  UHF NO Occupations:
  HONO-2 :    9 Ap 1.9996025
  HONO-1 :   10 Ap 1.9989782
  HONO-0 :   11 Ap 1.0000000
  LUNO+0 :   12 Ap 0.0010218
  LUNO+1 :   13 Ap 0.0003975
  LUNO+2 :    7App 0.0001987
  LUNO+3 :   14 Ap 0.0001979

Computation Completed

Properties will be evaluated at   0.000000,   0.000000,   0.000000 [a0]

Properties computed using the SCF density matrix

  Nuclear Dipole Moment: [e a0]
     X:     0.8264      Y:     0.0033      Z:     0.0000

  Electronic Dipole Moment: [e a0]
     X:    -0.7484      Y:    -0.0034      Z:     0.0000

  Dipole Moment: [e a0]
     X:     0.0780      Y:    -0.0001      Z:     0.0000     Total:     0.0780

  Dipole Moment: [D]
     X:     0.1984      Y:    -0.0002      Z:     0.0000     Total:     0.1984

*** tstop() called on n036 at Fri Nov  5 12:55:30 2021
Module time:
	user time   =     635.46 seconds =      10.59 minutes
	system time =      12.16 seconds =       0.20 minutes
	total time  =        163 seconds =       2.72 minutes
Total time:
	user time   =     635.46 seconds =      10.59 minutes
	system time =      12.16 seconds =       0.20 minutes
	total time  =        163 seconds =       2.72 minutes
Grab this energy -157.8130470326767
    Psi4 stopped on: Friday, 05 November 2021 12:55PM
    Psi4 wall time for execution: 0:02:42.98

*** Psi4 exiting successfully. Buy a developer a beer!
