                               Psi4 1.4a2.dev629

  ==> Input File <==

--------------------------------------------------------------------------
import os
memory 14 GB

molecule {
 C   -0.3233393336   -0.0004954423   -0.0010203670
 C    0.0618361911   -1.4017297829   -2.4259886730
 C    0.0609227928    2.8009015273    0.0018038037
 C    0.0605410239   -1.4005122469    2.4274806628
 H    2.0847756909   -1.6439392369   -2.8479134170
 H   -0.7643508538   -0.3897666950   -4.0248085064
 H   -0.7648167482   -3.2895211900   -2.3497516480
 H    2.0909793432    3.2876028618   -0.0007032847
 H   -0.7679702819    3.6808624570    1.6802623857
 H   -0.7676720407    3.6806791220   -1.6808257568
 H    2.0849180456   -1.6444618440    2.8474211699
 H   -0.7643025567   -3.2897949488    2.3493343344
 H   -0.7641291493   -0.3898488950    4.0247092965
units bohr
0 2
}

basis {

assign 6-31g_2dfp_

[ 6-31g_2dfp_ ]

spherical

!----------------------------------------------------------------------
! Basis Set Exchange
! Version v0.8.13
! https://www.basissetexchange.org
!----------------------------------------------------------------------
!   Basis set: 6-31G(2df,p)
! Description: 6-31G(2df,p)
!        Role: orbital
!     Version: 0  (Data from the original Basis Set Exchange)
!----------------------------------------------------------------------

****
H     0
S    3   1.00
     18.7311370              0.03349460
      2.8253937              0.23472695
      0.6401217              0.81375733
S    1   1.00
      0.1612778              1.00000000
P    1   1.00
      1.5000000              1.0000000
P    1   1.00
      0.3750000              1.0000000
****
B     0
S    6   1.00
   2068.8823000              0.0018663
    310.6495700              0.0142515
     70.6830330              0.0695516
     19.8610800              0.2325729
      6.2993048              0.4670787
      2.1270270              0.3634314
SP   3   1.00
      4.7279710             -0.1303938              0.0745976
      1.1903377             -0.1307889              0.3078467
      0.3594117              1.1309444              0.7434568
SP   1   1.00
      0.1267512              1.0000000              1.0000000
D    1   1.00
      0.8020000              1.0000000
D    1   1.00
      0.2005000              1.0000000
F    1   1.00
      0.5000000              1.0000000
****
C     0
S    6   1.00
   3047.5249000              0.0018347
    457.3695100              0.0140373
    103.9486900              0.0688426
     29.2101550              0.2321844
      9.2866630              0.4679413
      3.1639270              0.3623120
SP   3   1.00
      7.8682724             -0.1193324              0.0689991
      1.8812885             -0.1608542              0.3164240
      0.5442493              1.1434564              0.7443083
SP   1   1.00
      0.1687144              1.0000000              1.0000000
D    1   1.00
      1.2520000              1.0000000
D    1   1.00
      0.3130000              1.0000000
F    1   1.00
      0.8000000              1.0000000
****
N     0
S    6   1.00
   4173.5110000              0.0018348
    627.4579000              0.0139950
    142.9021000              0.0685870
     40.2343300              0.2322410
     12.8202100              0.4690700
      4.3904370              0.3604550
SP   3   1.00
     11.6263580             -0.1149610              0.0675800
      2.7162800             -0.1691180              0.3239070
      0.7722180              1.1458520              0.7408950
SP   1   1.00
      0.2120313              1.0000000              1.0000000
D    1   1.00
      1.8260000              1.0000000
D    1   1.00
      0.4565000              1.0000000
F    1   1.00
      1.0000000              1.0000000
****
O     0
S    6   1.00
   5484.6717000              0.0018311
    825.2349500              0.0139501
    188.0469600              0.0684451
     52.9645000              0.2327143
     16.8975700              0.4701930
      5.7996353              0.3585209
SP   3   1.00
     15.5396160             -0.1107775              0.0708743
      3.5999336             -0.1480263              0.3397528
      1.0137618              1.1307670              0.7271586
SP   1   1.00
      0.2700058              1.0000000              1.0000000
D    1   1.00
      2.5840000              1.0000000
D    1   1.00
      0.6460000              1.0000000
F    1   1.00
      1.4000000              1.0000000
****
F     0
S    6   1.00
   7001.7130900              0.0018196169
   1051.3660900              0.0139160796
    239.2856900              0.0684053245
     67.3974453              0.233185760
     21.5199573              0.471267439
      7.40310130             0.356618546
SP   3   1.00
     20.8479528             -0.108506975            0.0716287243
      4.80830834            -0.146451658            0.3459121030
      1.34406986             1.128688580            0.7224699570
SP   1   1.00
      0.358151393            1.0000000              1.0000000
D    1   1.00
      3.5000000              1.0000000
D    1   1.00
      0.8750000              1.0000000
F    1   1.00
      1.8500000              1.0000000
****
Al     0
S    6   1.00
  13983.1000000              0.00194267
   2098.7500000              0.0148599
    477.7050000              0.0728494
    134.3600000              0.2468300
     42.8709000              0.4872580
     14.5189000              0.3234960
SP   6   1.00
    239.6680000             -0.00292619             0.00460285
     57.4419000             -0.0374080              0.0331990
     18.2859000             -0.1144870              0.1362820
      6.5991400              0.1156350              0.3304760
      2.4904900              0.6125950              0.4491460
      0.9445400              0.3937990              0.2657040
SP   3   1.00
      1.2779000             -0.2276060             -0.0175130
      0.3975900              0.00144583             0.2445330
      0.1600950              1.0927900              0.8049340
SP   1   1.00
      0.0556577              1.0000000              1.0000000
D    1   1.00
      0.6500000              1.0000000
D    1   1.00
      0.1625000              1.0000000
F    1   1.00
      0.2500000              1.0000000
****
Si     0
S    6   1.00
  16115.9000000              0.00195948
   2425.5800000              0.01492880
    553.8670000              0.07284780
    156.3400000              0.24613000
     50.0683000              0.48591400
     17.0178000              0.32500200
SP   6   1.00
    292.7180000             -0.00278094             0.00443826
     69.8731000             -0.03571460             0.03266790
     22.3363000             -0.11498500             0.13472100
      8.1503900              0.09356340             0.32867800
      3.1345800              0.60301700             0.44964000
      1.2254300              0.41895900             0.26137200
SP   3   1.00
      1.7273800             -0.24463000            -0.01779510
      0.5729220              0.00431572             0.25353900
      0.2221920              1.09818000             0.80066900
SP   1   1.00
      0.0778369              1.00000000             1.00000000
D    1   1.00
      0.9000000              1.0000000
D    1   1.00
      0.2250000              1.0000000
F    1   1.00
      0.3200000              1.0000000
****
P     0
S    6   1.00
  19413.3000000              0.0018516
   2909.4200000              0.0142062
    661.3640000              0.0699995
    185.7590000              0.2400790
     59.1943000              0.4847620
     20.0310000              0.3352000
SP   6   1.00
    339.4780000             -0.00278217             0.00456462
     81.0101000             -0.0360499              0.03369360
     25.8780000             -0.1166310              0.13975500
      9.4522100              0.0968328              0.33936200
      3.6656600              0.6144180              0.45092100
      1.4674600              0.4037980              0.23858600
SP   3   1.00
      2.1562300             -0.2529230             -0.01776530
      0.7489970              0.0328517              0.27405800
      0.2831450              1.0812500              0.78542100
SP   1   1.00
      0.0998317              1.0000000              1.00000000
D    1   1.00
      1.1000000              1.0000000
D    1   1.00
      0.2750000              1.0000000
F    1   1.00
      0.4500000              1.0000000
****
S     0
S    6   1.00
  21917.1000000              0.0018690
   3301.4900000              0.0142300
    754.1460000              0.0696960
    212.7110000              0.2384870
     67.9896000              0.4833070
     23.0515000              0.3380740
SP   6   1.00
    423.7350000             -0.0023767              0.0040610
    100.7100000             -0.0316930              0.0306810
     32.1599000             -0.1133170              0.1304520
     11.8079000              0.0560900              0.3272050
      4.6311000              0.5922550              0.4528510
      1.8702500              0.4550060              0.2560420
SP   3   1.00
      2.6158400             -0.2503740             -0.0145110
      0.9221670              0.0669570              0.3102630
      0.3412870              1.0545100              0.7544830
SP   1   1.00
      0.1171670              1.0000000              1.0000000
D    1   1.00
      1.3000000              1.0000000
D    1   1.00
      0.3250000              1.0000000
F    1   1.00
      0.5500000              1.0000000
****
Cl     0
S    6   1.00
  25180.1000000              0.0018330
   3780.3500000              0.0140340
    860.4740000              0.0690970
    242.1450000              0.2374520
     77.3349000              0.4830340
     26.2470000              0.3398560
SP   6   1.00
    491.7650000             -0.0022974              0.0039894
    116.9840000             -0.0307140              0.0303180
     37.4153000             -0.1125280              0.1298800
     13.7834000              0.0450160              0.3279510
      5.4521500              0.5893530              0.4535270
      2.2258800              0.4652060              0.2521540
SP   3   1.00
      3.1864900             -0.2518300             -0.0142990
      1.1442700              0.0615890              0.3235720
      0.4203770              1.0601800              0.7435070
SP   1   1.00
      0.1426570              1.0000000              1.0000000
D    1   1.00
      1.5000000              1.0000000
D    1   1.00
      0.3750000              1.0000000
F    1   1.00
      0.7000000              1.0000000
****
}

set {
reference uhf
freeze_core true
e_convergence 10
d_convergence 10
dft_spherical_points 1202
dft_radial_points 99
}

e = energy('b3lyp')

print_out('Grab this energy {0}'.format(e))
--------------------------------------------------------------------------

    Molecular point group: c1

    Geometry (in Bohr), charge = 0, multiplicity = 2:

       Center              X                  Y                   Z               Mass
    ------------   -----------------  -----------------  -----------------  -----------------
         C           -0.323339460537    -0.000141396744    -0.001458630535    12.000000000000
         C            0.061836064163    -1.401375737344    -2.426426936535    12.000000000000
         C            0.060922665863     2.801255572856     0.001365540165    12.000000000000
         C            0.060540896963    -1.400158201344     2.427042399265    12.000000000000
         H            2.084775563963    -1.643585191344    -2.848351680535     1.007825032230
         H           -0.764350980737    -0.389412649444    -4.025246769935     1.007825032230
         H           -0.764816875137    -3.289167144444    -2.350189911535     1.007825032230
         H            2.090979216263     3.287956907356    -0.001141548235     1.007825032230
         H           -0.767970408837     3.681216502556     1.679824122165     1.007825032230
         H           -0.767672167637     3.681033167556    -1.681264020335     1.007825032230
         H            2.084917918663    -1.644107798444     2.846982906365     1.007825032230
         H           -0.764302683637    -3.289440903244     2.348896070865     1.007825032230
         H           -0.764129276237    -0.389494849444     4.024271032965     1.007825032230

  Charge       = 0
  Multiplicity = 2
  Basis Set: ANONYMOUS4CEA3932
    Blend: 6-31G_2DFP_
  Basis Set: (ANONYMOUS4CEA3932 AUX)
    Blend: DEF2-UNIVERSAL-JKFIT

    Orbital Energies [Eh]
    ---------------------

    Alpha Occupied:

       1A    -10.180342     2A    -10.167685     3A    -10.166710
       4A    -10.166649     5A     -0.797767     6A     -0.686518
       7A     -0.685857     8A     -0.530775     9A     -0.441126
      10A     -0.434758    11A     -0.434584    12A     -0.382824
      13A     -0.382375    14A     -0.363610    15A     -0.338295
      16A     -0.337702    17A     -0.168961

    Alpha Virtual:

      18A      0.076070    19A      0.134110    20A      0.134185
      21A      0.142513    22A      0.142756    23A      0.154875
      24A      0.178455    25A      0.179105    26A      0.203547
      27A      0.214806    28A      0.275852    29A      0.276120
      30A      0.399092    31A      0.399365    32A      0.403343
      33A      0.424002    34A      0.424193    35A      0.456592
      36A      0.495311    37A      0.495468    38A      0.512162
      39A      0.513978    40A      0.578679    41A      0.578951
      42A      0.591315    43A      0.591932    44A      0.602591
      45A      0.624764    46A      0.631682    47A      0.635954
      48A      0.636638    49A      0.663211    50A      0.663616
      51A      0.683550    52A      0.684172    53A      0.734994
      54A      0.824999    55A      0.825806    56A      0.853917
      57A      0.914921    58A      0.915133    59A      0.944129
      60A      0.944611    61A      0.961033    62A      0.961560
      63A      1.003455    64A      1.127773    65A      1.128447
      66A      1.142212    67A      1.163189    68A      1.163352
      69A      1.223324    70A      1.274234    71A      1.274741
      72A      1.279354    73A      1.323991    74A      1.324718
      75A      1.355980    76A      1.365700    77A      1.366407
      78A      1.392435    79A      1.403600    80A      1.404506
      81A      1.416704    82A      1.417512    83A      1.427921
      84A      1.491491    85A      1.499086    86A      1.542648
      87A      1.543016    88A      1.574027    89A      1.574877
      90A      1.669789    91A      1.739243    92A      1.739554
      93A      1.768345    94A      1.829856    95A      1.833011
      96A      1.971696    97A      2.017865    98A      2.019013
      99A      2.019501   100A      2.052060   101A      2.053272
     102A      2.738036   103A      2.738936   104A      2.790924
     105A      2.811430   106A      2.889195   107A      2.890666
     108A      2.894977   109A      2.929301   110A      2.929690
     111A      2.959003   112A      2.963782   113A      2.964992
     114A      3.034021   115A      3.071040   116A      3.071522
     117A      3.084380   118A      3.168585   119A      3.168957
     120A      3.180613   121A      3.285087   122A      3.285547
     123A      3.327097   124A      3.327226   125A      3.375613
     126A      3.489318   127A      3.490998   128A      3.514018
     129A      3.525342   130A      3.568282   131A      3.568448
     132A      3.575198   133A      3.665529   134A      3.667131
     135A      3.679681   136A      3.693717   137A      3.694577
     138A      3.776217   139A      3.777415   140A      3.789119
     141A      3.911636   142A      3.912790   143A      4.034442
     144A      4.110529   145A      4.112088   146A      4.146011
     147A      4.150150   148A      4.173319   149A      4.200543
     150A      4.203571   151A      4.204608   152A      4.211157
     153A      4.314907   154A      4.317003   155A      4.358942
     156A      4.423711   157A      4.425074   158A      4.443575
     159A      4.516512   160A      4.517135   161A      4.577774
     162A      4.578810   163A      4.617529   164A      4.709491
     165A      4.774412   166A      4.774778   167A      4.836881
     168A      4.962865   169A      5.002345   170A      5.003594
     171A      5.227825   172A      5.243081   173A      5.250532
     174A      5.352668   175A      5.358535   176A      5.479435

    Beta Occupied:

       1A    -10.168447     2A    -10.167467     3A    -10.167411
       4A    -10.166517     5A     -0.781092     6A     -0.684320
       7A     -0.683660     8A     -0.511747     9A     -0.431141
      10A     -0.430945    11A     -0.421822    12A     -0.376919
      13A     -0.376449    14A     -0.362593    15A     -0.333416
      16A     -0.332827

    Beta Virtual:

      17A     -0.025743    18A      0.077079    19A      0.134961
      20A      0.135115    21A      0.144433    22A      0.144576
      23A      0.163334    24A      0.182137    25A      0.182766
      26A      0.215035    27A      0.218929    28A      0.282212
      29A      0.282455    30A      0.400259    31A      0.400536
      32A      0.419788    33A      0.426812    34A      0.427007
      35A      0.468500    36A      0.497573    37A      0.497727
      38A      0.513897    39A      0.556324    40A      0.584221
      41A      0.584508    42A      0.597521    43A      0.598090
      44A      0.610009    45A      0.628140    46A      0.631883
      47A      0.639221    48A      0.639899    49A      0.666761
      50A      0.667194    51A      0.686219    52A      0.686773
      53A      0.757518    54A      0.830141    55A      0.831001
      56A      0.855271    57A      0.922892    58A      0.923103
      59A      0.945966    60A      0.953539    61A      0.966369
      62A      0.966836    63A      1.008695    64A      1.131788
      65A      1.132490    66A      1.155580    67A      1.168252
      68A      1.168444    69A      1.232297    70A      1.279811
      71A      1.280357    72A      1.285109    73A      1.328932
      74A      1.329755    75A      1.365389    76A      1.370941
      77A      1.371660    78A      1.393496    79A      1.407041
      80A      1.407993    81A      1.421729    82A      1.422585
      83A      1.428193    84A      1.492540    85A      1.509529
      86A      1.547027    87A      1.547452    88A      1.581910
      89A      1.582738    90A      1.674635    91A      1.745019
      92A      1.745308    93A      1.779120    94A      1.833740
      95A      1.836837    96A      1.972560    97A      2.025027
      98A      2.025843    99A      2.039676   100A      2.058744
     101A      2.060024   102A      2.746358   103A      2.747285
     104A      2.811841   105A      2.816060   106A      2.901941
     107A      2.903321   108A      2.924652   109A      2.931774
     110A      2.932186   111A      2.960069   112A      2.968295
     113A      2.969565   114A      3.041955   115A      3.080897
     116A      3.081447   117A      3.086236   118A      3.184247
     119A      3.184748   120A      3.188341   121A      3.289905
     122A      3.290327   123A      3.330902   124A      3.331028
     125A      3.383431   126A      3.492079   127A      3.493697
     128A      3.512383   129A      3.528387   130A      3.574943
     131A      3.581684   132A      3.581839   133A      3.670211
     134A      3.671972   135A      3.692992   136A      3.725275
     137A      3.726238   138A      3.780773   139A      3.781915
     140A      3.817664   141A      3.921450   142A      3.922611
     143A      4.045324   144A      4.117548   145A      4.118677
     146A      4.153452   147A      4.157162   148A      4.187372
     149A      4.207188   150A      4.209558   151A      4.211813
     152A      4.215643   153A      4.322394   154A      4.324392
     155A      4.362307   156A      4.431894   157A      4.433267
     158A      4.446514   159A      4.524359   160A      4.524870
     161A      4.588425   162A      4.589360   163A      4.624721
     164A      4.719835   165A      4.781357   166A      4.781738
     167A      4.839797   168A      4.967661   169A      5.006399
     170A      5.007618   171A      5.233535   172A      5.244871
     173A      5.252321   174A      5.359159   175A      5.365000
     176A      5.481756

    Final Occupation by Irrep:
              A
    DOCC [    16 ]
    SOCC [     1 ]

  @DF-UKS Final Energy:  -157.81305578352533

   => Energetics <=

    Nuclear Repulsion Energy =            125.3946625740533136
    One-Electron Energy =                -458.7489519384089363
    Two-Electron Energy =                 195.8483810172702420
    DFT Exchange-Correlation Energy =     -20.3071474364399371
    Empirical Dispersion Energy =           0.0000000000000000
    VV10 Nonlocal Energy =                  0.0000000000000000
    Total Energy =                       -157.8130557835253285

  UHF NO Occupations:
  HONO-2 :   15  A 1.9996009
  HONO-1 :   16  A 1.9989805
  HONO-0 :   17  A 1.0000000
  LUNO+0 :   18  A 0.0010195
  LUNO+1 :   19  A 0.0003991
  LUNO+2 :   20  A 0.0001980
  LUNO+3 :   21  A 0.0001971

Computation Completed

Properties will be evaluated at   0.000000,   0.000000,   0.000000 [a0]

Properties computed using the SCF density matrix

  Nuclear Dipole Moment: [e a0]
     X:     0.8272      Y:     0.0025      Z:    -0.0031

  Electronic Dipole Moment: [e a0]
     X:    -0.7493      Y:    -0.0049      Z:     0.0030

  Dipole Moment: [e a0]
     X:     0.0779      Y:    -0.0025      Z:    -0.0000     Total:     0.0780

  Dipole Moment: [D]
     X:     0.1980      Y:    -0.0062      Z:    -0.0001     Total:     0.1981

*** tstop() called on n032 at Fri Nov  5 12:08:15 2021
Module time:
	user time   =     633.12 seconds =      10.55 minutes
	system time =      12.05 seconds =       0.20 minutes
	total time  =        162 seconds =       2.70 minutes
Total time:
	user time   =     633.12 seconds =      10.55 minutes
	system time =      12.05 seconds =       0.20 minutes
	total time  =        162 seconds =       2.70 minutes
Grab this energy -157.81305578352533
    Psi4 stopped on: Friday, 05 November 2021 12:08PM
    Psi4 wall time for execution: 0:02:42.20

*** Psi4 exiting successfully. Buy a developer a beer!
