                               Psi4 1.4a2.dev629

  ==> Input File <==

--------------------------------------------------------------------------
import os
memory 14 GB

molecule {
 C   -0.3233363628   -0.0073413325    0.0000000000
 C    0.0609891447   -1.4023783919   -2.4250535853
 C    0.0613230385    2.8025522371    0.0000000000
 C    0.0609891447   -1.4023783919    2.4250535853
 H    2.0871674218   -1.6451274298   -2.8438494085
 H   -0.7632124404   -0.3850276390   -4.0221976961
 H   -0.7671985672   -3.2925975308   -2.3530458284
 H    2.0863310893    3.2932970296    0.0000000000
 H   -0.7662083798    3.6808648676    1.6768760404
 H   -0.7662083798    3.6808648676   -1.6768760404
 H    2.0871674218   -1.6451274298    2.8438494085
 H   -0.7671985672   -3.2925975308    2.3530458284
 H   -0.7632124404   -0.3850276390    4.0221976961
units bohr
0 2
}

basis {

assign 6-31g_2dfp_

[ 6-31g_2dfp_ ]

spherical

!----------------------------------------------------------------------
! Basis Set Exchange
! Version v0.8.13
! https://www.basissetexchange.org
!----------------------------------------------------------------------
!   Basis set: 6-31G(2df,p)
! Description: 6-31G(2df,p)
!        Role: orbital
!     Version: 0  (Data from the original Basis Set Exchange)
!----------------------------------------------------------------------

****
H     0
S    3   1.00
     18.7311370              0.03349460
      2.8253937              0.23472695
      0.6401217              0.81375733
S    1   1.00
      0.1612778              1.00000000
P    1   1.00
      1.5000000              1.0000000
P    1   1.00
      0.3750000              1.0000000
****
B     0
S    6   1.00
   2068.8823000              0.0018663
    310.6495700              0.0142515
     70.6830330              0.0695516
     19.8610800              0.2325729
      6.2993048              0.4670787
      2.1270270              0.3634314
SP   3   1.00
      4.7279710             -0.1303938              0.0745976
      1.1903377             -0.1307889              0.3078467
      0.3594117              1.1309444              0.7434568
SP   1   1.00
      0.1267512              1.0000000              1.0000000
D    1   1.00
      0.8020000              1.0000000
D    1   1.00
      0.2005000              1.0000000
F    1   1.00
      0.5000000              1.0000000
****
C     0
S    6   1.00
   3047.5249000              0.0018347
    457.3695100              0.0140373
    103.9486900              0.0688426
     29.2101550              0.2321844
      9.2866630              0.4679413
      3.1639270              0.3623120
SP   3   1.00
      7.8682724             -0.1193324              0.0689991
      1.8812885             -0.1608542              0.3164240
      0.5442493              1.1434564              0.7443083
SP   1   1.00
      0.1687144              1.0000000              1.0000000
D    1   1.00
      1.2520000              1.0000000
D    1   1.00
      0.3130000              1.0000000
F    1   1.00
      0.8000000              1.0000000
****
N     0
S    6   1.00
   4173.5110000              0.0018348
    627.4579000              0.0139950
    142.9021000              0.0685870
     40.2343300              0.2322410
     12.8202100              0.4690700
      4.3904370              0.3604550
SP   3   1.00
     11.6263580             -0.1149610              0.0675800
      2.7162800             -0.1691180              0.3239070
      0.7722180              1.1458520              0.7408950
SP   1   1.00
      0.2120313              1.0000000              1.0000000
D    1   1.00
      1.8260000              1.0000000
D    1   1.00
      0.4565000              1.0000000
F    1   1.00
      1.0000000              1.0000000
****
O     0
S    6   1.00
   5484.6717000              0.0018311
    825.2349500              0.0139501
    188.0469600              0.0684451
     52.9645000              0.2327143
     16.8975700              0.4701930
      5.7996353              0.3585209
SP   3   1.00
     15.5396160             -0.1107775              0.0708743
      3.5999336             -0.1480263              0.3397528
      1.0137618              1.1307670              0.7271586
SP   1   1.00
      0.2700058              1.0000000              1.0000000
D    1   1.00
      2.5840000              1.0000000
D    1   1.00
      0.6460000              1.0000000
F    1   1.00
      1.4000000              1.0000000
****
F     0
S    6   1.00
   7001.7130900              0.0018196169
   1051.3660900              0.0139160796
    239.2856900              0.0684053245
     67.3974453              0.233185760
     21.5199573              0.471267439
      7.40310130             0.356618546
SP   3   1.00
     20.8479528             -0.108506975            0.0716287243
      4.80830834            -0.146451658            0.3459121030
      1.34406986             1.128688580            0.7224699570
SP   1   1.00
      0.358151393            1.0000000              1.0000000
D    1   1.00
      3.5000000              1.0000000
D    1   1.00
      0.8750000              1.0000000
F    1   1.00
      1.8500000              1.0000000
****
Al     0
S    6   1.00
  13983.1000000              0.00194267
   2098.7500000              0.0148599
    477.7050000              0.0728494
    134.3600000              0.2468300
     42.8709000              0.4872580
     14.5189000              0.3234960
SP   6   1.00
    239.6680000             -0.00292619             0.00460285
     57.4419000             -0.0374080              0.0331990
     18.2859000             -0.1144870              0.1362820
      6.5991400              0.1156350              0.3304760
      2.4904900              0.6125950              0.4491460
      0.9445400              0.3937990              0.2657040
SP   3   1.00
      1.2779000             -0.2276060             -0.0175130
      0.3975900              0.00144583             0.2445330
      0.1600950              1.0927900              0.8049340
SP   1   1.00
      0.0556577              1.0000000              1.0000000
D    1   1.00
      0.6500000              1.0000000
D    1   1.00
      0.1625000              1.0000000
F    1   1.00
      0.2500000              1.0000000
****
Si     0
S    6   1.00
  16115.9000000              0.00195948
   2425.5800000              0.01492880
    553.8670000              0.07284780
    156.3400000              0.24613000
     50.0683000              0.48591400
     17.0178000              0.32500200
SP   6   1.00
    292.7180000             -0.00278094             0.00443826
     69.8731000             -0.03571460             0.03266790
     22.3363000             -0.11498500             0.13472100
      8.1503900              0.09356340             0.32867800
      3.1345800              0.60301700             0.44964000
      1.2254300              0.41895900             0.26137200
SP   3   1.00
      1.7273800             -0.24463000            -0.01779510
      0.5729220              0.00431572             0.25353900
      0.2221920              1.09818000             0.80066900
SP   1   1.00
      0.0778369              1.00000000             1.00000000
D    1   1.00
      0.9000000              1.0000000
D    1   1.00
      0.2250000              1.0000000
F    1   1.00
      0.3200000              1.0000000
****
P     0
S    6   1.00
  19413.3000000              0.0018516
   2909.4200000              0.0142062
    661.3640000              0.0699995
    185.7590000              0.2400790
     59.1943000              0.4847620
     20.0310000              0.3352000
SP   6   1.00
    339.4780000             -0.00278217             0.00456462
     81.0101000             -0.0360499              0.03369360
     25.8780000             -0.1166310              0.13975500
      9.4522100              0.0968328              0.33936200
      3.6656600              0.6144180              0.45092100
      1.4674600              0.4037980              0.23858600
SP   3   1.00
      2.1562300             -0.2529230             -0.01776530
      0.7489970              0.0328517              0.27405800
      0.2831450              1.0812500              0.78542100
SP   1   1.00
      0.0998317              1.0000000              1.00000000
D    1   1.00
      1.1000000              1.0000000
D    1   1.00
      0.2750000              1.0000000
F    1   1.00
      0.4500000              1.0000000
****
S     0
S    6   1.00
  21917.1000000              0.0018690
   3301.4900000              0.0142300
    754.1460000              0.0696960
    212.7110000              0.2384870
     67.9896000              0.4833070
     23.0515000              0.3380740
SP   6   1.00
    423.7350000             -0.0023767              0.0040610
    100.7100000             -0.0316930              0.0306810
     32.1599000             -0.1133170              0.1304520
     11.8079000              0.0560900              0.3272050
      4.6311000              0.5922550              0.4528510
      1.8702500              0.4550060              0.2560420
SP   3   1.00
      2.6158400             -0.2503740             -0.0145110
      0.9221670              0.0669570              0.3102630
      0.3412870              1.0545100              0.7544830
SP   1   1.00
      0.1171670              1.0000000              1.0000000
D    1   1.00
      1.3000000              1.0000000
D    1   1.00
      0.3250000              1.0000000
F    1   1.00
      0.5500000              1.0000000
****
Cl     0
S    6   1.00
  25180.1000000              0.0018330
   3780.3500000              0.0140340
    860.4740000              0.0690970
    242.1450000              0.2374520
     77.3349000              0.4830340
     26.2470000              0.3398560
SP   6   1.00
    491.7650000             -0.0022974              0.0039894
    116.9840000             -0.0307140              0.0303180
     37.4153000             -0.1125280              0.1298800
     13.7834000              0.0450160              0.3279510
      5.4521500              0.5893530              0.4535270
      2.2258800              0.4652060              0.2521540
SP   3   1.00
      3.1864900             -0.2518300             -0.0142990
      1.1442700              0.0615890              0.3235720
      0.4203770              1.0601800              0.7435070
SP   1   1.00
      0.1426570              1.0000000              1.0000000
D    1   1.00
      1.5000000              1.0000000
D    1   1.00
      0.3750000              1.0000000
F    1   1.00
      0.7000000              1.0000000
****
}

set {
reference uhf
freeze_core true
e_convergence 10
d_convergence 10
dft_spherical_points 1202
dft_radial_points 99
}

e = energy('b3lyp')

print_out('Grab this energy {0}'.format(e))
--------------------------------------------------------------------------

    Molecular point group: cs

    Geometry (in Bohr), charge = 0, multiplicity = 2:

       Center              X                  Y                   Z               Mass
    ------------   -----------------  -----------------  -----------------  -----------------
         C           -0.323337316193    -0.005502298049     0.000000000000    12.000000000000
         C            0.060988191307    -1.400539357449    -2.425053585300    12.000000000000
         C            0.061322085107     2.804391271551     0.000000000000    12.000000000000
         C            0.060988191307    -1.400539357449     2.425053585300    12.000000000000
         H            2.087166468407    -1.643288395349    -2.843849408500     1.007825032230
         H           -0.763213393793    -0.383188604549    -4.022197696100     1.007825032230
         H           -0.767199520593    -3.290758496349    -2.353045828400     1.007825032230
         H            2.086330135907     3.295136064051     0.000000000000     1.007825032230
         H           -0.766209333193     3.682703902051     1.676876040400     1.007825032230
         H           -0.766209333193     3.682703902051    -1.676876040400     1.007825032230
         H            2.087166468407    -1.643288395349     2.843849408500     1.007825032230
         H           -0.767199520593    -3.290758496349     2.353045828400     1.007825032230
         H           -0.763213393793    -0.383188604549     4.022197696100     1.007825032230

  Charge       = 0
  Multiplicity = 2
  Basis Set: ANONYMOUS28FF4C38
    Blend: 6-31G_2DFP_
  Basis Set: (ANONYMOUS28FF4C38 AUX)
    Blend: DEF2-UNIVERSAL-JKFIT

    Orbital Energies [Eh]
    ---------------------

    Alpha Occupied:

       1Ap   -10.180341     2Ap   -10.167231     1App  -10.166922
       3Ap   -10.166890     4Ap    -0.797773     2App   -0.686498
       5Ap    -0.685874     6Ap    -0.530775     7Ap    -0.441128
       8Ap    -0.434816     3App   -0.434530     4App   -0.382750
       9Ap    -0.382446     5App   -0.363610     6App   -0.338584
      10Ap    -0.337412    11Ap    -0.168959

    Alpha Virtual:

      12Ap     0.076073    13Ap     0.134138     7App    0.134174
      14Ap     0.142507     8App    0.142741    15Ap     0.154881
       9App    0.178745    16Ap     0.178810    17Ap     0.203543
      10App    0.214802    18Ap     0.275430    11App    0.276541
      19Ap     0.399055    12App    0.399391    20Ap     0.403356
      13App    0.424042    21Ap     0.424157    22Ap     0.456591
      14App    0.495379    23Ap     0.495399    15App    0.512160
      24Ap     0.513978    25Ap     0.578324    16App    0.579297
      26Ap     0.591349    17App    0.591934    27Ap     0.602586
      28Ap     0.624761    18App    0.631774    29Ap     0.636066
      19App    0.636444    20App    0.663313    30Ap     0.663513
      21App    0.683832    31Ap     0.683872    32Ap     0.734995
      22App    0.825297    33Ap     0.825515    23App    0.853918
      34Ap     0.914965    24App    0.915047    25App    0.944126
      35Ap     0.944642    26App    0.960777    36Ap     0.961812
      37Ap     1.003469    38Ap     1.128025    27App    1.128136
      39Ap     1.142257    40Ap     1.162992    28App    1.163569
      41Ap     1.223320    29App    1.274185    42Ap     1.274804
      43Ap     1.279349    44Ap     1.324271    30App    1.324446
      45Ap     1.355994    46Ap     1.365625    31App    1.366465
      32App    1.392468    47Ap     1.403683    33App    1.404391
      48Ap     1.417040    34App    1.417191    35App    1.427935
      36App    1.491486    49Ap     1.499083    37App    1.542566
      50Ap     1.543098    38App    1.574416    51Ap     1.574471
      52Ap     1.669829    53Ap     1.738844    39App    1.739995
      54Ap     1.768300    55Ap     1.830655    40App    1.832144
      41App    1.971722    56Ap     2.018065    42App    2.018435
      57Ap     2.019908    58Ap     2.051319    43App    2.053986
      44App    2.738449    59Ap     2.738514    60Ap     2.790937
      45App    2.811410    61Ap     2.889076    46App    2.890787
      62Ap     2.894986    63Ap     2.929084    47App    2.929908
      48App    2.958991    49App    2.964078    64Ap     2.964665
      65Ap     3.033997    66Ap     3.070927    50App    3.071651
      51App    3.084347    67Ap     3.168583    52App    3.168936
      68Ap     3.180675    69Ap     3.284970    53App    3.285652
      54App    3.327114    70Ap     3.327211    71Ap     3.375601
      72Ap     3.489462    55App    3.490818    56App    3.513992
      73Ap     3.525337    57App    3.568302    74Ap     3.568317
      58App    3.575289    59App    3.665902    75Ap     3.666808
      76Ap     3.679634    77Ap     3.693681    60App    3.694573
      61App    3.776311    78Ap     3.777259    79Ap     3.789269
      80Ap     3.911502    62App    3.912958    81Ap     4.034396
      82Ap     4.109763    63App    4.112928    83Ap     4.146278
      64App    4.149976    84Ap     4.173280    85Ap     4.202171
      86Ap     4.203133    65App    4.203473    66App    4.210924
      87Ap     4.314628    67App    4.317322    68App    4.358996
      69App    4.424234    88Ap     4.424638    70App    4.443474
      89Ap     4.516275    71App    4.517395    90Ap     4.577625
      72App    4.578466    91Ap     4.617932    92Ap     4.709482
      73App    4.774031    93Ap     4.775251    74App    4.836946
      94Ap     4.962784    95Ap     5.002953    75App    5.003054
      96Ap     5.228041    76App    5.246362    97Ap     5.247250
      98Ap     5.354222    77App    5.356789    78App    5.479376

    Beta Occupied:

       1Ap   -10.167986     1App  -10.167676     2Ap   -10.167660
       3Ap   -10.166518     4Ap    -0.781098     2App   -0.684281
       5Ap    -0.683697     6Ap    -0.511747     7Ap    -0.431193
       3App   -0.430894     8Ap    -0.421825     4App   -0.376789
       9Ap    -0.376578     5App   -0.362594     6App   -0.333713
      10Ap    -0.332529

    Beta Virtual:

      11Ap    -0.025742    12Ap     0.077082    13Ap     0.135019
       7App    0.135073    14Ap     0.144391     8App    0.144600
      15Ap     0.163340     9App    0.182447    16Ap     0.182451
      10App    0.215031    17Ap     0.218925    18Ap     0.281822
      11App    0.282843    19Ap     0.400238    12App    0.400556
      20Ap     0.419790    13App    0.426862    21Ap     0.426961
      22Ap     0.468498    14App    0.497645    23Ap     0.497656
      15App    0.513895    24Ap     0.556319    25Ap     0.583852
      16App    0.584873    26Ap     0.597532    17App    0.598106
      27Ap     0.610009    28Ap     0.628135    18App    0.631930
      29Ap     0.639324    19App    0.639764    20App    0.666882
      30Ap     0.667072    31Ap     0.686488    21App    0.686488
      32Ap     0.757517    22App    0.830440    33Ap     0.830709
      23App    0.855271    24App    0.922955    34Ap     0.922996
      25App    0.945963    35Ap     0.953571    26App    0.966147
      36Ap     0.967056    37Ap     1.008709    27App    1.132067
      38Ap     1.132170    39Ap     1.155621    40Ap     1.167985
      28App    1.168715    41Ap     1.232292    29App    1.279834
      42Ap     1.280353    43Ap     1.285101    44Ap     1.329256
      30App    1.329441    45Ap     1.365408    46Ap     1.370948
      31App    1.371631    32App    1.393526    47Ap     1.407069
      33App    1.407929    48Ap     1.422089    34App    1.422243
      35App    1.428211    36App    1.492535    49Ap     1.509527
      37App    1.546978    50Ap     1.547499    38App    1.582316
      51Ap     1.582318    52Ap     1.674675    53Ap     1.744595
      39App    1.745769    54Ap     1.779076    55Ap     1.834500
      40App    1.836010    41App    1.972582    42App    2.024838
      56Ap     2.026042    57Ap     2.039697    58Ap     2.058031
      43App    2.060715    59Ap     2.746807    44App    2.746830
      45App    2.811824    60Ap     2.816069    61Ap     2.901943
      46App    2.903324    62Ap     2.924662    63Ap     2.931528
      47App    2.932431    48App    2.960054    49App    2.968641
      64Ap     2.969190    65Ap     3.041932    66Ap     3.080903
      50App    3.081494    51App    3.086162    67Ap     3.184086
      52App    3.184812    68Ap     3.188478    69Ap     3.289785
      53App    3.290434    54App    3.330899    70Ap     3.331035
      71Ap     3.383422    72Ap     3.492201    55App    3.493538
      56App    3.512357    73Ap     3.528387    57App    3.574867
      74Ap     3.581569    58App    3.582008    59App    3.670976
      75Ap     3.671272    76Ap     3.692917    77Ap     3.725737
      60App    3.725749    61App    3.780871    78Ap     3.781776
      79Ap     3.817780    80Ap     3.921344    62App    3.922756
      81Ap     4.045282    82Ap     4.116745    63App    4.119588
      83Ap     4.153482    64App    4.157182    84Ap     4.187338
      85Ap     4.208461    65App    4.209392    86Ap     4.210746
      66App    4.215418    87Ap     4.321981    67App    4.324845
      68App    4.362360    69App    4.432467    88Ap     4.432816
      70App    4.446382    89Ap     4.524028    71App    4.525221
      90Ap     4.588179    72App    4.589068    91Ap     4.625169
      92Ap     4.719829    73App    4.781060    93Ap     4.782129
      74App    4.839866    94Ap     4.967573    95Ap     5.006974
      75App    5.007117    96Ap     5.233756    76App    5.248132
      97Ap     5.249047    98Ap     5.360656    77App    5.363317
      78App    5.481697

    Final Occupation by Irrep:
             Ap   App
    DOCC [    10,    6 ]
    SOCC [     1,    0 ]

  @DF-UKS Final Energy:  -157.81305878438724

   => Energetics <=

    Nuclear Repulsion Energy =            125.3947894928037528
    One-Electron Energy =                -458.7492088681471500
    Two-Electron Energy =                 195.8485106423055697
    DFT Exchange-Correlation Energy =     -20.3071500513493994
    Empirical Dispersion Energy =           0.0000000000000000
    VV10 Nonlocal Energy =                  0.0000000000000000
    Total Energy =                       -157.8130587843872377

  UHF NO Occupations:
  HONO-2 :    9 Ap 1.9996008
  HONO-1 :   10 Ap 1.9989804
  HONO-0 :   11 Ap 1.0000000
  LUNO+0 :   12 Ap 0.0010196
  LUNO+1 :   13 Ap 0.0003992
  LUNO+2 :   14 Ap 0.0001989
  LUNO+3 :    7App 0.0001961

Computation Completed

Properties will be evaluated at   0.000000,   0.000000,   0.000000 [a0]

Properties computed using the SCF density matrix

  Nuclear Dipole Moment: [e a0]
     X:     0.8272      Y:     0.0129      Z:     0.0000

  Electronic Dipole Moment: [e a0]
     X:    -0.7493      Y:    -0.0142      Z:     0.0000

  Dipole Moment: [e a0]
     X:     0.0779      Y:    -0.0013      Z:     0.0000     Total:     0.0779

  Dipole Moment: [D]
     X:     0.1980      Y:    -0.0032      Z:     0.0000     Total:     0.1981

*** tstop() called on n089 at Fri Nov  5 13:48:26 2021
Module time:
	user time   =     509.10 seconds =       8.49 minutes
	system time =       4.75 seconds =       0.08 minutes
	total time  =        129 seconds =       2.15 minutes
Total time:
	user time   =     509.10 seconds =       8.49 minutes
	system time =       4.75 seconds =       0.08 minutes
	total time  =        129 seconds =       2.15 minutes
Grab this energy -157.81305878438724
    Psi4 stopped on: Friday, 05 November 2021 01:48PM
    Psi4 wall time for execution: 0:02:09.20

*** Psi4 exiting successfully. Buy a developer a beer!
