                               Psi4 1.4a2.dev629

  ==> Input File <==

--------------------------------------------------------------------------
import os
memory 14 GB

molecule {
 C   -0.3233398714    0.0021803004    0.0000000000
 C    0.0609821102   -1.4001721282   -2.4275831635
 C    0.0613362260    2.8003828143    0.0000000000
 C    0.0609821102   -1.4001721282    2.4275831635
 H    2.0865946140   -1.6434907010   -2.8438003646
 H   -0.7625730511   -0.3896337324   -4.0325693272
 H   -0.7686182622   -3.2895544360   -2.3496764096
 H    2.0874563803    3.2950229470   -0.0000000000
 H   -0.7654157167    3.6740458099    1.6766226959
 H   -0.7654157167    3.6740458099   -1.6766226959
 H    2.0865946140   -1.6434907010    2.8438003646
 H   -0.7686182622   -3.2895544360    2.3496764096
 H   -0.7625730511   -0.3896337324    4.0325693272
units bohr
0 2
}

basis {

assign 6-31g_2dfp_

[ 6-31g_2dfp_ ]

spherical

!----------------------------------------------------------------------
! Basis Set Exchange
! Version v0.8.13
! https://www.basissetexchange.org
!----------------------------------------------------------------------
!   Basis set: 6-31G(2df,p)
! Description: 6-31G(2df,p)
!        Role: orbital
!     Version: 0  (Data from the original Basis Set Exchange)
!----------------------------------------------------------------------

****
H     0
S    3   1.00
     18.7311370              0.03349460
      2.8253937              0.23472695
      0.6401217              0.81375733
S    1   1.00
      0.1612778              1.00000000
P    1   1.00
      1.5000000              1.0000000
P    1   1.00
      0.3750000              1.0000000
****
B     0
S    6   1.00
   2068.8823000              0.0018663
    310.6495700              0.0142515
     70.6830330              0.0695516
     19.8610800              0.2325729
      6.2993048              0.4670787
      2.1270270              0.3634314
SP   3   1.00
      4.7279710             -0.1303938              0.0745976
      1.1903377             -0.1307889              0.3078467
      0.3594117              1.1309444              0.7434568
SP   1   1.00
      0.1267512              1.0000000              1.0000000
D    1   1.00
      0.8020000              1.0000000
D    1   1.00
      0.2005000              1.0000000
F    1   1.00
      0.5000000              1.0000000
****
C     0
S    6   1.00
   3047.5249000              0.0018347
    457.3695100              0.0140373
    103.9486900              0.0688426
     29.2101550              0.2321844
      9.2866630              0.4679413
      3.1639270              0.3623120
SP   3   1.00
      7.8682724             -0.1193324              0.0689991
      1.8812885             -0.1608542              0.3164240
      0.5442493              1.1434564              0.7443083
SP   1   1.00
      0.1687144              1.0000000              1.0000000
D    1   1.00
      1.2520000              1.0000000
D    1   1.00
      0.3130000              1.0000000
F    1   1.00
      0.8000000              1.0000000
****
N     0
S    6   1.00
   4173.5110000              0.0018348
    627.4579000              0.0139950
    142.9021000              0.0685870
     40.2343300              0.2322410
     12.8202100              0.4690700
      4.3904370              0.3604550
SP   3   1.00
     11.6263580             -0.1149610              0.0675800
      2.7162800             -0.1691180              0.3239070
      0.7722180              1.1458520              0.7408950
SP   1   1.00
      0.2120313              1.0000000              1.0000000
D    1   1.00
      1.8260000              1.0000000
D    1   1.00
      0.4565000              1.0000000
F    1   1.00
      1.0000000              1.0000000
****
O     0
S    6   1.00
   5484.6717000              0.0018311
    825.2349500              0.0139501
    188.0469600              0.0684451
     52.9645000              0.2327143
     16.8975700              0.4701930
      5.7996353              0.3585209
SP   3   1.00
     15.5396160             -0.1107775              0.0708743
      3.5999336             -0.1480263              0.3397528
      1.0137618              1.1307670              0.7271586
SP   1   1.00
      0.2700058              1.0000000              1.0000000
D    1   1.00
      2.5840000              1.0000000
D    1   1.00
      0.6460000              1.0000000
F    1   1.00
      1.4000000              1.0000000
****
F     0
S    6   1.00
   7001.7130900              0.0018196169
   1051.3660900              0.0139160796
    239.2856900              0.0684053245
     67.3974453              0.233185760
     21.5199573              0.471267439
      7.40310130             0.356618546
SP   3   1.00
     20.8479528             -0.108506975            0.0716287243
      4.80830834            -0.146451658            0.3459121030
      1.34406986             1.128688580            0.7224699570
SP   1   1.00
      0.358151393            1.0000000              1.0000000
D    1   1.00
      3.5000000              1.0000000
D    1   1.00
      0.8750000              1.0000000
F    1   1.00
      1.8500000              1.0000000
****
Al     0
S    6   1.00
  13983.1000000              0.00194267
   2098.7500000              0.0148599
    477.7050000              0.0728494
    134.3600000              0.2468300
     42.8709000              0.4872580
     14.5189000              0.3234960
SP   6   1.00
    239.6680000             -0.00292619             0.00460285
     57.4419000             -0.0374080              0.0331990
     18.2859000             -0.1144870              0.1362820
      6.5991400              0.1156350              0.3304760
      2.4904900              0.6125950              0.4491460
      0.9445400              0.3937990              0.2657040
SP   3   1.00
      1.2779000             -0.2276060             -0.0175130
      0.3975900              0.00144583             0.2445330
      0.1600950              1.0927900              0.8049340
SP   1   1.00
      0.0556577              1.0000000              1.0000000
D    1   1.00
      0.6500000              1.0000000
D    1   1.00
      0.1625000              1.0000000
F    1   1.00
      0.2500000              1.0000000
****
Si     0
S    6   1.00
  16115.9000000              0.00195948
   2425.5800000              0.01492880
    553.8670000              0.07284780
    156.3400000              0.24613000
     50.0683000              0.48591400
     17.0178000              0.32500200
SP   6   1.00
    292.7180000             -0.00278094             0.00443826
     69.8731000             -0.03571460             0.03266790
     22.3363000             -0.11498500             0.13472100
      8.1503900              0.09356340             0.32867800
      3.1345800              0.60301700             0.44964000
      1.2254300              0.41895900             0.26137200
SP   3   1.00
      1.7273800             -0.24463000            -0.01779510
      0.5729220              0.00431572             0.25353900
      0.2221920              1.09818000             0.80066900
SP   1   1.00
      0.0778369              1.00000000             1.00000000
D    1   1.00
      0.9000000              1.0000000
D    1   1.00
      0.2250000              1.0000000
F    1   1.00
      0.3200000              1.0000000
****
P     0
S    6   1.00
  19413.3000000              0.0018516
   2909.4200000              0.0142062
    661.3640000              0.0699995
    185.7590000              0.2400790
     59.1943000              0.4847620
     20.0310000              0.3352000
SP   6   1.00
    339.4780000             -0.00278217             0.00456462
     81.0101000             -0.0360499              0.03369360
     25.8780000             -0.1166310              0.13975500
      9.4522100              0.0968328              0.33936200
      3.6656600              0.6144180              0.45092100
      1.4674600              0.4037980              0.23858600
SP   3   1.00
      2.1562300             -0.2529230             -0.01776530
      0.7489970              0.0328517              0.27405800
      0.2831450              1.0812500              0.78542100
SP   1   1.00
      0.0998317              1.0000000              1.00000000
D    1   1.00
      1.1000000              1.0000000
D    1   1.00
      0.2750000              1.0000000
F    1   1.00
      0.4500000              1.0000000
****
S     0
S    6   1.00
  21917.1000000              0.0018690
   3301.4900000              0.0142300
    754.1460000              0.0696960
    212.7110000              0.2384870
     67.9896000              0.4833070
     23.0515000              0.3380740
SP   6   1.00
    423.7350000             -0.0023767              0.0040610
    100.7100000             -0.0316930              0.0306810
     32.1599000             -0.1133170              0.1304520
     11.8079000              0.0560900              0.3272050
      4.6311000              0.5922550              0.4528510
      1.8702500              0.4550060              0.2560420
SP   3   1.00
      2.6158400             -0.2503740             -0.0145110
      0.9221670              0.0669570              0.3102630
      0.3412870              1.0545100              0.7544830
SP   1   1.00
      0.1171670              1.0000000              1.0000000
D    1   1.00
      1.3000000              1.0000000
D    1   1.00
      0.3250000              1.0000000
F    1   1.00
      0.5500000              1.0000000
****
Cl     0
S    6   1.00
  25180.1000000              0.0018330
   3780.3500000              0.0140340
    860.4740000              0.0690970
    242.1450000              0.2374520
     77.3349000              0.4830340
     26.2470000              0.3398560
SP   6   1.00
    491.7650000             -0.0022974              0.0039894
    116.9840000             -0.0307140              0.0303180
     37.4153000             -0.1125280              0.1298800
     13.7834000              0.0450160              0.3279510
      5.4521500              0.5893530              0.4535270
      2.2258800              0.4652060              0.2521540
SP   3   1.00
      3.1864900             -0.2518300             -0.0142990
      1.1442700              0.0615890              0.3235720
      0.4203770              1.0601800              0.7435070
SP   1   1.00
      0.1426570              1.0000000              1.0000000
D    1   1.00
      1.5000000              1.0000000
D    1   1.00
      0.3750000              1.0000000
F    1   1.00
      0.7000000              1.0000000
****
}

set {
reference uhf
freeze_core true
e_convergence 10
d_convergence 10
dft_spherical_points 1202
dft_radial_points 99
}

e = energy('b3lyp')

print_out('Grab this energy {0}'.format(e))
--------------------------------------------------------------------------

    Molecular point group: cs

    Geometry (in Bohr), charge = 0, multiplicity = 2:

       Center              X                  Y                   Z               Mass
    ------------   -----------------  -----------------  -----------------  -----------------
         C           -0.323339979230     0.001753361673     0.000000000000    12.000000000000
         C            0.060982002370    -1.400599066927    -2.427583163500    12.000000000000
         C            0.061336118170     2.799955875573     0.000000000000    12.000000000000
         C            0.060982002370    -1.400599066927     2.427583163500    12.000000000000
         H            2.086594506170    -1.643917639727    -2.843800364600     1.007825032230
         H           -0.762573158930    -0.390060671127    -4.032569327200     1.007825032230
         H           -0.768618370030    -3.289981374727    -2.349676409600     1.007825032230
         H            2.087456272470     3.294596008273     0.000000000000     1.007825032230
         H           -0.765415824530     3.673618871173     1.676622695900     1.007825032230
         H           -0.765415824530     3.673618871173    -1.676622695900     1.007825032230
         H            2.086594506170    -1.643917639727     2.843800364600     1.007825032230
         H           -0.768618370030    -3.289981374727     2.349676409600     1.007825032230
         H           -0.762573158930    -0.390060671127     4.032569327200     1.007825032230

  Charge       = 0
  Multiplicity = 2
  Basis Set: ANONYMOUS1EAD2E37
    Blend: 6-31G_2DFP_
  Basis Set: (ANONYMOUS1EAD2E37 AUX)
    Blend: DEF2-UNIVERSAL-JKFIT

    Orbital Energies [Eh]
    ---------------------

    Alpha Occupied:

       1Ap   -10.180342     1App  -10.167155     2Ap   -10.167126
       3Ap   -10.166764     4Ap    -0.797768     5Ap    -0.686301
       2App   -0.686074     6Ap    -0.530775     7Ap    -0.441125
       3App   -0.434833     8Ap    -0.434513     4App   -0.382779
       9Ap    -0.382419     5App   -0.363608     6App   -0.338002
      10Ap    -0.337994    11Ap    -0.168961

    Alpha Virtual:

      12Ap     0.076073     7App    0.134142    13Ap     0.134169
      14Ap     0.142407     8App    0.142846    15Ap     0.154880
      16Ap     0.178629     9App    0.178917    17Ap     0.203557
      10App    0.214801    11App    0.275670    18Ap     0.276300
      12App    0.399098    19Ap     0.399346    20Ap     0.403353
      13App    0.423963    21Ap     0.424237    22Ap     0.456599
      23Ap     0.495349    14App    0.495428    15App    0.512162
      24Ap     0.513981    16App    0.578493    25Ap     0.579106
      26Ap     0.591610    17App    0.591672    27Ap     0.602588
      28Ap     0.624763    18App    0.631725    29Ap     0.636122
      19App    0.636431    20App    0.663168    30Ap     0.663658
      21App    0.683760    31Ap     0.683943    32Ap     0.734992
      33Ap     0.825380    22App    0.825431    23App    0.853917
      34Ap     0.914836    24App    0.915214    25App    0.944116
      35Ap     0.944610    36Ap     0.961268    26App    0.961333
      37Ap     1.003449    27App    1.127739    38Ap     1.128431
      39Ap     1.142168    28App    1.163256    40Ap     1.163375
      41Ap     1.223330    29App    1.274207    42Ap     1.274731
      43Ap     1.279401    30App    1.324297    44Ap     1.324411
      45Ap     1.355979    31App    1.365734    46Ap     1.366376
      32App    1.392457    47Ap     1.403868    33App    1.404209
      48Ap     1.417045    34App    1.417141    35App    1.427948
      36App    1.491509    49Ap     1.499064    37App    1.542689
      50Ap     1.542993    51Ap     1.573736    38App    1.575163
      52Ap     1.669844    39App    1.739251    53Ap     1.739583
      54Ap     1.768325    40App    1.830549    55Ap     1.832239
      41App    1.971717    56Ap     2.018187    57Ap     2.019100
      42App    2.019107    43App    2.052136    58Ap     2.053165
      44App    2.738444    59Ap     2.738525    60Ap     2.790937
      45App    2.811423    46App    2.889383    61Ap     2.890328
      62Ap     2.895139    63Ap     2.929022    47App    2.929976
      48App    2.958984    64Ap     2.964284    49App    2.964483
      65Ap     3.034001    66Ap     3.070943    50App    3.071620
      51App    3.084350    52App    3.168508    67Ap     3.169027
      68Ap     3.180608    53App    3.285156    69Ap     3.285484
      54App    3.325849    70Ap     3.328480    71Ap     3.375615
      72Ap     3.489334    55App    3.490974    56App    3.514000
      73Ap     3.525315    57App    3.567292    74Ap     3.569324
      58App    3.575330    75Ap     3.665609    59App    3.667050
      76Ap     3.679713    77Ap     3.693842    60App    3.694418
      78Ap     3.775469    61App    3.778081    79Ap     3.789219
      62App    3.911612    80Ap     3.912854    81Ap     4.034466
      63App    4.110462    82Ap     4.112269    64App    4.147598
      83Ap     4.148616    84Ap     4.173234    65App    4.202247
      85Ap     4.202627    86Ap     4.203956    66App    4.210844
      67App    4.315634    87Ap     4.316294    68App    4.358991
      88Ap     4.423874    69App    4.425054    70App    4.443403
      71App    4.516733    89Ap     4.516903    72App    4.577609
      90Ap     4.578931    91Ap     4.617586    92Ap     4.709375
      93Ap     4.773462    73App    4.775794    74App    4.836925
      94Ap     4.962871    75App    5.002868    95Ap     5.003039
      96Ap     5.228056    97Ap     5.246155    76App    5.247473
      77App    5.354507    98Ap     5.356511    78App    5.479349

    Beta Occupied:

       1App  -10.167905     1Ap   -10.167887     2Ap   -10.167531
       3Ap   -10.166519     4Ap    -0.781093     5Ap    -0.684097
       2App   -0.683883     6Ap    -0.511747     3App   -0.431222
       7Ap    -0.430866     8Ap    -0.421823     4App   -0.376883
       9Ap    -0.376485     5App   -0.362592    10Ap    -0.333129
       6App   -0.333113

    Beta Virtual:

      11Ap    -0.025743    12Ap     0.077082     7App    0.135021
      13Ap     0.135070    14Ap     0.144291     8App    0.144705
      15Ap     0.163338    16Ap     0.182307     9App    0.182585
      10App    0.215030    17Ap     0.218936    11App    0.282033
      18Ap     0.282632    12App    0.400276    19Ap     0.400514
      20Ap     0.419791    13App    0.426759    21Ap     0.427063
      22Ap     0.468507    23Ap     0.497618    14App    0.497680
      15App    0.513897    24Ap     0.556325    16App    0.584027
      25Ap     0.584679    26Ap     0.597762    17App    0.597876
      27Ap     0.610007    28Ap     0.628140    18App    0.631901
      29Ap     0.639432    19App    0.639672    20App    0.666734
      30Ap     0.667219    21App    0.686400    31Ap     0.686575
      32Ap     0.757515    33Ap     0.830523    22App    0.830625
      23App    0.855270    34Ap     0.922838    24App    0.923155
      25App    0.945954    35Ap     0.953533    26App    0.966596
      36Ap     0.966623    37Ap     1.008688    27App    1.131864
      38Ap     1.132364    39Ap     1.155523    28App    1.168231
      40Ap     1.168564    41Ap     1.232304    29App    1.279812
      42Ap     1.280313    43Ap     1.285163    30App    1.329304
      44Ap     1.329382    45Ap     1.365384    31App    1.370998
      46Ap     1.371610    32App    1.393514    47Ap     1.407353
      33App    1.407650    48Ap     1.422093    34App    1.422173
      35App    1.428242    36App    1.492558    49Ap     1.509504
      37App    1.547028    50Ap     1.547477    51Ap     1.581559
      38App    1.583079    52Ap     1.674691    39App    1.744995
      53Ap     1.745363    54Ap     1.779104    40App    1.834401
      55Ap     1.836098    41App    1.972577    42App    2.025443
      56Ap     2.025459    57Ap     2.039655    43App    2.058896
      58Ap     2.059848    44App    2.746765    59Ap     2.746877
      45App    2.811836    60Ap     2.816072    46App    2.902102
      61Ap     2.903143    62Ap     2.924636    63Ap     2.931568
      47App    2.932442    48App    2.960054    64Ap     2.968843
      49App    2.969004    65Ap     3.041936    66Ap     3.080769
      50App    3.081614    51App    3.086169    52App    3.184187
      67Ap     3.184774    68Ap     3.188362    53App    3.289915
      69Ap     3.290322    54App    3.329671    70Ap     3.332268
      71Ap     3.383433    72Ap     3.492109    55App    3.493661
      56App    3.512365    73Ap     3.528361    57App    3.574792
      58App    3.581271    74Ap     3.582415    75Ap     3.670554
      59App    3.671655    76Ap     3.692960    77Ap     3.725558
      60App    3.725966    78Ap     3.780074    61App    3.782589
      79Ap     3.817702    62App    3.921466    80Ap     3.922633
      81Ap     4.045353    63App    4.117253    82Ap     4.119113
      64App    4.154954    83Ap     4.155678    84Ap     4.187288
      65App    4.208175    85Ap     4.209816    86Ap     4.210682
      66App    4.215319    67App    4.323015    87Ap     4.323796
      68App    4.362352    88Ap     4.432100    69App    4.433249
      70App    4.446298    71App    4.524524    89Ap     4.524690
      72App    4.588190    90Ap     4.589549    91Ap     4.624784
      92Ap     4.719716    93Ap     4.780430    73App    4.782737
      74App    4.839842    94Ap     4.967666    75App    5.006873
      95Ap     5.007113    96Ap     5.233771    97Ap     5.247930
      76App    5.249267    77App    5.360973    98Ap     5.363005
      78App    5.481670

    Final Occupation by Irrep:
             Ap   App
    DOCC [    10,    6 ]
    SOCC [     1,    0 ]

  @DF-UKS Final Energy:  -157.81306247587386

   => Energetics <=

    Nuclear Repulsion Energy =            125.3946411982420273
    One-Electron Energy =                -458.7489287027133287
    Two-Electron Energy =                 195.8483689504582514
    DFT Exchange-Correlation Energy =     -20.3071439218608134
    Empirical Dispersion Energy =           0.0000000000000000
    VV10 Nonlocal Energy =                  0.0000000000000000
    Total Energy =                       -157.8130624758738634

  UHF NO Occupations:
  HONO-2 :    9 Ap 1.9996008
  HONO-1 :   10 Ap 1.9989805
  HONO-0 :   11 Ap 1.0000000
  LUNO+0 :   12 Ap 0.0010195
  LUNO+1 :   13 Ap 0.0003992
  LUNO+2 :    7App 0.0001980
  LUNO+3 :   14 Ap 0.0001971

Computation Completed

Properties will be evaluated at   0.000000,   0.000000,   0.000000 [a0]

Properties computed using the SCF density matrix

  Nuclear Dipole Moment: [e a0]
     X:     0.8272      Y:    -0.0030      Z:     0.0000

  Electronic Dipole Moment: [e a0]
     X:    -0.7493      Y:     0.0022      Z:     0.0000

  Dipole Moment: [e a0]
     X:     0.0779      Y:    -0.0008      Z:     0.0000     Total:     0.0779

  Dipole Moment: [D]
     X:     0.1980      Y:    -0.0020      Z:     0.0000     Total:     0.1980

*** tstop() called on n054 at Fri Nov  5 15:23:53 2021
Module time:
	user time   =     545.61 seconds =       9.09 minutes
	system time =      12.26 seconds =       0.20 minutes
	total time  =        140 seconds =       2.33 minutes
Total time:
	user time   =     545.61 seconds =       9.09 minutes
	system time =      12.26 seconds =       0.20 minutes
	total time  =        140 seconds =       2.33 minutes
Grab this energy -157.81306247587386
    Psi4 stopped on: Friday, 05 November 2021 03:23PM
    Psi4 wall time for execution: 0:02:20.31

*** Psi4 exiting successfully. Buy a developer a beer!
