                               Psi4 1.4a2.dev629

  ==> Input File <==

--------------------------------------------------------------------------
import os
memory 14 GB

molecule {
 C   -0.3233399201    0.0004924498   -0.0002462503
 C    0.0601298126   -1.4007505137   -2.4260823800
 C    0.0611173389    2.8026176951    0.0001477456
 C    0.0620549571   -1.4005140982    2.4259715372
 H    2.0862130199   -1.6421579080   -2.8421786684
 H   -0.7675089999   -0.3873903125   -4.0282822107
 H   -0.7684765722   -3.2959725458   -2.3516445933
 H    2.0826165965    3.2885998665    0.0018493647
 H   -0.7644325379    3.6811491541    1.6718860143
 H   -0.7625103763    3.6783177585   -1.6730300627
 H    2.0918318478   -1.6458336277    2.8522570084
 H   -0.7646720720   -3.2927040313    2.3452241238
 H   -0.7656309712   -0.3858782003    4.0241283713
units bohr
0 2
}

basis {

assign 6-31g_2dfp_

[ 6-31g_2dfp_ ]

spherical

!----------------------------------------------------------------------
! Basis Set Exchange
! Version v0.8.13
! https://www.basissetexchange.org
!----------------------------------------------------------------------
!   Basis set: 6-31G(2df,p)
! Description: 6-31G(2df,p)
!        Role: orbital
!     Version: 0  (Data from the original Basis Set Exchange)
!----------------------------------------------------------------------

****
H     0
S    3   1.00
     18.7311370              0.03349460
      2.8253937              0.23472695
      0.6401217              0.81375733
S    1   1.00
      0.1612778              1.00000000
P    1   1.00
      1.5000000              1.0000000
P    1   1.00
      0.3750000              1.0000000
****
B     0
S    6   1.00
   2068.8823000              0.0018663
    310.6495700              0.0142515
     70.6830330              0.0695516
     19.8610800              0.2325729
      6.2993048              0.4670787
      2.1270270              0.3634314
SP   3   1.00
      4.7279710             -0.1303938              0.0745976
      1.1903377             -0.1307889              0.3078467
      0.3594117              1.1309444              0.7434568
SP   1   1.00
      0.1267512              1.0000000              1.0000000
D    1   1.00
      0.8020000              1.0000000
D    1   1.00
      0.2005000              1.0000000
F    1   1.00
      0.5000000              1.0000000
****
C     0
S    6   1.00
   3047.5249000              0.0018347
    457.3695100              0.0140373
    103.9486900              0.0688426
     29.2101550              0.2321844
      9.2866630              0.4679413
      3.1639270              0.3623120
SP   3   1.00
      7.8682724             -0.1193324              0.0689991
      1.8812885             -0.1608542              0.3164240
      0.5442493              1.1434564              0.7443083
SP   1   1.00
      0.1687144              1.0000000              1.0000000
D    1   1.00
      1.2520000              1.0000000
D    1   1.00
      0.3130000              1.0000000
F    1   1.00
      0.8000000              1.0000000
****
N     0
S    6   1.00
   4173.5110000              0.0018348
    627.4579000              0.0139950
    142.9021000              0.0685870
     40.2343300              0.2322410
     12.8202100              0.4690700
      4.3904370              0.3604550
SP   3   1.00
     11.6263580             -0.1149610              0.0675800
      2.7162800             -0.1691180              0.3239070
      0.7722180              1.1458520              0.7408950
SP   1   1.00
      0.2120313              1.0000000              1.0000000
D    1   1.00
      1.8260000              1.0000000
D    1   1.00
      0.4565000              1.0000000
F    1   1.00
      1.0000000              1.0000000
****
O     0
S    6   1.00
   5484.6717000              0.0018311
    825.2349500              0.0139501
    188.0469600              0.0684451
     52.9645000              0.2327143
     16.8975700              0.4701930
      5.7996353              0.3585209
SP   3   1.00
     15.5396160             -0.1107775              0.0708743
      3.5999336             -0.1480263              0.3397528
      1.0137618              1.1307670              0.7271586
SP   1   1.00
      0.2700058              1.0000000              1.0000000
D    1   1.00
      2.5840000              1.0000000
D    1   1.00
      0.6460000              1.0000000
F    1   1.00
      1.4000000              1.0000000
****
F     0
S    6   1.00
   7001.7130900              0.0018196169
   1051.3660900              0.0139160796
    239.2856900              0.0684053245
     67.3974453              0.233185760
     21.5199573              0.471267439
      7.40310130             0.356618546
SP   3   1.00
     20.8479528             -0.108506975            0.0716287243
      4.80830834            -0.146451658            0.3459121030
      1.34406986             1.128688580            0.7224699570
SP   1   1.00
      0.358151393            1.0000000              1.0000000
D    1   1.00
      3.5000000              1.0000000
D    1   1.00
      0.8750000              1.0000000
F    1   1.00
      1.8500000              1.0000000
****
Al     0
S    6   1.00
  13983.1000000              0.00194267
   2098.7500000              0.0148599
    477.7050000              0.0728494
    134.3600000              0.2468300
     42.8709000              0.4872580
     14.5189000              0.3234960
SP   6   1.00
    239.6680000             -0.00292619             0.00460285
     57.4419000             -0.0374080              0.0331990
     18.2859000             -0.1144870              0.1362820
      6.5991400              0.1156350              0.3304760
      2.4904900              0.6125950              0.4491460
      0.9445400              0.3937990              0.2657040
SP   3   1.00
      1.2779000             -0.2276060             -0.0175130
      0.3975900              0.00144583             0.2445330
      0.1600950              1.0927900              0.8049340
SP   1   1.00
      0.0556577              1.0000000              1.0000000
D    1   1.00
      0.6500000              1.0000000
D    1   1.00
      0.1625000              1.0000000
F    1   1.00
      0.2500000              1.0000000
****
Si     0
S    6   1.00
  16115.9000000              0.00195948
   2425.5800000              0.01492880
    553.8670000              0.07284780
    156.3400000              0.24613000
     50.0683000              0.48591400
     17.0178000              0.32500200
SP   6   1.00
    292.7180000             -0.00278094             0.00443826
     69.8731000             -0.03571460             0.03266790
     22.3363000             -0.11498500             0.13472100
      8.1503900              0.09356340             0.32867800
      3.1345800              0.60301700             0.44964000
      1.2254300              0.41895900             0.26137200
SP   3   1.00
      1.7273800             -0.24463000            -0.01779510
      0.5729220              0.00431572             0.25353900
      0.2221920              1.09818000             0.80066900
SP   1   1.00
      0.0778369              1.00000000             1.00000000
D    1   1.00
      0.9000000              1.0000000
D    1   1.00
      0.2250000              1.0000000
F    1   1.00
      0.3200000              1.0000000
****
P     0
S    6   1.00
  19413.3000000              0.0018516
   2909.4200000              0.0142062
    661.3640000              0.0699995
    185.7590000              0.2400790
     59.1943000              0.4847620
     20.0310000              0.3352000
SP   6   1.00
    339.4780000             -0.00278217             0.00456462
     81.0101000             -0.0360499              0.03369360
     25.8780000             -0.1166310              0.13975500
      9.4522100              0.0968328              0.33936200
      3.6656600              0.6144180              0.45092100
      1.4674600              0.4037980              0.23858600
SP   3   1.00
      2.1562300             -0.2529230             -0.01776530
      0.7489970              0.0328517              0.27405800
      0.2831450              1.0812500              0.78542100
SP   1   1.00
      0.0998317              1.0000000              1.00000000
D    1   1.00
      1.1000000              1.0000000
D    1   1.00
      0.2750000              1.0000000
F    1   1.00
      0.4500000              1.0000000
****
S     0
S    6   1.00
  21917.1000000              0.0018690
   3301.4900000              0.0142300
    754.1460000              0.0696960
    212.7110000              0.2384870
     67.9896000              0.4833070
     23.0515000              0.3380740
SP   6   1.00
    423.7350000             -0.0023767              0.0040610
    100.7100000             -0.0316930              0.0306810
     32.1599000             -0.1133170              0.1304520
     11.8079000              0.0560900              0.3272050
      4.6311000              0.5922550              0.4528510
      1.8702500              0.4550060              0.2560420
SP   3   1.00
      2.6158400             -0.2503740             -0.0145110
      0.9221670              0.0669570              0.3102630
      0.3412870              1.0545100              0.7544830
SP   1   1.00
      0.1171670              1.0000000              1.0000000
D    1   1.00
      1.3000000              1.0000000
D    1   1.00
      0.3250000              1.0000000
F    1   1.00
      0.5500000              1.0000000
****
Cl     0
S    6   1.00
  25180.1000000              0.0018330
   3780.3500000              0.0140340
    860.4740000              0.0690970
    242.1450000              0.2374520
     77.3349000              0.4830340
     26.2470000              0.3398560
SP   6   1.00
    491.7650000             -0.0022974              0.0039894
    116.9840000             -0.0307140              0.0303180
     37.4153000             -0.1125280              0.1298800
     13.7834000              0.0450160              0.3279510
      5.4521500              0.5893530              0.4535270
      2.2258800              0.4652060              0.2521540
SP   3   1.00
      3.1864900             -0.2518300             -0.0142990
      1.1442700              0.0615890              0.3235720
      0.4203770              1.0601800              0.7435070
SP   1   1.00
      0.1426570              1.0000000              1.0000000
D    1   1.00
      1.5000000              1.0000000
D    1   1.00
      0.3750000              1.0000000
F    1   1.00
      0.7000000              1.0000000
****
}

set {
reference uhf
freeze_core true
e_convergence 10
d_convergence 10
dft_spherical_points 1202
dft_radial_points 99
}

e = energy('b3lyp')

print_out('Grab this energy {0}'.format(e))
--------------------------------------------------------------------------

    Molecular point group: c1

    Geometry (in Bohr), charge = 0, multiplicity = 2:

       Center              X                  Y                   Z               Mass
    ------------   -----------------  -----------------  -----------------  -----------------
         C           -0.323340338700     0.000137416211    -0.000205928462    12.000000000000
         C            0.060129394000    -1.401105547289    -2.426042058162    12.000000000000
         C            0.061116920300     2.802262661511     0.000188067438    12.000000000000
         C            0.062054538500    -1.400869131789     2.426011859038    12.000000000000
         H            2.086212601300    -1.642512941589    -2.842138346562     1.007825032230
         H           -0.767509418500    -0.387745346089    -4.028241888862     1.007825032230
         H           -0.768476990800    -3.296327579389    -2.351604271462     1.007825032230
         H            2.082616177900     3.288244832911     0.001889686538     1.007825032230
         H           -0.764432956500     3.680794120511     1.671926336138     1.007825032230
         H           -0.762510794900     3.677962724911    -1.672989740862     1.007825032230
         H            2.091831429200    -1.646188661289     2.852297330238     1.007825032230
         H           -0.764672490600    -3.293059064889     2.345264445638     1.007825032230
         H           -0.765631389800    -0.386233233889     4.024168693138     1.007825032230

  Charge       = 0
  Multiplicity = 2
  Basis Set: ANONYMOUSC7F504B7
    Blend: 6-31G_2DFP_
  Basis Set: (ANONYMOUSC7F504B7 AUX)
    Blend: DEF2-UNIVERSAL-JKFIT

    Orbital Energies [Eh]
    ---------------------

    Alpha Occupied:

       1A    -10.180343     2A    -10.167383     3A    -10.167317
       4A    -10.166344     5A     -0.797767     6A     -0.686512
       7A     -0.685864     8A     -0.530775     9A     -0.441126
      10A     -0.434794    11A     -0.434550    12A     -0.382916
      13A     -0.382280    14A     -0.363612    15A     -0.338155
      16A     -0.337842    17A     -0.168961

    Alpha Virtual:

      18A      0.076071    19A      0.134098    20A      0.134196
      21A      0.142403    22A      0.142865    23A      0.154876
      24A      0.178424    25A      0.179133    26A      0.203550
      27A      0.214805    28A      0.275937    29A      0.276034
      30A      0.399079    31A      0.399375    32A      0.403345
      33A      0.423957    34A      0.424238    35A      0.456593
      36A      0.495318    37A      0.495460    38A      0.512163
      39A      0.513980    40A      0.578636    41A      0.578981
      42A      0.591206    43A      0.592025    44A      0.602621
      45A      0.624767    46A      0.631668    47A      0.635863
      48A      0.636741    49A      0.663226    50A      0.663604
      51A      0.683523    52A      0.684197    53A      0.734993
      54A      0.825005    55A      0.825799    56A      0.853917
      57A      0.914707    58A      0.915343    59A      0.944113
      60A      0.944612    61A      0.961064    62A      0.961551
      63A      1.003453    64A      1.127592    65A      1.128624
      66A      1.142205    67A      1.163092    68A      1.163458
      69A      1.223325    70A      1.274268    71A      1.274697
      72A      1.279367    73A      1.323988    74A      1.324713
      75A      1.355962    76A      1.365800    77A      1.366322
      78A      1.392450    79A      1.403420    80A      1.404662
      81A      1.416637    82A      1.417561    83A      1.427930
      84A      1.491499    85A      1.499067    86A      1.542770
      87A      1.542908    88A      1.573896    89A      1.575019
      90A      1.669803    91A      1.739253    92A      1.739539
      93A      1.768340    94A      1.829760    95A      1.833109
      96A      1.971695    97A      2.018064    98A      2.019111
      99A      2.019207   100A      2.052218   101A      2.053119
     102A      2.738040   103A      2.738936   104A      2.790927
     105A      2.811431   106A      2.889619   107A      2.890209
     108A      2.895017   109A      2.929163   110A      2.929824
     111A      2.959000   112A      2.963838   113A      2.964938
     114A      3.034015   115A      3.070603   116A      3.071959
     117A      3.084383   118A      3.168514   119A      3.169053
     120A      3.180587   121A      3.285181   122A      3.285456
     123A      3.326285   124A      3.328049   125A      3.375610
     126A      3.488813   127A      3.491506   128A      3.514010
     129A      3.525349   130A      3.568133   131A      3.568460
     132A      3.575338   133A      3.665516   134A      3.667142
     135A      3.679663   136A      3.693325   137A      3.694950
     138A      3.776235   139A      3.777384   140A      3.789172
     141A      3.911770   142A      3.912673   143A      4.034432
     144A      4.110573   145A      4.112037   146A      4.146139
     147A      4.149983   148A      4.173319   149A      4.200816
     150A      4.202639   151A      4.205281   152A      4.211166
     153A      4.315230   154A      4.316686   155A      4.358946
     156A      4.424241   157A      4.424599   158A      4.443531
     159A      4.516156   160A      4.517463   161A      4.577838
     162A      4.578758   163A      4.617581   164A      4.709433
     165A      4.774025   166A      4.775184   167A      4.836884
     168A      4.962867   169A      5.002166   170A      5.003785
     171A      5.227860   172A      5.243127   173A      5.250477
     174A      5.352507   175A      5.358699   176A      5.479433

    Beta Occupied:

       1A    -10.168138     2A    -10.168083     3A    -10.167107
       4A    -10.166515     5A     -0.781093     6A     -0.684314
       7A     -0.683667     8A     -0.511746     9A     -0.431181
      10A     -0.430906    11A     -0.421825    12A     -0.377012
      13A     -0.376353    14A     -0.362595    15A     -0.333265
      16A     -0.332977

    Beta Virtual:

      17A     -0.025743    18A      0.077080    19A      0.134966
      20A      0.135110    21A      0.144311    22A      0.144696
      23A      0.163335    24A      0.182103    25A      0.182798
      26A      0.215035    27A      0.218932    28A      0.282281
      29A      0.282386    30A      0.400250    31A      0.400544
      32A      0.419791    33A      0.426765    34A      0.427052
      35A      0.468501    36A      0.497580    37A      0.497721
      38A      0.513898    39A      0.556324    40A      0.584178
      41A      0.584541    42A      0.597404    43A      0.598192
      44A      0.610034    45A      0.628144    46A      0.631871
      47A      0.639148    48A      0.639983    49A      0.666775
      50A      0.667183    51A      0.686197    52A      0.686794
      53A      0.757516    54A      0.830148    55A      0.830992
      56A      0.855271    57A      0.922705    58A      0.923288
      59A      0.945952    60A      0.953537    61A      0.966400
      62A      0.966827    63A      1.008693    64A      1.131644
      65A      1.132630    66A      1.155573    67A      1.168136
      68A      1.168569    69A      1.232297    70A      1.279873
      71A      1.280289    72A      1.285119    73A      1.328931
      74A      1.329748    75A      1.365356    76A      1.371069
      77A      1.371562    78A      1.393510    79A      1.406868
      80A      1.408142    81A      1.421656    82A      1.422627
      83A      1.428214    84A      1.492548    85A      1.509507
      86A      1.547092    87A      1.547409    88A      1.581691
      89A      1.582963    90A      1.674649    91A      1.745034
      92A      1.745288    93A      1.779115    94A      1.833646
      95A      1.836936    96A      1.972559    97A      2.025366
      98A      2.025516    99A      2.039664   100A      2.058920
     101A      2.059856   102A      2.746361   103A      2.747286
     104A      2.811843   105A      2.816062   106A      2.902369
     107A      2.902890   108A      2.924661   109A      2.931673
     110A      2.932282   111A      2.960069   112A      2.968342
     113A      2.969518   114A      3.041949   115A      3.080435
     116A      3.081909   117A      3.086238   118A      3.184227
     119A      3.184825   120A      3.188283   121A      3.289934
     122A      3.290300   123A      3.330101   124A      3.331841
     125A      3.383429   126A      3.491581   127A      3.494199
     128A      3.512375   129A      3.528393   130A      3.574842
     131A      3.581595   132A      3.582028   133A      3.670224
     134A      3.671950   135A      3.692974   136A      3.725130
     137A      3.726382   138A      3.780802   139A      3.781879
     140A      3.817703   141A      3.921597   142A      3.922479
     143A      4.045315   144A      4.117588   145A      4.118635
     146A      4.153568   147A      4.157003   148A      4.187368
     149A      4.207522   150A      4.208812   151A      4.212244
     152A      4.215648   153A      4.322796   154A      4.323997
     155A      4.362310   156A      4.432477   157A      4.432744
     158A      4.446464   159A      4.523974   160A      4.525228
     161A      4.588483   162A      4.589313   163A      4.624773
     164A      4.719776   165A      4.780945   166A      4.782171
     167A      4.839801   168A      4.967663   169A      5.006228
     170A      5.007801   171A      5.233564   172A      5.244927
     173A      5.252261   174A      5.359002   175A      5.365161
     176A      5.481753

    Final Occupation by Irrep:
              A
    DOCC [    16 ]
    SOCC [     1 ]

  @DF-UKS Final Energy:  -157.81305183363901

   => Energetics <=

    Nuclear Repulsion Energy =            125.3946677569347514
    One-Electron Energy =                -458.7489485848687423
    Two-Electron Energy =                 195.8483774776222788
    DFT Exchange-Correlation Energy =     -20.3071484833273281
    Empirical Dispersion Energy =           0.0000000000000000
    VV10 Nonlocal Energy =                  0.0000000000000000
    Total Energy =                       -157.8130518336390082

  UHF NO Occupations:
  HONO-2 :   15  A 1.9996008
  HONO-1 :   16  A 1.9989805
  HONO-0 :   17  A 1.0000000
  LUNO+0 :   18  A 0.0010195
  LUNO+1 :   19  A 0.0003992
  LUNO+2 :   20  A 0.0001977
  LUNO+3 :   21  A 0.0001974

Computation Completed

Properties will be evaluated at   0.000000,   0.000000,   0.000000 [a0]

Properties computed using the SCF density matrix

  Nuclear Dipole Moment: [e a0]
     X:     0.8272      Y:    -0.0025      Z:     0.0003

  Electronic Dipole Moment: [e a0]
     X:    -0.7493      Y:     0.0050      Z:    -0.0011

  Dipole Moment: [e a0]
     X:     0.0779      Y:     0.0025      Z:    -0.0008     Total:     0.0780

  Dipole Moment: [D]
     X:     0.1980      Y:     0.0062      Z:    -0.0020     Total:     0.1981

*** tstop() called on n079 at Fri Nov  5 15:08:52 2021
Module time:
	user time   =     493.26 seconds =       8.22 minutes
	system time =       4.53 seconds =       0.08 minutes
	total time  =        125 seconds =       2.08 minutes
Total time:
	user time   =     493.26 seconds =       8.22 minutes
	system time =       4.53 seconds =       0.08 minutes
	total time  =        125 seconds =       2.08 minutes
Grab this energy -157.813051833639
    Psi4 stopped on: Friday, 05 November 2021 03:08PM
    Psi4 wall time for execution: 0:02:05.19

*** Psi4 exiting successfully. Buy a developer a beer!
