                               Psi4 1.4a2.dev629

  ==> Input File <==

--------------------------------------------------------------------------
import os
memory 14 GB

molecule {
 C   -0.3233382002   -0.0057786821    0.0000000000
 C    0.0612210558   -1.4027385586   -2.4252761000
 C    0.0608579670    2.8018100474    0.0000000000
 C    0.0612210558   -1.4027385586    2.4252761000
 H    2.0866001997   -1.6458225839   -2.8461028968
 H   -0.7672552865   -0.3858287498   -4.0280537281
 H   -0.7633149866   -3.2892181157   -2.3482652702
 H    2.0874719509    3.2886964011    0.0000000000
 H   -0.7660507796    3.6812319680    1.6751935670
 H   -0.7660507796    3.6812319680   -1.6751935670
 H    2.0866001997   -1.6458225839    2.8461028968
 H   -0.7633149866   -3.2892181157    2.3482652702
 H   -0.7672552865   -0.3858287498    4.0280537281
units bohr
0 2
}

basis {

assign 6-31g_2dfp_

[ 6-31g_2dfp_ ]

spherical

!----------------------------------------------------------------------
! Basis Set Exchange
! Version v0.8.13
! https://www.basissetexchange.org
!----------------------------------------------------------------------
!   Basis set: 6-31G(2df,p)
! Description: 6-31G(2df,p)
!        Role: orbital
!     Version: 0  (Data from the original Basis Set Exchange)
!----------------------------------------------------------------------

****
H     0
S    3   1.00
     18.7311370              0.03349460
      2.8253937              0.23472695
      0.6401217              0.81375733
S    1   1.00
      0.1612778              1.00000000
P    1   1.00
      1.5000000              1.0000000
P    1   1.00
      0.3750000              1.0000000
****
B     0
S    6   1.00
   2068.8823000              0.0018663
    310.6495700              0.0142515
     70.6830330              0.0695516
     19.8610800              0.2325729
      6.2993048              0.4670787
      2.1270270              0.3634314
SP   3   1.00
      4.7279710             -0.1303938              0.0745976
      1.1903377             -0.1307889              0.3078467
      0.3594117              1.1309444              0.7434568
SP   1   1.00
      0.1267512              1.0000000              1.0000000
D    1   1.00
      0.8020000              1.0000000
D    1   1.00
      0.2005000              1.0000000
F    1   1.00
      0.5000000              1.0000000
****
C     0
S    6   1.00
   3047.5249000              0.0018347
    457.3695100              0.0140373
    103.9486900              0.0688426
     29.2101550              0.2321844
      9.2866630              0.4679413
      3.1639270              0.3623120
SP   3   1.00
      7.8682724             -0.1193324              0.0689991
      1.8812885             -0.1608542              0.3164240
      0.5442493              1.1434564              0.7443083
SP   1   1.00
      0.1687144              1.0000000              1.0000000
D    1   1.00
      1.2520000              1.0000000
D    1   1.00
      0.3130000              1.0000000
F    1   1.00
      0.8000000              1.0000000
****
N     0
S    6   1.00
   4173.5110000              0.0018348
    627.4579000              0.0139950
    142.9021000              0.0685870
     40.2343300              0.2322410
     12.8202100              0.4690700
      4.3904370              0.3604550
SP   3   1.00
     11.6263580             -0.1149610              0.0675800
      2.7162800             -0.1691180              0.3239070
      0.7722180              1.1458520              0.7408950
SP   1   1.00
      0.2120313              1.0000000              1.0000000
D    1   1.00
      1.8260000              1.0000000
D    1   1.00
      0.4565000              1.0000000
F    1   1.00
      1.0000000              1.0000000
****
O     0
S    6   1.00
   5484.6717000              0.0018311
    825.2349500              0.0139501
    188.0469600              0.0684451
     52.9645000              0.2327143
     16.8975700              0.4701930
      5.7996353              0.3585209
SP   3   1.00
     15.5396160             -0.1107775              0.0708743
      3.5999336             -0.1480263              0.3397528
      1.0137618              1.1307670              0.7271586
SP   1   1.00
      0.2700058              1.0000000              1.0000000
D    1   1.00
      2.5840000              1.0000000
D    1   1.00
      0.6460000              1.0000000
F    1   1.00
      1.4000000              1.0000000
****
F     0
S    6   1.00
   7001.7130900              0.0018196169
   1051.3660900              0.0139160796
    239.2856900              0.0684053245
     67.3974453              0.233185760
     21.5199573              0.471267439
      7.40310130             0.356618546
SP   3   1.00
     20.8479528             -0.108506975            0.0716287243
      4.80830834            -0.146451658            0.3459121030
      1.34406986             1.128688580            0.7224699570
SP   1   1.00
      0.358151393            1.0000000              1.0000000
D    1   1.00
      3.5000000              1.0000000
D    1   1.00
      0.8750000              1.0000000
F    1   1.00
      1.8500000              1.0000000
****
Al     0
S    6   1.00
  13983.1000000              0.00194267
   2098.7500000              0.0148599
    477.7050000              0.0728494
    134.3600000              0.2468300
     42.8709000              0.4872580
     14.5189000              0.3234960
SP   6   1.00
    239.6680000             -0.00292619             0.00460285
     57.4419000             -0.0374080              0.0331990
     18.2859000             -0.1144870              0.1362820
      6.5991400              0.1156350              0.3304760
      2.4904900              0.6125950              0.4491460
      0.9445400              0.3937990              0.2657040
SP   3   1.00
      1.2779000             -0.2276060             -0.0175130
      0.3975900              0.00144583             0.2445330
      0.1600950              1.0927900              0.8049340
SP   1   1.00
      0.0556577              1.0000000              1.0000000
D    1   1.00
      0.6500000              1.0000000
D    1   1.00
      0.1625000              1.0000000
F    1   1.00
      0.2500000              1.0000000
****
Si     0
S    6   1.00
  16115.9000000              0.00195948
   2425.5800000              0.01492880
    553.8670000              0.07284780
    156.3400000              0.24613000
     50.0683000              0.48591400
     17.0178000              0.32500200
SP   6   1.00
    292.7180000             -0.00278094             0.00443826
     69.8731000             -0.03571460             0.03266790
     22.3363000             -0.11498500             0.13472100
      8.1503900              0.09356340             0.32867800
      3.1345800              0.60301700             0.44964000
      1.2254300              0.41895900             0.26137200
SP   3   1.00
      1.7273800             -0.24463000            -0.01779510
      0.5729220              0.00431572             0.25353900
      0.2221920              1.09818000             0.80066900
SP   1   1.00
      0.0778369              1.00000000             1.00000000
D    1   1.00
      0.9000000              1.0000000
D    1   1.00
      0.2250000              1.0000000
F    1   1.00
      0.3200000              1.0000000
****
P     0
S    6   1.00
  19413.3000000              0.0018516
   2909.4200000              0.0142062
    661.3640000              0.0699995
    185.7590000              0.2400790
     59.1943000              0.4847620
     20.0310000              0.3352000
SP   6   1.00
    339.4780000             -0.00278217             0.00456462
     81.0101000             -0.0360499              0.03369360
     25.8780000             -0.1166310              0.13975500
      9.4522100              0.0968328              0.33936200
      3.6656600              0.6144180              0.45092100
      1.4674600              0.4037980              0.23858600
SP   3   1.00
      2.1562300             -0.2529230             -0.01776530
      0.7489970              0.0328517              0.27405800
      0.2831450              1.0812500              0.78542100
SP   1   1.00
      0.0998317              1.0000000              1.00000000
D    1   1.00
      1.1000000              1.0000000
D    1   1.00
      0.2750000              1.0000000
F    1   1.00
      0.4500000              1.0000000
****
S     0
S    6   1.00
  21917.1000000              0.0018690
   3301.4900000              0.0142300
    754.1460000              0.0696960
    212.7110000              0.2384870
     67.9896000              0.4833070
     23.0515000              0.3380740
SP   6   1.00
    423.7350000             -0.0023767              0.0040610
    100.7100000             -0.0316930              0.0306810
     32.1599000             -0.1133170              0.1304520
     11.8079000              0.0560900              0.3272050
      4.6311000              0.5922550              0.4528510
      1.8702500              0.4550060              0.2560420
SP   3   1.00
      2.6158400             -0.2503740             -0.0145110
      0.9221670              0.0669570              0.3102630
      0.3412870              1.0545100              0.7544830
SP   1   1.00
      0.1171670              1.0000000              1.0000000
D    1   1.00
      1.3000000              1.0000000
D    1   1.00
      0.3250000              1.0000000
F    1   1.00
      0.5500000              1.0000000
****
Cl     0
S    6   1.00
  25180.1000000              0.0018330
   3780.3500000              0.0140340
    860.4740000              0.0690970
    242.1450000              0.2374520
     77.3349000              0.4830340
     26.2470000              0.3398560
SP   6   1.00
    491.7650000             -0.0022974              0.0039894
    116.9840000             -0.0307140              0.0303180
     37.4153000             -0.1125280              0.1298800
     13.7834000              0.0450160              0.3279510
      5.4521500              0.5893530              0.4535270
      2.2258800              0.4652060              0.2521540
SP   3   1.00
      3.1864900             -0.2518300             -0.0142990
      1.1442700              0.0615890              0.3235720
      0.4203770              1.0601800              0.7435070
SP   1   1.00
      0.1426570              1.0000000              1.0000000
D    1   1.00
      1.5000000              1.0000000
D    1   1.00
      0.3750000              1.0000000
F    1   1.00
      0.7000000              1.0000000
****
}

set {
reference uhf
freeze_core true
e_convergence 10
d_convergence 10
dft_spherical_points 1202
dft_radial_points 99
}

e = energy('b3lyp')

print_out('Grab this energy {0}'.format(e))
--------------------------------------------------------------------------

    Molecular point group: cs

    Geometry (in Bohr), charge = 0, multiplicity = 2:

       Center              X                  Y                   Z               Mass
    ------------   -----------------  -----------------  -----------------  -----------------
         C           -0.323338559074    -0.003958932888     0.000000000000    12.000000000000
         C            0.061220696926    -1.400918809388    -2.425276100000    12.000000000000
         C            0.060857608126     2.803629796612     0.000000000000    12.000000000000
         C            0.061220696926    -1.400918809388     2.425276100000    12.000000000000
         H            2.086599840826    -1.644002834688    -2.846102896800     1.007825032230
         H           -0.767255645374    -0.384009000588    -4.028053728100     1.007825032230
         H           -0.763315345474    -3.287398366488    -2.348265270200     1.007825032230
         H            2.087471592026     3.290516150312     0.000000000000     1.007825032230
         H           -0.766051138474     3.683051717212     1.675193567000     1.007825032230
         H           -0.766051138474     3.683051717212    -1.675193567000     1.007825032230
         H            2.086599840826    -1.644002834688     2.846102896800     1.007825032230
         H           -0.763315345474    -3.287398366488     2.348265270200     1.007825032230
         H           -0.767255645374    -0.384009000588     4.028053728100     1.007825032230

  Charge       = 0
  Multiplicity = 2
  Basis Set: ANONYMOUS8AE474C7
    Blend: 6-31G_2DFP_
  Basis Set: (ANONYMOUS8AE474C7 AUX)
    Blend: DEF2-UNIVERSAL-JKFIT

    Orbital Energies [Eh]
    ---------------------

    Alpha Occupied:

       1Ap   -10.180342     2Ap   -10.167049     1App  -10.167016
       3Ap   -10.166979     4Ap    -0.797771     2App   -0.686318
       5Ap    -0.686058     6Ap    -0.530777     7Ap    -0.441141
       8Ap    -0.434683     3App   -0.434647     4App   -0.382744
       9Ap    -0.382461     5App   -0.363605     6App   -0.338355
      10Ap    -0.337639    11Ap    -0.168960

    Alpha Virtual:

      12Ap     0.076069     7App    0.134026    13Ap     0.134282
      14Ap     0.142240     8App    0.143006    15Ap     0.154885
      16Ap     0.178682     9App    0.178876    17Ap     0.203543
      10App    0.214806    18Ap     0.275587    11App    0.276383
      12App    0.399107    19Ap     0.399343    20Ap     0.403347
      13App    0.423934    21Ap     0.424259    22Ap     0.456593
      14App    0.495387    23Ap     0.495393    15App    0.512162
      24Ap     0.513978    25Ap     0.578560    16App    0.579074
      26Ap     0.591498    17App    0.591778    27Ap     0.602578
      28Ap     0.624657    18App    0.631763    29Ap     0.635930
      19App    0.636686    30Ap     0.663268    20App    0.663556
      21App    0.683622    31Ap     0.684106    32Ap     0.734993
      33Ap     0.825050    22App    0.825765    23App    0.853915
      24App    0.914696    34Ap     0.915339    25App    0.944126
      35Ap     0.944624    36Ap     0.961213    26App    0.961374
      37Ap     1.003454    27App    1.128086    38Ap     1.128114
      39Ap     1.142251    40Ap     1.162931    28App    1.163602
      41Ap     1.223326    29App    1.274267    42Ap     1.274715
      43Ap     1.279348    44Ap     1.324038    30App    1.324654
      45Ap     1.355992    46Ap     1.365498    31App    1.366621
      32App    1.392402    47Ap     1.403958    33App    1.404154
      34App    1.416112    48Ap     1.418120    35App    1.427915
      36App    1.491501    49Ap     1.499070    37App    1.542817
      50Ap     1.542851    51Ap     1.574251    38App    1.574632
      52Ap     1.669834    53Ap     1.738502    39App    1.740329
      54Ap     1.768317    40App    1.830834    55Ap     1.831915
      41App    1.971773    56Ap     2.017824    42App    2.019070
      57Ap     2.019527    58Ap     2.051599    43App    2.053711
      59Ap     2.738063    44App    2.738905    60Ap     2.790929
      45App    2.811425    61Ap     2.889242    46App    2.890668
      62Ap     2.894938    63Ap     2.929081    47App    2.929914
      48App    2.958987    49App    2.964292    64Ap     2.964469
      65Ap     3.034012    50App    3.071170    66Ap     3.071336
      51App    3.084436    67Ap     3.168350    52App    3.169145
      68Ap     3.180685    69Ap     3.285170    53App    3.285444
      70Ap     3.327159    54App    3.327163    71Ap     3.375612
      72Ap     3.489913    55App    3.490381    56App    3.514024
      73Ap     3.525332    57App    3.567718    74Ap     3.569063
      58App    3.575121    75Ap     3.666213    59App    3.666618
      76Ap     3.679645    60App    3.693865    77Ap     3.694378
      78Ap     3.775930    61App    3.777661    79Ap     3.789148
      62App    3.912099    80Ap     3.912345    81Ap     4.034436
      82Ap     4.110522    63App    4.112189    83Ap     4.147353
      64App    4.148780    84Ap     4.173283    85Ap     4.202319
      65App    4.202660    86Ap     4.203841    66App    4.210900
      67App    4.315864    87Ap     4.316074    68App    4.358981
      88Ap     4.423873    69App    4.425033    70App    4.443501
      89Ap     4.515634    71App    4.518042    90Ap     4.577988
      72App    4.578138    91Ap     4.618014    92Ap     4.709450
      93Ap     4.773094    73App    4.776149    74App    4.836876
      94Ap     4.962814    95Ap     5.002890    75App    5.003101
      96Ap     5.227564    76App    5.246727    97Ap     5.247374
      98Ap     5.353732    77App    5.357346    78App    5.479407

    Beta Occupied:

       1Ap   -10.167800     1App  -10.167771     2Ap   -10.167751
       3Ap   -10.166519     4Ap    -0.781096     2App   -0.684107
       5Ap    -0.683874     6Ap    -0.511749     7Ap    -0.431074
       3App   -0.431021     8Ap    -0.421813     4App   -0.376785
       9Ap    -0.376591     5App   -0.362588     6App   -0.333492
      10Ap    -0.332748

    Beta Virtual:

      11Ap    -0.025743    12Ap     0.077078     7App    0.134907
      13Ap     0.135180    14Ap     0.144097     8App    0.144894
      15Ap     0.163342    16Ap     0.182341     9App    0.182558
      10App    0.215036    17Ap     0.218926    18Ap     0.281971
      11App    0.282695    12App    0.400269    19Ap     0.400522
      20Ap     0.419792    13App    0.426756    21Ap     0.427059
      22Ap     0.468501    14App    0.497644    23Ap     0.497656
      15App    0.513897    24Ap     0.556322    25Ap     0.584091
      16App    0.584645    26Ap     0.597642    17App    0.597990
      27Ap     0.610004    28Ap     0.628032    18App    0.631922
      29Ap     0.639224    19App    0.639963    30Ap     0.666840
      20App    0.667113    21App    0.686277    31Ap     0.686720
      32Ap     0.757517    33Ap     0.830234    22App    0.830918
      23App    0.855268    24App    0.922660    34Ap     0.923317
      25App    0.945962    35Ap     0.953555    36Ap     0.966528
      26App    0.966670    37Ap     1.008695    27App    1.132093
      38Ap     1.132176    39Ap     1.155618    40Ap     1.168005
      28App    1.168673    41Ap     1.232297    29App    1.279935
      42Ap     1.280241    43Ap     1.285104    44Ap     1.329040
      30App    1.329630    45Ap     1.365405    46Ap     1.370855
      31App    1.371752    32App    1.393468    47Ap     1.407353
      33App    1.407689    34App    1.421213    48Ap     1.423115
      35App    1.428185    36App    1.492550    49Ap     1.509513
      37App    1.547204    50Ap     1.547280    51Ap     1.582095
      38App    1.582528    52Ap     1.674682    53Ap     1.744250
      39App    1.746109    54Ap     1.779091    40App    1.834699
      55Ap     1.835762    41App    1.972634    56Ap     2.025423
      42App    2.025459    57Ap     2.039714    58Ap     2.058317
      43App    2.060426    59Ap     2.746358    44App    2.747283
      45App    2.811837    60Ap     2.816063    61Ap     2.901977
      46App    2.903310    62Ap     2.924648    63Ap     2.931551
      47App    2.932404    48App    2.960054    49App    2.968841
      64Ap     2.969003    65Ap     3.041946    50App    3.080891
      66Ap     3.081323    51App    3.086367    67Ap     3.183864
      52App    3.184954    68Ap     3.188544    69Ap     3.290021
      53App    3.290191    70Ap     3.330931    54App    3.330999
      71Ap     3.383433    72Ap     3.492620    55App    3.493126
      56App    3.512394    73Ap     3.528378    57App    3.574971
      58App    3.581041    74Ap     3.582439    75Ap     3.671005
      59App    3.671300    76Ap     3.692961    60App    3.725563
      77Ap     3.725933    78Ap     3.780437    61App    3.782210
      79Ap     3.817685    62App    3.921847    80Ap     3.922235
      81Ap     4.045321    82Ap     4.117174    63App    4.119172
      83Ap     4.154829    64App    4.155729    84Ap     4.187327
      65App    4.208612    85Ap     4.209127    86Ap     4.210931
      66App    4.215372    67App    4.323413    87Ap     4.323413
      68App    4.362344    88Ap     4.432115    69App    4.433193
      70App    4.446411    89Ap     4.523368    71App    4.525886
      90Ap     4.588527    72App    4.588776    91Ap     4.625232
      92Ap     4.719797    93Ap     4.780041    73App    4.783111
      74App    4.839793    94Ap     4.967606    95Ap     5.006919
      75App    5.007152    96Ap     5.233173    76App    5.248521
      97Ap     5.249262    98Ap     5.360194    77App    5.363838
      78App    5.481730

    Final Occupation by Irrep:
             Ap   App
    DOCC [    10,    6 ]
    SOCC [     1,    0 ]

  @DF-UKS Final Energy:  -157.81304599097493

   => Energetics <=

    Nuclear Repulsion Energy =            125.3947566032131533
    One-Electron Energy =                -458.7491067168565451
    Two-Electron Energy =                 195.8484573096277757
    DFT Exchange-Correlation Energy =     -20.3071531869593329
    Empirical Dispersion Energy =           0.0000000000000000
    VV10 Nonlocal Energy =                  0.0000000000000000
    Total Energy =                       -157.8130459909749277

  UHF NO Occupations:
  HONO-2 :    9 Ap 1.9996009
  HONO-1 :   10 Ap 1.9989805
  HONO-0 :   11 Ap 1.0000000
  LUNO+0 :   12 Ap 0.0010195
  LUNO+1 :   13 Ap 0.0003991
  LUNO+2 :   14 Ap 0.0001986
  LUNO+3 :    7App 0.0001965

Computation Completed

Properties will be evaluated at   0.000000,   0.000000,   0.000000 [a0]

Properties computed using the SCF density matrix

  Nuclear Dipole Moment: [e a0]
     X:     0.8272      Y:     0.0128      Z:     0.0000

  Electronic Dipole Moment: [e a0]
     X:    -0.7493      Y:    -0.0158      Z:     0.0000

  Dipole Moment: [e a0]
     X:     0.0779      Y:    -0.0030      Z:     0.0000     Total:     0.0780

  Dipole Moment: [D]
     X:     0.1980      Y:    -0.0075      Z:     0.0000     Total:     0.1982

*** tstop() called on n022 at Fri Nov  5 13:44:01 2021
Module time:
	user time   =     637.19 seconds =      10.62 minutes
	system time =      12.27 seconds =       0.20 minutes
	total time  =        163 seconds =       2.72 minutes
Total time:
	user time   =     637.19 seconds =      10.62 minutes
	system time =      12.27 seconds =       0.20 minutes
	total time  =        163 seconds =       2.72 minutes
Grab this energy -157.81304599097493
    Psi4 stopped on: Friday, 05 November 2021 01:44PM
    Psi4 wall time for execution: 0:02:43.31

*** Psi4 exiting successfully. Buy a developer a beer!
