                               Psi4 1.4a2.dev629

  ==> Input File <==

--------------------------------------------------------------------------
import os
memory 14 GB

molecule {
 C   -0.3233376422    0.0004290374   -0.0053442018
 C    0.0608582566   -1.3994066710   -2.4273493544
 C    0.0613294292    2.8016485999   -0.0011060838
 C    0.0611144454   -1.4003145555    2.4267101638
 H    2.0876007269   -1.6416443094   -2.8482516599
 H   -0.7631753426   -0.3895049738   -4.0225956610
 H   -0.7680541566   -3.2942870550   -2.3483202798
 H    2.0858857584    3.2881096587    0.0010001794
 H   -0.7644600150    3.6809563085    1.6781517837
 H   -0.7661349783    3.6792435294   -1.6766830933
 H    2.0871874853   -1.6412992857    2.8496526851
 H   -0.7689874975   -3.2933534742    2.3495274985
 H   -0.7624343465   -0.3906011230    4.0246080234
units bohr
0 2
}

basis {

assign 6-31g_2dfp_

[ 6-31g_2dfp_ ]

spherical

!----------------------------------------------------------------------
! Basis Set Exchange
! Version v0.8.13
! https://www.basissetexchange.org
!----------------------------------------------------------------------
!   Basis set: 6-31G(2df,p)
! Description: 6-31G(2df,p)
!        Role: orbital
!     Version: 0  (Data from the original Basis Set Exchange)
!----------------------------------------------------------------------

****
H     0
S    3   1.00
     18.7311370              0.03349460
      2.8253937              0.23472695
      0.6401217              0.81375733
S    1   1.00
      0.1612778              1.00000000
P    1   1.00
      1.5000000              1.0000000
P    1   1.00
      0.3750000              1.0000000
****
B     0
S    6   1.00
   2068.8823000              0.0018663
    310.6495700              0.0142515
     70.6830330              0.0695516
     19.8610800              0.2325729
      6.2993048              0.4670787
      2.1270270              0.3634314
SP   3   1.00
      4.7279710             -0.1303938              0.0745976
      1.1903377             -0.1307889              0.3078467
      0.3594117              1.1309444              0.7434568
SP   1   1.00
      0.1267512              1.0000000              1.0000000
D    1   1.00
      0.8020000              1.0000000
D    1   1.00
      0.2005000              1.0000000
F    1   1.00
      0.5000000              1.0000000
****
C     0
S    6   1.00
   3047.5249000              0.0018347
    457.3695100              0.0140373
    103.9486900              0.0688426
     29.2101550              0.2321844
      9.2866630              0.4679413
      3.1639270              0.3623120
SP   3   1.00
      7.8682724             -0.1193324              0.0689991
      1.8812885             -0.1608542              0.3164240
      0.5442493              1.1434564              0.7443083
SP   1   1.00
      0.1687144              1.0000000              1.0000000
D    1   1.00
      1.2520000              1.0000000
D    1   1.00
      0.3130000              1.0000000
F    1   1.00
      0.8000000              1.0000000
****
N     0
S    6   1.00
   4173.5110000              0.0018348
    627.4579000              0.0139950
    142.9021000              0.0685870
     40.2343300              0.2322410
     12.8202100              0.4690700
      4.3904370              0.3604550
SP   3   1.00
     11.6263580             -0.1149610              0.0675800
      2.7162800             -0.1691180              0.3239070
      0.7722180              1.1458520              0.7408950
SP   1   1.00
      0.2120313              1.0000000              1.0000000
D    1   1.00
      1.8260000              1.0000000
D    1   1.00
      0.4565000              1.0000000
F    1   1.00
      1.0000000              1.0000000
****
O     0
S    6   1.00
   5484.6717000              0.0018311
    825.2349500              0.0139501
    188.0469600              0.0684451
     52.9645000              0.2327143
     16.8975700              0.4701930
      5.7996353              0.3585209
SP   3   1.00
     15.5396160             -0.1107775              0.0708743
      3.5999336             -0.1480263              0.3397528
      1.0137618              1.1307670              0.7271586
SP   1   1.00
      0.2700058              1.0000000              1.0000000
D    1   1.00
      2.5840000              1.0000000
D    1   1.00
      0.6460000              1.0000000
F    1   1.00
      1.4000000              1.0000000
****
F     0
S    6   1.00
   7001.7130900              0.0018196169
   1051.3660900              0.0139160796
    239.2856900              0.0684053245
     67.3974453              0.233185760
     21.5199573              0.471267439
      7.40310130             0.356618546
SP   3   1.00
     20.8479528             -0.108506975            0.0716287243
      4.80830834            -0.146451658            0.3459121030
      1.34406986             1.128688580            0.7224699570
SP   1   1.00
      0.358151393            1.0000000              1.0000000
D    1   1.00
      3.5000000              1.0000000
D    1   1.00
      0.8750000              1.0000000
F    1   1.00
      1.8500000              1.0000000
****
Al     0
S    6   1.00
  13983.1000000              0.00194267
   2098.7500000              0.0148599
    477.7050000              0.0728494
    134.3600000              0.2468300
     42.8709000              0.4872580
     14.5189000              0.3234960
SP   6   1.00
    239.6680000             -0.00292619             0.00460285
     57.4419000             -0.0374080              0.0331990
     18.2859000             -0.1144870              0.1362820
      6.5991400              0.1156350              0.3304760
      2.4904900              0.6125950              0.4491460
      0.9445400              0.3937990              0.2657040
SP   3   1.00
      1.2779000             -0.2276060             -0.0175130
      0.3975900              0.00144583             0.2445330
      0.1600950              1.0927900              0.8049340
SP   1   1.00
      0.0556577              1.0000000              1.0000000
D    1   1.00
      0.6500000              1.0000000
D    1   1.00
      0.1625000              1.0000000
F    1   1.00
      0.2500000              1.0000000
****
Si     0
S    6   1.00
  16115.9000000              0.00195948
   2425.5800000              0.01492880
    553.8670000              0.07284780
    156.3400000              0.24613000
     50.0683000              0.48591400
     17.0178000              0.32500200
SP   6   1.00
    292.7180000             -0.00278094             0.00443826
     69.8731000             -0.03571460             0.03266790
     22.3363000             -0.11498500             0.13472100
      8.1503900              0.09356340             0.32867800
      3.1345800              0.60301700             0.44964000
      1.2254300              0.41895900             0.26137200
SP   3   1.00
      1.7273800             -0.24463000            -0.01779510
      0.5729220              0.00431572             0.25353900
      0.2221920              1.09818000             0.80066900
SP   1   1.00
      0.0778369              1.00000000             1.00000000
D    1   1.00
      0.9000000              1.0000000
D    1   1.00
      0.2250000              1.0000000
F    1   1.00
      0.3200000              1.0000000
****
P     0
S    6   1.00
  19413.3000000              0.0018516
   2909.4200000              0.0142062
    661.3640000              0.0699995
    185.7590000              0.2400790
     59.1943000              0.4847620
     20.0310000              0.3352000
SP   6   1.00
    339.4780000             -0.00278217             0.00456462
     81.0101000             -0.0360499              0.03369360
     25.8780000             -0.1166310              0.13975500
      9.4522100              0.0968328              0.33936200
      3.6656600              0.6144180              0.45092100
      1.4674600              0.4037980              0.23858600
SP   3   1.00
      2.1562300             -0.2529230             -0.01776530
      0.7489970              0.0328517              0.27405800
      0.2831450              1.0812500              0.78542100
SP   1   1.00
      0.0998317              1.0000000              1.00000000
D    1   1.00
      1.1000000              1.0000000
D    1   1.00
      0.2750000              1.0000000
F    1   1.00
      0.4500000              1.0000000
****
S     0
S    6   1.00
  21917.1000000              0.0018690
   3301.4900000              0.0142300
    754.1460000              0.0696960
    212.7110000              0.2384870
     67.9896000              0.4833070
     23.0515000              0.3380740
SP   6   1.00
    423.7350000             -0.0023767              0.0040610
    100.7100000             -0.0316930              0.0306810
     32.1599000             -0.1133170              0.1304520
     11.8079000              0.0560900              0.3272050
      4.6311000              0.5922550              0.4528510
      1.8702500              0.4550060              0.2560420
SP   3   1.00
      2.6158400             -0.2503740             -0.0145110
      0.9221670              0.0669570              0.3102630
      0.3412870              1.0545100              0.7544830
SP   1   1.00
      0.1171670              1.0000000              1.0000000
D    1   1.00
      1.3000000              1.0000000
D    1   1.00
      0.3250000              1.0000000
F    1   1.00
      0.5500000              1.0000000
****
Cl     0
S    6   1.00
  25180.1000000              0.0018330
   3780.3500000              0.0140340
    860.4740000              0.0690970
    242.1450000              0.2374520
     77.3349000              0.4830340
     26.2470000              0.3398560
SP   6   1.00
    491.7650000             -0.0022974              0.0039894
    116.9840000             -0.0307140              0.0303180
     37.4153000             -0.1125280              0.1298800
     13.7834000              0.0450160              0.3279510
      5.4521500              0.5893530              0.4535270
      2.2258800              0.4652060              0.2521540
SP   3   1.00
      3.1864900             -0.2518300             -0.0142990
      1.1442700              0.0615890              0.3235720
      0.4203770              1.0601800              0.7435070
SP   1   1.00
      0.1426570              1.0000000              1.0000000
D    1   1.00
      1.5000000              1.0000000
D    1   1.00
      0.3750000              1.0000000
F    1   1.00
      0.7000000              1.0000000
****
}

set {
reference uhf
freeze_core true
e_convergence 10
d_convergence 10
dft_spherical_points 1202
dft_radial_points 99
}

e = energy('b3lyp')

print_out('Grab this energy {0}'.format(e))
--------------------------------------------------------------------------

    Molecular point group: c1

    Geometry (in Bohr), charge = 0, multiplicity = 2:

       Center              X                  Y                   Z               Mass
    ------------   -----------------  -----------------  -----------------  -----------------
         C           -0.323338503891    -0.000024394929    -0.003978717619    12.000000000000
         C            0.060857394909    -1.399860103329    -2.425983870219    12.000000000000
         C            0.061328567509     2.801195167571     0.000259400381    12.000000000000
         C            0.061113583709    -1.400767987829     2.428075647981    12.000000000000
         H            2.087599865209    -1.642097741729    -2.846886175719     1.007825032230
         H           -0.763176204291    -0.389958406129    -4.021230176819     1.007825032230
         H           -0.768055018291    -3.294740487329    -2.346954795619     1.007825032230
         H            2.085884896709     3.287656226371     0.002365663581     1.007825032230
         H           -0.764460876691     3.680502876171     1.679517267881     1.007825032230
         H           -0.766135839991     3.678790097071    -1.675317609119     1.007825032230
         H            2.087186623609    -1.641752718029     2.851018169281     1.007825032230
         H           -0.768988359191    -3.293806906529     2.350892982681     1.007825032230
         H           -0.762435208191    -0.391054555329     4.025973507581     1.007825032230

  Charge       = 0
  Multiplicity = 2
  Basis Set: ANONYMOUS763DE528
    Blend: 6-31G_2DFP_
  Basis Set: (ANONYMOUS763DE528 AUX)
    Blend: DEF2-UNIVERSAL-JKFIT

    Orbital Energies [Eh]
    ---------------------

    Alpha Occupied:

       1A    -10.180342     2A    -10.167049     3A    -10.167024
       4A    -10.166971     5A     -0.797770     6A     -0.686386
       7A     -0.685989     8A     -0.530778     9A     -0.441133
      10A     -0.434949    11A     -0.434385    12A     -0.382721
      13A     -0.382480    14A     -0.363610    15A     -0.338542
      16A     -0.337452    17A     -0.168960

    Alpha Virtual:

      18A      0.076070    19A      0.134038    20A      0.134268
      21A      0.142356    22A      0.142896    23A      0.154882
      24A      0.178684    25A      0.178872    26A      0.203544
      27A      0.214804    28A      0.275676    29A      0.276294
      30A      0.398948    31A      0.399507    32A      0.403345
      33A      0.423935    34A      0.424259    35A      0.456593
      36A      0.495320    37A      0.495459    38A      0.512161
      39A      0.513978    40A      0.578611    41A      0.579016
      42A      0.591498    43A      0.591783    44A      0.602573
      45A      0.624706    46A      0.631767    47A      0.635954
      48A      0.636608    49A      0.663193    50A      0.663632
      51A      0.683652    52A      0.684070    53A      0.734994
      54A      0.825131    55A      0.825682    56A      0.853915
      57A      0.914786    58A      0.915256    59A      0.944125
      60A      0.944613    61A      0.961105    62A      0.961483
      63A      1.003456    64A      1.127733    65A      1.128450
      66A      1.142266    67A      1.162874    68A      1.163661
      69A      1.223326    70A      1.273961    71A      1.275018
      72A      1.279352    73A      1.324118    74A      1.324583
      75A      1.355991    76A      1.365648    77A      1.366464
      78A      1.392434    79A      1.403974    80A      1.404113
      81A      1.416353    82A      1.417876    83A      1.427916
      84A      1.491495    85A      1.499071    86A      1.542819
      87A      1.542860    88A      1.574251    89A      1.574648
      90A      1.669830    91A      1.738695    92A      1.740141
      93A      1.768319    94A      1.830581    95A      1.832188
      96A      1.971758    97A      2.017695    98A      2.018502
      99A      2.020192   100A      2.051896   101A      2.053416
     102A      2.738184   103A      2.738786   104A      2.790925
     105A      2.811423   106A      2.889368   107A      2.890531
     108A      2.894936   109A      2.929109   110A      2.929887
     111A      2.958957   112A      2.964223   113A      2.964576
     114A      3.034002   115A      3.070541   116A      3.071976
     117A      3.084438   118A      3.168311   119A      3.169200
     120A      3.180656   121A      3.284971   122A      3.285645
     123A      3.326617   124A      3.327699   125A      3.375614
     126A      3.489555   127A      3.490745   128A      3.514027
     129A      3.525336   130A      3.567909   131A      3.568870
     132A      3.575124   133A      3.665841   134A      3.666956
     135A      3.679649   136A      3.693915   137A      3.694338
     138A      3.776053   139A      3.777508   140A      3.789180
     141A      3.911482   142A      3.912968   143A      4.034424
     144A      4.110711   145A      4.111951   146A      4.147062
     147A      4.149095   148A      4.173359   149A      4.202023
     150A      4.202576   151A      4.204103   152A      4.211015
     153A      4.315107   154A      4.316840   155A      4.358981
     156A      4.423909   157A      4.424987   158A      4.443462
     159A      4.515781   160A      4.517900   161A      4.577941
     162A      4.578298   163A      4.617852   164A      4.709443
     165A      4.773484   166A      4.775760   167A      4.836899
     168A      4.962826   169A      5.002548   170A      5.003425
     171A      5.227583   172A      5.246879   173A      5.247168
     174A      5.354122   175A      5.356916   176A      5.479413

    Beta Occupied:

       1A    -10.167801     2A    -10.167781     3A    -10.167741
       4A    -10.166519     5A     -0.781095     6A     -0.684178
       7A     -0.683803     8A     -0.511749     9A     -0.431327
      10A     -0.430762    11A     -0.421817    12A     -0.376766
      13A     -0.376606    14A     -0.362593    15A     -0.333674
      16A     -0.332567

    Beta Virtual:

      17A     -0.025743    18A      0.077079    19A      0.134905
      20A      0.135182    21A      0.144212    22A      0.144782
      23A      0.163340    24A      0.182355    25A      0.182544
      26A      0.215034    27A      0.218927    28A      0.282056
      29A      0.282610    30A      0.400116    31A      0.400679
      32A      0.419791    33A      0.426746    34A      0.427070
      35A      0.468501    36A      0.497575    37A      0.497725
      38A      0.513896    39A      0.556321    40A      0.584141
      41A      0.584590    42A      0.597654    43A      0.597983
      44A      0.609998    45A      0.628083    46A      0.631925
      47A      0.639253    48A      0.639880    49A      0.666774
      50A      0.667180    51A      0.686308    52A      0.686683
      53A      0.757517    54A      0.830313    55A      0.830838
      56A      0.855268    57A      0.922761    58A      0.923224
      59A      0.945962    60A      0.953539    61A      0.966396
      62A      0.966807    63A      1.008696    64A      1.131781
      65A      1.132478    66A      1.155625    67A      1.167953
      68A      1.168727    69A      1.232298    70A      1.279597
      71A      1.280577    72A      1.285106    73A      1.329113
      74A      1.329566    75A      1.365405    76A      1.370972
      77A      1.371628    78A      1.393495    79A      1.407383
      80A      1.407632    81A      1.421450    82A      1.422876
      83A      1.428187    84A      1.492544    85A      1.509515
      86A      1.547198    87A      1.547300    88A      1.582120
      89A      1.582518    90A      1.674677    91A      1.744442
      92A      1.745920    93A      1.779095    94A      1.834428
      95A      1.836051    96A      1.972619    97A      2.024649
      98A      2.026206    99A      2.039695   100A      2.058611
     101A      2.060149   102A      2.746488   103A      2.747153
     104A      2.811836   105A      2.816061   106A      2.902125
     107A      2.903148   108A      2.924644   109A      2.931536
     110A      2.932424   111A      2.960035   112A      2.968764
     113A      2.969109   114A      3.041937   115A      3.080487
     116A      3.081701   117A      3.086402   118A      3.183988
     119A      3.184912   120A      3.188450   121A      3.289800
     122A      3.290416   123A      3.330396   124A      3.331528
     125A      3.383433   126A      3.492280   127A      3.493475
     128A      3.512396   129A      3.528381   130A      3.574977
     131A      3.581206   132A      3.582265   133A      3.670737
     134A      3.671546   135A      3.692954   136A      3.725612
     137A      3.725898   138A      3.780585   139A      3.782058
     140A      3.817687   141A      3.921246   142A      3.922842
     143A      4.045312   144A      4.117358   145A      4.118943
     146A      4.154199   147A      4.156389   148A      4.187393
     149A      4.208073   150A      4.209531   151A      4.210920
     152A      4.215512   153A      4.322535   154A      4.324296
     155A      4.362344   156A      4.432141   157A      4.433173
     158A      4.446357   159A      4.523556   160A      4.525705
     161A      4.588492   162A      4.588926   163A      4.625068
     164A      4.719789   165A      4.780442   166A      4.782709
     167A      4.839816   168A      4.967617   169A      5.006600
     170A      5.007454   171A      5.233192   172A      5.248653
     173A      5.249074   174A      5.360599   175A      5.363395
     176A      5.481735

    Final Occupation by Irrep:
              A
    DOCC [    16 ]
    SOCC [     1 ]

  @DF-UKS Final Energy:  -157.81305246558483

   => Energetics <=

    Nuclear Repulsion Energy =            125.3947239508771503
    One-Electron Energy =                -458.7490611067572672
    Two-Electron Energy =                 195.8484341573021936
    DFT Exchange-Correlation Energy =     -20.3071494670069228
    Empirical Dispersion Energy =           0.0000000000000000
    VV10 Nonlocal Energy =                  0.0000000000000000
    Total Energy =                       -157.8130524655848319

  UHF NO Occupations:
  HONO-2 :   15  A 1.9996009
  HONO-1 :   16  A 1.9989805
  HONO-0 :   17  A 1.0000000
  LUNO+0 :   18  A 0.0010195
  LUNO+1 :   19  A 0.0003991
  LUNO+2 :   20  A 0.0001986
  LUNO+3 :   21  A 0.0001965

Computation Completed

Properties will be evaluated at   0.000000,   0.000000,   0.000000 [a0]

Properties computed using the SCF density matrix

  Nuclear Dipole Moment: [e a0]
     X:     0.8272      Y:    -0.0032      Z:     0.0096

  Electronic Dipole Moment: [e a0]
     X:    -0.7493      Y:     0.0050      Z:    -0.0108

  Dipole Moment: [e a0]
     X:     0.0779      Y:     0.0017      Z:    -0.0012     Total:     0.0779

  Dipole Moment: [D]
     X:     0.1980      Y:     0.0044      Z:    -0.0031     Total:     0.1981

*** tstop() called on n082 at Fri Nov  5 13:53:23 2021
Module time:
	user time   =     494.94 seconds =       8.25 minutes
	system time =       4.58 seconds =       0.08 minutes
	total time  =        126 seconds =       2.10 minutes
Total time:
	user time   =     494.94 seconds =       8.25 minutes
	system time =       4.58 seconds =       0.08 minutes
	total time  =        126 seconds =       2.10 minutes
Grab this energy -157.81305246558483
    Psi4 stopped on: Friday, 05 November 2021 01:53PM
    Psi4 wall time for execution: 0:02:05.59

*** Psi4 exiting successfully. Buy a developer a beer!
