                               Psi4 1.4a2.dev629

  ==> Input File <==

--------------------------------------------------------------------------
import os
memory 14 GB

molecule {
 C   -0.3233390694    0.0024260106   -0.0053431930
 C    0.0614096639   -1.3997932049   -2.4277847207
 C    0.0602235433    2.8005031096   -0.0011108629
 C    0.0616656032   -1.4007055861    2.4271483526
 H    2.0884224705   -1.6465723694   -2.8449276500
 H   -0.7612927893   -0.3872449657   -4.0292763916
 H   -0.7681682240   -3.2893164828   -2.3489724840
 H    2.0842254228    3.2889197002    0.0009977831
 H   -0.7662274084    3.6782242529    1.6774695911
 H   -0.7678963113    3.6765097653   -1.6760123226
 H    2.0880133172   -1.6462351018    2.8463408865
 H   -0.7690948037   -3.2883876010    2.3501783310
 H   -0.7605492915   -0.3883518404    4.0312926806
units bohr
0 2
}

basis {

assign 6-31g_2dfp_

[ 6-31g_2dfp_ ]

spherical

!----------------------------------------------------------------------
! Basis Set Exchange
! Version v0.8.13
! https://www.basissetexchange.org
!----------------------------------------------------------------------
!   Basis set: 6-31G(2df,p)
! Description: 6-31G(2df,p)
!        Role: orbital
!     Version: 0  (Data from the original Basis Set Exchange)
!----------------------------------------------------------------------

****
H     0
S    3   1.00
     18.7311370              0.03349460
      2.8253937              0.23472695
      0.6401217              0.81375733
S    1   1.00
      0.1612778              1.00000000
P    1   1.00
      1.5000000              1.0000000
P    1   1.00
      0.3750000              1.0000000
****
B     0
S    6   1.00
   2068.8823000              0.0018663
    310.6495700              0.0142515
     70.6830330              0.0695516
     19.8610800              0.2325729
      6.2993048              0.4670787
      2.1270270              0.3634314
SP   3   1.00
      4.7279710             -0.1303938              0.0745976
      1.1903377             -0.1307889              0.3078467
      0.3594117              1.1309444              0.7434568
SP   1   1.00
      0.1267512              1.0000000              1.0000000
D    1   1.00
      0.8020000              1.0000000
D    1   1.00
      0.2005000              1.0000000
F    1   1.00
      0.5000000              1.0000000
****
C     0
S    6   1.00
   3047.5249000              0.0018347
    457.3695100              0.0140373
    103.9486900              0.0688426
     29.2101550              0.2321844
      9.2866630              0.4679413
      3.1639270              0.3623120
SP   3   1.00
      7.8682724             -0.1193324              0.0689991
      1.8812885             -0.1608542              0.3164240
      0.5442493              1.1434564              0.7443083
SP   1   1.00
      0.1687144              1.0000000              1.0000000
D    1   1.00
      1.2520000              1.0000000
D    1   1.00
      0.3130000              1.0000000
F    1   1.00
      0.8000000              1.0000000
****
N     0
S    6   1.00
   4173.5110000              0.0018348
    627.4579000              0.0139950
    142.9021000              0.0685870
     40.2343300              0.2322410
     12.8202100              0.4690700
      4.3904370              0.3604550
SP   3   1.00
     11.6263580             -0.1149610              0.0675800
      2.7162800             -0.1691180              0.3239070
      0.7722180              1.1458520              0.7408950
SP   1   1.00
      0.2120313              1.0000000              1.0000000
D    1   1.00
      1.8260000              1.0000000
D    1   1.00
      0.4565000              1.0000000
F    1   1.00
      1.0000000              1.0000000
****
O     0
S    6   1.00
   5484.6717000              0.0018311
    825.2349500              0.0139501
    188.0469600              0.0684451
     52.9645000              0.2327143
     16.8975700              0.4701930
      5.7996353              0.3585209
SP   3   1.00
     15.5396160             -0.1107775              0.0708743
      3.5999336             -0.1480263              0.3397528
      1.0137618              1.1307670              0.7271586
SP   1   1.00
      0.2700058              1.0000000              1.0000000
D    1   1.00
      2.5840000              1.0000000
D    1   1.00
      0.6460000              1.0000000
F    1   1.00
      1.4000000              1.0000000
****
F     0
S    6   1.00
   7001.7130900              0.0018196169
   1051.3660900              0.0139160796
    239.2856900              0.0684053245
     67.3974453              0.233185760
     21.5199573              0.471267439
      7.40310130             0.356618546
SP   3   1.00
     20.8479528             -0.108506975            0.0716287243
      4.80830834            -0.146451658            0.3459121030
      1.34406986             1.128688580            0.7224699570
SP   1   1.00
      0.358151393            1.0000000              1.0000000
D    1   1.00
      3.5000000              1.0000000
D    1   1.00
      0.8750000              1.0000000
F    1   1.00
      1.8500000              1.0000000
****
Al     0
S    6   1.00
  13983.1000000              0.00194267
   2098.7500000              0.0148599
    477.7050000              0.0728494
    134.3600000              0.2468300
     42.8709000              0.4872580
     14.5189000              0.3234960
SP   6   1.00
    239.6680000             -0.00292619             0.00460285
     57.4419000             -0.0374080              0.0331990
     18.2859000             -0.1144870              0.1362820
      6.5991400              0.1156350              0.3304760
      2.4904900              0.6125950              0.4491460
      0.9445400              0.3937990              0.2657040
SP   3   1.00
      1.2779000             -0.2276060             -0.0175130
      0.3975900              0.00144583             0.2445330
      0.1600950              1.0927900              0.8049340
SP   1   1.00
      0.0556577              1.0000000              1.0000000
D    1   1.00
      0.6500000              1.0000000
D    1   1.00
      0.1625000              1.0000000
F    1   1.00
      0.2500000              1.0000000
****
Si     0
S    6   1.00
  16115.9000000              0.00195948
   2425.5800000              0.01492880
    553.8670000              0.07284780
    156.3400000              0.24613000
     50.0683000              0.48591400
     17.0178000              0.32500200
SP   6   1.00
    292.7180000             -0.00278094             0.00443826
     69.8731000             -0.03571460             0.03266790
     22.3363000             -0.11498500             0.13472100
      8.1503900              0.09356340             0.32867800
      3.1345800              0.60301700             0.44964000
      1.2254300              0.41895900             0.26137200
SP   3   1.00
      1.7273800             -0.24463000            -0.01779510
      0.5729220              0.00431572             0.25353900
      0.2221920              1.09818000             0.80066900
SP   1   1.00
      0.0778369              1.00000000             1.00000000
D    1   1.00
      0.9000000              1.0000000
D    1   1.00
      0.2250000              1.0000000
F    1   1.00
      0.3200000              1.0000000
****
P     0
S    6   1.00
  19413.3000000              0.0018516
   2909.4200000              0.0142062
    661.3640000              0.0699995
    185.7590000              0.2400790
     59.1943000              0.4847620
     20.0310000              0.3352000
SP   6   1.00
    339.4780000             -0.00278217             0.00456462
     81.0101000             -0.0360499              0.03369360
     25.8780000             -0.1166310              0.13975500
      9.4522100              0.0968328              0.33936200
      3.6656600              0.6144180              0.45092100
      1.4674600              0.4037980              0.23858600
SP   3   1.00
      2.1562300             -0.2529230             -0.01776530
      0.7489970              0.0328517              0.27405800
      0.2831450              1.0812500              0.78542100
SP   1   1.00
      0.0998317              1.0000000              1.00000000
D    1   1.00
      1.1000000              1.0000000
D    1   1.00
      0.2750000              1.0000000
F    1   1.00
      0.4500000              1.0000000
****
S     0
S    6   1.00
  21917.1000000              0.0018690
   3301.4900000              0.0142300
    754.1460000              0.0696960
    212.7110000              0.2384870
     67.9896000              0.4833070
     23.0515000              0.3380740
SP   6   1.00
    423.7350000             -0.0023767              0.0040610
    100.7100000             -0.0316930              0.0306810
     32.1599000             -0.1133170              0.1304520
     11.8079000              0.0560900              0.3272050
      4.6311000              0.5922550              0.4528510
      1.8702500              0.4550060              0.2560420
SP   3   1.00
      2.6158400             -0.2503740             -0.0145110
      0.9221670              0.0669570              0.3102630
      0.3412870              1.0545100              0.7544830
SP   1   1.00
      0.1171670              1.0000000              1.0000000
D    1   1.00
      1.3000000              1.0000000
D    1   1.00
      0.3250000              1.0000000
F    1   1.00
      0.5500000              1.0000000
****
Cl     0
S    6   1.00
  25180.1000000              0.0018330
   3780.3500000              0.0140340
    860.4740000              0.0690970
    242.1450000              0.2374520
     77.3349000              0.4830340
     26.2470000              0.3398560
SP   6   1.00
    491.7650000             -0.0022974              0.0039894
    116.9840000             -0.0307140              0.0303180
     37.4153000             -0.1125280              0.1298800
     13.7834000              0.0450160              0.3279510
      5.4521500              0.5893530              0.4535270
      2.2258800              0.4652060              0.2521540
SP   3   1.00
      3.1864900             -0.2518300             -0.0142990
      1.1442700              0.0615890              0.3235720
      0.4203770              1.0601800              0.7435070
SP   1   1.00
      0.1426570              1.0000000              1.0000000
D    1   1.00
      1.5000000              1.0000000
D    1   1.00
      0.3750000              1.0000000
F    1   1.00
      0.7000000              1.0000000
****
}

set {
reference uhf
freeze_core true
e_convergence 10
d_convergence 10
dft_spherical_points 1202
dft_radial_points 99
}

e = energy('b3lyp')

print_out('Grab this energy {0}'.format(e))
--------------------------------------------------------------------------

    Molecular point group: c1

    Geometry (in Bohr), charge = 0, multiplicity = 2:

       Center              X                  Y                   Z               Mass
    ------------   -----------------  -----------------  -----------------  -----------------
         C           -0.323339016596     0.001958341051    -0.003977526270    12.000000000000
         C            0.061409716704    -1.400260874449    -2.426419053970    12.000000000000
         C            0.060223596104     2.800035440051     0.000254803830    12.000000000000
         C            0.061665656004    -1.401173255649     2.428514019330    12.000000000000
         H            2.088422523304    -1.647040038949    -2.843561983270     1.007825032230
         H           -0.761292736496    -0.387712635249    -4.027910724870     1.007825032230
         H           -0.768168171196    -3.289784152349    -2.347606817270     1.007825032230
         H            2.084225475604     3.288452030651     0.002363449830     1.007825032230
         H           -0.766227355596     3.677756583351     1.678835257830     1.007825032230
         H           -0.767896258496     3.676042095751    -1.674646655870     1.007825032230
         H            2.088013370004    -1.646702771349     2.847706553230     1.007825032230
         H           -0.769094750896    -3.288855270549     2.351543997730     1.007825032230
         H           -0.760549238696    -0.388819509949     4.032658347330     1.007825032230

  Charge       = 0
  Multiplicity = 2
  Basis Set: ANONYMOUSF90CC2B2
    Blend: 6-31G_2DFP_
  Basis Set: (ANONYMOUSF90CC2B2 AUX)
    Blend: DEF2-UNIVERSAL-JKFIT

    Orbital Energies [Eh]
    ---------------------

    Alpha Occupied:

       1A    -10.180341     2A    -10.167155     3A    -10.167091
       4A    -10.166797     5A     -0.797770     6A     -0.686424
       7A     -0.685949     8A     -0.530775     9A     -0.441132
      10A     -0.434894    11A     -0.434444    12A     -0.382724
      13A     -0.382477    14A     -0.363608    15A     -0.338539
      16A     -0.337456    17A     -0.168960

    Alpha Virtual:

      18A      0.076072    19A      0.134092    20A      0.134220
      21A      0.142450    22A      0.142802    23A      0.154879
      24A      0.178769    25A      0.178786    26A      0.203543
      27A      0.214802    28A      0.275542    29A      0.276427
      30A      0.399097    31A      0.399349    32A      0.403356
      33A      0.424063    34A      0.424133    35A      0.456594
      36A      0.495319    37A      0.495459    38A      0.512160
      39A      0.513977    40A      0.578544    41A      0.579078
      42A      0.591418    43A      0.591871    44A      0.602576
      45A      0.624751    46A      0.631769    47A      0.636081
      48A      0.636436    49A      0.663199    50A      0.663627
      51A      0.683797    52A      0.683908    53A      0.734994
      54A      0.825294    55A      0.825520    56A      0.853916
      57A      0.914844    58A      0.915202    59A      0.944123
      60A      0.944619    61A      0.961112    62A      0.961475
      63A      1.003455    64A      1.127812    65A      1.128344
      66A      1.142251    67A      1.162885    68A      1.163679
      69A      1.223330    70A      1.273986    71A      1.274994
      72A      1.279356    73A      1.324204    74A      1.324508
      75A      1.355998    76A      1.365652    77A      1.366452
      78A      1.392432    79A      1.403729    80A      1.404365
      81A      1.416693    82A      1.417536    83A      1.427932
      84A      1.491490    85A      1.499083    86A      1.542697
      87A      1.542969    88A      1.574224    89A      1.574668
      90A      1.669828    91A      1.739100    92A      1.739746
      93A      1.768310    94A      1.830900    95A      1.831880
      96A      1.971732    97A      2.018179    98A      2.018539
      99A      2.019666   100A      2.051555   101A      2.053757
     102A      2.738239   103A      2.738728   104A      2.790930
     105A      2.811418   106A      2.889244   107A      2.890595
     108A      2.895001   109A      2.929075   110A      2.929922
     111A      2.958989   112A      2.964071   113A      2.964690
     114A      3.034000   115A      3.070708   116A      3.071874
     117A      3.084347   118A      3.168673   119A      3.168813
     120A      3.180683   121A      3.285011   122A      3.285613
     123A      3.326574   124A      3.327736   125A      3.375606
     126A      3.489575   127A      3.490718   128A      3.514012
     129A      3.525323   130A      3.567517   131A      3.569272
     132A      3.575152   133A      3.665976   134A      3.666751
     135A      3.679683   136A      3.693755   137A      3.694475
     138A      3.775222   139A      3.778321   140A      3.789218
     141A      3.911563   142A      3.912898   143A      4.034431
     144A      4.110289   145A      4.112439   146A      4.147002
     147A      4.149233   148A      4.173262   149A      4.201858
     150A      4.203220   151A      4.203694   152A      4.210906
     153A      4.315203   154A      4.316733   155A      4.358983
     156A      4.423939   157A      4.424948   158A      4.443449
     159A      4.516063   160A      4.517612   161A      4.577309
     162A      4.578916   163A      4.617830   164A      4.709463
     165A      4.773839   166A      4.775418   167A      4.836903
     168A      4.962810   169A      5.002299   170A      5.003673
     171A      5.228029   172A      5.246696   173A      5.246947
     174A      5.354408   175A      5.356613   176A      5.479350

    Beta Occupied:

       1A    -10.167908     2A    -10.167854     3A    -10.167561
       4A    -10.166518     5A     -0.781095     6A     -0.684210
       7A     -0.683768     8A     -0.511747     9A     -0.431270
      10A     -0.430820    11A     -0.421819    12A     -0.376767
      13A     -0.376605    14A     -0.362591    15A     -0.333671
      16A     -0.332569

    Beta Virtual:

      17A     -0.025742    18A      0.077081    19A      0.134979
      20A      0.135112    21A      0.144330    22A      0.144664
      23A      0.163338    24A      0.182429    25A      0.182469
      26A      0.215032    27A      0.218926    28A      0.281920
      29A      0.282745    30A      0.400275    31A      0.400518
      32A      0.419793    33A      0.426860    34A      0.426959
      35A      0.468502    36A      0.497582    37A      0.497717
      38A      0.513896    39A      0.556319    40A      0.584072
      41A      0.584655    42A      0.597616    43A      0.598028
      44A      0.609999    45A      0.628126    46A      0.631928
      47A      0.639347    48A      0.639743    49A      0.666775
      50A      0.667179    51A      0.686434    52A      0.686541
      53A      0.757516    54A      0.830471    55A      0.830680
      56A      0.855269    57A      0.922793    58A      0.923194
      59A      0.945960    60A      0.953547    61A      0.966401
      62A      0.966800    63A      1.008695    64A      1.131867
      65A      1.132367    66A      1.155606    67A      1.167980
      68A      1.168731    69A      1.232303    70A      1.279631
      71A      1.280541    72A      1.285113    73A      1.329211
      74A      1.329480    75A      1.365413    76A      1.370957
      77A      1.371635    78A      1.393491    79A      1.407157
      80A      1.407863    81A      1.421752    82A      1.422573
      83A      1.428207    84A      1.492538    85A      1.509526
      86A      1.547135    87A      1.547346    88A      1.582141
      89A      1.582494    90A      1.674676    91A      1.744848
      92A      1.745521    93A      1.779090    94A      1.834742
      95A      1.835748    96A      1.972592    97A      2.024879
      98A      2.025997    99A      2.039676   100A      2.058314
     101A      2.060440   102A      2.746539   103A      2.747100
     104A      2.811831   105A      2.816064   106A      2.902047
     107A      2.903220   108A      2.924631   109A      2.931529
     110A      2.932455   111A      2.960053   112A      2.968630
     113A      2.969219   114A      3.041935   115A      3.080705
     116A      3.081696   117A      3.086163   118A      3.184194
     119A      3.184632   120A      3.188526   121A      3.289849
     122A      3.290372   123A      3.330383   124A      3.331536
     125A      3.383425   126A      3.492286   127A      3.493462
     128A      3.512386   129A      3.528370   130A      3.574985
     131A      3.580908   132A      3.582583   133A      3.670865
     134A      3.671372   135A      3.692959   136A      3.725509
     137A      3.725986   138A      3.779824   139A      3.782816
     140A      3.817708   141A      3.921421   142A      3.922682
     143A      4.045318   144A      4.117121   145A      4.119241
     146A      4.154264   147A      4.156388   148A      4.187320
     149A      4.208186   150A      4.209565   151A      4.210852
     152A      4.215391   153A      4.322574   154A      4.324241
     155A      4.362347   156A      4.432171   157A      4.433134
     158A      4.446346   159A      4.523854   160A      4.525401
     161A      4.587884   162A      4.589517   163A      4.625049
     164A      4.719810   165A      4.780800   166A      4.782366
     167A      4.839820   168A      4.967602   169A      5.006329
     170A      5.007724   171A      5.233744   172A      5.248470
     173A      5.248741   174A      5.360857   175A      5.363125
     176A      5.481671

    Final Occupation by Irrep:
              A
    DOCC [    16 ]
    SOCC [     1 ]

  @DF-UKS Final Energy:  -157.81306041172408

   => Energetics <=

    Nuclear Repulsion Energy =            125.3947153650005930
    One-Electron Energy =                -458.7490706411902011
    Two-Electron Energy =                 195.8484422124998900
    DFT Exchange-Correlation Energy =     -20.3071473480343663
    Empirical Dispersion Energy =           0.0000000000000000
    VV10 Nonlocal Energy =                  0.0000000000000000
    Total Energy =                       -157.8130604117240807

  UHF NO Occupations:
  HONO-2 :   15  A 1.9996009
  HONO-1 :   16  A 1.9989805
  HONO-0 :   17  A 1.0000000
  LUNO+0 :   18  A 0.0010195
  LUNO+1 :   19  A 0.0003991
  LUNO+2 :   20  A 0.0001988
  LUNO+3 :   21  A 0.0001963

Computation Completed

Properties will be evaluated at   0.000000,   0.000000,   0.000000 [a0]

Properties computed using the SCF density matrix

  Nuclear Dipole Moment: [e a0]
     X:     0.8272      Y:    -0.0033      Z:     0.0096

  Electronic Dipole Moment: [e a0]
     X:    -0.7493      Y:     0.0033      Z:    -0.0108

  Dipole Moment: [e a0]
     X:     0.0779      Y:    -0.0000      Z:    -0.0012     Total:     0.0779

  Dipole Moment: [D]
     X:     0.1980      Y:    -0.0001      Z:    -0.0031     Total:     0.1981

*** tstop() called on n079 at Fri Nov  5 14:00:23 2021
Module time:
	user time   =     495.79 seconds =       8.26 minutes
	system time =       4.67 seconds =       0.08 minutes
	total time  =        126 seconds =       2.10 minutes
Total time:
	user time   =     495.79 seconds =       8.26 minutes
	system time =       4.67 seconds =       0.08 minutes
	total time  =        126 seconds =       2.10 minutes
Grab this energy -157.81306041172408
    Psi4 stopped on: Friday, 05 November 2021 02:00PM
    Psi4 wall time for execution: 0:02:05.85

*** Psi4 exiting successfully. Buy a developer a beer!
