                               Psi4 1.4a2.dev629

  ==> Input File <==

--------------------------------------------------------------------------
import os
memory 14 GB

molecule {
 C   -0.3233404212    0.0002481443    0.0000000000
 C    0.0612724210   -1.4004859959   -2.4266228858
 C    0.0607554779    2.8017321358    0.0000000000
 C    0.0612724210   -1.4004859959    2.4266228858
 H    2.0832515827   -1.6411739183   -2.8458977676
 H   -0.7650664025   -0.3887095333   -4.0280486569
 H   -0.7656371982   -3.2944682480   -2.3485033447
 H    2.0941599743    3.2937229308   -0.0000000000
 H   -0.7659118569    3.6769739333    1.6732597888
 H   -0.7659118569    3.6769739333   -1.6732597888
 H    2.0832515827   -1.6411739183    2.8458977676
 H   -0.7656371982   -3.2944682480    2.3485033447
 H   -0.7650664025   -0.3887095334    4.0280486569
units bohr
0 2
}

basis {

assign 6-31g_2dfp_

[ 6-31g_2dfp_ ]

spherical

!----------------------------------------------------------------------
! Basis Set Exchange
! Version v0.8.13
! https://www.basissetexchange.org
!----------------------------------------------------------------------
!   Basis set: 6-31G(2df,p)
! Description: 6-31G(2df,p)
!        Role: orbital
!     Version: 0  (Data from the original Basis Set Exchange)
!----------------------------------------------------------------------

****
H     0
S    3   1.00
     18.7311370              0.03349460
      2.8253937              0.23472695
      0.6401217              0.81375733
S    1   1.00
      0.1612778              1.00000000
P    1   1.00
      1.5000000              1.0000000
P    1   1.00
      0.3750000              1.0000000
****
B     0
S    6   1.00
   2068.8823000              0.0018663
    310.6495700              0.0142515
     70.6830330              0.0695516
     19.8610800              0.2325729
      6.2993048              0.4670787
      2.1270270              0.3634314
SP   3   1.00
      4.7279710             -0.1303938              0.0745976
      1.1903377             -0.1307889              0.3078467
      0.3594117              1.1309444              0.7434568
SP   1   1.00
      0.1267512              1.0000000              1.0000000
D    1   1.00
      0.8020000              1.0000000
D    1   1.00
      0.2005000              1.0000000
F    1   1.00
      0.5000000              1.0000000
****
C     0
S    6   1.00
   3047.5249000              0.0018347
    457.3695100              0.0140373
    103.9486900              0.0688426
     29.2101550              0.2321844
      9.2866630              0.4679413
      3.1639270              0.3623120
SP   3   1.00
      7.8682724             -0.1193324              0.0689991
      1.8812885             -0.1608542              0.3164240
      0.5442493              1.1434564              0.7443083
SP   1   1.00
      0.1687144              1.0000000              1.0000000
D    1   1.00
      1.2520000              1.0000000
D    1   1.00
      0.3130000              1.0000000
F    1   1.00
      0.8000000              1.0000000
****
N     0
S    6   1.00
   4173.5110000              0.0018348
    627.4579000              0.0139950
    142.9021000              0.0685870
     40.2343300              0.2322410
     12.8202100              0.4690700
      4.3904370              0.3604550
SP   3   1.00
     11.6263580             -0.1149610              0.0675800
      2.7162800             -0.1691180              0.3239070
      0.7722180              1.1458520              0.7408950
SP   1   1.00
      0.2120313              1.0000000              1.0000000
D    1   1.00
      1.8260000              1.0000000
D    1   1.00
      0.4565000              1.0000000
F    1   1.00
      1.0000000              1.0000000
****
O     0
S    6   1.00
   5484.6717000              0.0018311
    825.2349500              0.0139501
    188.0469600              0.0684451
     52.9645000              0.2327143
     16.8975700              0.4701930
      5.7996353              0.3585209
SP   3   1.00
     15.5396160             -0.1107775              0.0708743
      3.5999336             -0.1480263              0.3397528
      1.0137618              1.1307670              0.7271586
SP   1   1.00
      0.2700058              1.0000000              1.0000000
D    1   1.00
      2.5840000              1.0000000
D    1   1.00
      0.6460000              1.0000000
F    1   1.00
      1.4000000              1.0000000
****
F     0
S    6   1.00
   7001.7130900              0.0018196169
   1051.3660900              0.0139160796
    239.2856900              0.0684053245
     67.3974453              0.233185760
     21.5199573              0.471267439
      7.40310130             0.356618546
SP   3   1.00
     20.8479528             -0.108506975            0.0716287243
      4.80830834            -0.146451658            0.3459121030
      1.34406986             1.128688580            0.7224699570
SP   1   1.00
      0.358151393            1.0000000              1.0000000
D    1   1.00
      3.5000000              1.0000000
D    1   1.00
      0.8750000              1.0000000
F    1   1.00
      1.8500000              1.0000000
****
Al     0
S    6   1.00
  13983.1000000              0.00194267
   2098.7500000              0.0148599
    477.7050000              0.0728494
    134.3600000              0.2468300
     42.8709000              0.4872580
     14.5189000              0.3234960
SP   6   1.00
    239.6680000             -0.00292619             0.00460285
     57.4419000             -0.0374080              0.0331990
     18.2859000             -0.1144870              0.1362820
      6.5991400              0.1156350              0.3304760
      2.4904900              0.6125950              0.4491460
      0.9445400              0.3937990              0.2657040
SP   3   1.00
      1.2779000             -0.2276060             -0.0175130
      0.3975900              0.00144583             0.2445330
      0.1600950              1.0927900              0.8049340
SP   1   1.00
      0.0556577              1.0000000              1.0000000
D    1   1.00
      0.6500000              1.0000000
D    1   1.00
      0.1625000              1.0000000
F    1   1.00
      0.2500000              1.0000000
****
Si     0
S    6   1.00
  16115.9000000              0.00195948
   2425.5800000              0.01492880
    553.8670000              0.07284780
    156.3400000              0.24613000
     50.0683000              0.48591400
     17.0178000              0.32500200
SP   6   1.00
    292.7180000             -0.00278094             0.00443826
     69.8731000             -0.03571460             0.03266790
     22.3363000             -0.11498500             0.13472100
      8.1503900              0.09356340             0.32867800
      3.1345800              0.60301700             0.44964000
      1.2254300              0.41895900             0.26137200
SP   3   1.00
      1.7273800             -0.24463000            -0.01779510
      0.5729220              0.00431572             0.25353900
      0.2221920              1.09818000             0.80066900
SP   1   1.00
      0.0778369              1.00000000             1.00000000
D    1   1.00
      0.9000000              1.0000000
D    1   1.00
      0.2250000              1.0000000
F    1   1.00
      0.3200000              1.0000000
****
P     0
S    6   1.00
  19413.3000000              0.0018516
   2909.4200000              0.0142062
    661.3640000              0.0699995
    185.7590000              0.2400790
     59.1943000              0.4847620
     20.0310000              0.3352000
SP   6   1.00
    339.4780000             -0.00278217             0.00456462
     81.0101000             -0.0360499              0.03369360
     25.8780000             -0.1166310              0.13975500
      9.4522100              0.0968328              0.33936200
      3.6656600              0.6144180              0.45092100
      1.4674600              0.4037980              0.23858600
SP   3   1.00
      2.1562300             -0.2529230             -0.01776530
      0.7489970              0.0328517              0.27405800
      0.2831450              1.0812500              0.78542100
SP   1   1.00
      0.0998317              1.0000000              1.00000000
D    1   1.00
      1.1000000              1.0000000
D    1   1.00
      0.2750000              1.0000000
F    1   1.00
      0.4500000              1.0000000
****
S     0
S    6   1.00
  21917.1000000              0.0018690
   3301.4900000              0.0142300
    754.1460000              0.0696960
    212.7110000              0.2384870
     67.9896000              0.4833070
     23.0515000              0.3380740
SP   6   1.00
    423.7350000             -0.0023767              0.0040610
    100.7100000             -0.0316930              0.0306810
     32.1599000             -0.1133170              0.1304520
     11.8079000              0.0560900              0.3272050
      4.6311000              0.5922550              0.4528510
      1.8702500              0.4550060              0.2560420
SP   3   1.00
      2.6158400             -0.2503740             -0.0145110
      0.9221670              0.0669570              0.3102630
      0.3412870              1.0545100              0.7544830
SP   1   1.00
      0.1171670              1.0000000              1.0000000
D    1   1.00
      1.3000000              1.0000000
D    1   1.00
      0.3250000              1.0000000
F    1   1.00
      0.5500000              1.0000000
****
Cl     0
S    6   1.00
  25180.1000000              0.0018330
   3780.3500000              0.0140340
    860.4740000              0.0690970
    242.1450000              0.2374520
     77.3349000              0.4830340
     26.2470000              0.3398560
SP   6   1.00
    491.7650000             -0.0022974              0.0039894
    116.9840000             -0.0307140              0.0303180
     37.4153000             -0.1125280              0.1298800
     13.7834000              0.0450160              0.3279510
      5.4521500              0.5893530              0.4535270
      2.2258800              0.4652060              0.2521540
SP   3   1.00
      3.1864900             -0.2518300             -0.0142990
      1.1442700              0.0615890              0.3235720
      0.4203770              1.0601800              0.7435070
SP   1   1.00
      0.1426570              1.0000000              1.0000000
D    1   1.00
      1.5000000              1.0000000
D    1   1.00
      0.3750000              1.0000000
F    1   1.00
      0.7000000              1.0000000
****
}

set {
reference uhf
freeze_core true
e_convergence 10
d_convergence 10
dft_spherical_points 1202
dft_radial_points 99
}

e = energy('b3lyp')

print_out('Grab this energy {0}'.format(e))
--------------------------------------------------------------------------

    Molecular point group: cs

    Geometry (in Bohr), charge = 0, multiplicity = 2:

       Center              X                  Y                   Z               Mass
    ------------   -----------------  -----------------  -----------------  -----------------
         C           -0.323340398768     0.000054370073     0.000000000000    12.000000000000
         C            0.061272443432    -1.400679770127    -2.426622885800    12.000000000000
         C            0.060755500332     2.801538361573     0.000000000000    12.000000000000
         C            0.061272443432    -1.400679770127     2.426622885800    12.000000000000
         H            2.083251605132    -1.641367692527    -2.845897767600     1.007825032230
         H           -0.765066380068    -0.388903307577    -4.028048656900     1.007825032230
         H           -0.765637175768    -3.294662022227    -2.348503344700     1.007825032230
         H            2.094159996732     3.293529156573     0.000000000000     1.007825032230
         H           -0.765911834468     3.676780159073     1.673259788800     1.007825032230
         H           -0.765911834468     3.676780159073    -1.673259788800     1.007825032230
         H            2.083251605132    -1.641367692527     2.845897767600     1.007825032230
         H           -0.765637175768    -3.294662022227     2.348503344700     1.007825032230
         H           -0.765066380068    -0.388903307577     4.028048656900     1.007825032230

  Charge       = 0
  Multiplicity = 2
  Basis Set: ANONYMOUSFE37DE52
    Blend: 6-31G_2DFP_
  Basis Set: (ANONYMOUSFE37DE52 AUX)
    Blend: DEF2-UNIVERSAL-JKFIT

    Orbital Energies [Eh]
    ---------------------

    Alpha Occupied:

       1Ap   -10.180343     1App  -10.167034     2Ap   -10.167027
       3Ap   -10.166983     4Ap    -0.797768     2App   -0.686218
       5Ap    -0.686161     6Ap    -0.530778     7Ap    -0.441128
       3App   -0.434782     8Ap    -0.434559     4App   -0.382846
       9Ap    -0.382349     5App   -0.363610     6App   -0.338121
      10Ap    -0.337879    11Ap    -0.168962

    Alpha Virtual:

      12Ap     0.076071    13Ap     0.133932     7App    0.134369
      14Ap     0.142355     8App    0.142892    15Ap     0.154884
      16Ap     0.178562     9App    0.179002    17Ap     0.203547
      10App    0.214803    11App    0.275929    18Ap     0.276041
      12App    0.399071    19Ap     0.399383    20Ap     0.403343
      13App    0.424080    21Ap     0.424116    22Ap     0.456592
      14App    0.495233    23Ap     0.495546    15App    0.512161
      24Ap     0.513979    25Ap     0.578746    16App    0.578860
      26Ap     0.591170    17App    0.592047    27Ap     0.602650
      28Ap     0.624765    18App    0.631688    29Ap     0.635922
      19App    0.636656    30Ap     0.663099    20App    0.663749
      21App    0.683564    31Ap     0.684146    32Ap     0.734995
      33Ap     0.825368    22App    0.825440    23App    0.853923
      34Ap     0.914492    24App    0.915553    25App    0.944099
      35Ap     0.944603    36Ap     0.961108    26App    0.961523
      37Ap     1.003453    27App    1.127764    38Ap     1.128458
      39Ap     1.142212    28App    1.163240    40Ap     1.163298
      41Ap     1.223325    42Ap     1.274446    29App    1.274535
      43Ap     1.279349    44Ap     1.324241    30App    1.324455
      45Ap     1.355944    46Ap     1.366031    31App    1.366061
      32App    1.392467    47Ap     1.403102    33App    1.404979
      34App    1.416915    48Ap     1.417313    35App    1.427934
      36App    1.491489    49Ap     1.499046    50Ap     1.542444
      37App    1.543280    51Ap     1.574115    38App    1.574790
      52Ap     1.669813    53Ap     1.739063    39App    1.739670
      54Ap     1.768407    40App    1.830164    55Ap     1.832646
      41App    1.971690    56Ap     2.017960    57Ap     2.018854
      42App    2.019593    58Ap     2.051292    43App    2.054061
      59Ap     2.738072    44App    2.738907    60Ap     2.790926
      45App    2.811431    46App    2.889789    61Ap     2.889996
      62Ap     2.895065    63Ap     2.929175    47App    2.929816
      48App    2.958998    64Ap     2.964230    49App    2.964539
      65Ap     3.034014    66Ap     3.070635    50App    3.071939
      51App    3.084351    52App    3.168350    67Ap     3.169228
      68Ap     3.180595    53App    3.284873    69Ap     3.285752
      54App    3.326090    70Ap     3.328231    71Ap     3.375629
      72Ap     3.489273    55App    3.491058    56App    3.514014
      73Ap     3.525339    57App    3.568122    74Ap     3.568598
      58App    3.575215    75Ap     3.665199    59App    3.667563
      76Ap     3.679642    77Ap     3.693604    60App    3.694616
      61App    3.776739    78Ap     3.776844    79Ap     3.789228
      62App    3.912003    80Ap     3.912470    81Ap     4.034418
      82Ap     4.110725    63App    4.111928    64App    4.147530
      83Ap     4.148622    84Ap     4.173245    65App    4.201867
      85Ap     4.201911    86Ap     4.205032    66App    4.210911
      87Ap     4.314921    67App    4.317039    68App    4.358986
      69App    4.424273    88Ap     4.424698    70App    4.443403
      89Ap     4.515475    71App    4.518184    72App    4.578148
      90Ap     4.578393    91Ap     4.617636    92Ap     4.709368
      93Ap     4.773624    73App    4.775656    74App    4.836901
      94Ap     4.962870    95Ap     5.001647    75App    5.004232
      96Ap     5.228063    97Ap     5.244198    76App    5.249420
      98Ap     5.354448    77App    5.356700    78App    5.479386

    Beta Occupied:

       1App  -10.167784     1Ap   -10.167782     2Ap   -10.167757
       3Ap   -10.166521     4Ap    -0.781093     2App   -0.684011
       5Ap    -0.683974     6Ap    -0.511749     3App   -0.431158
       7Ap    -0.430933     8Ap    -0.421820     4App   -0.376959
       9Ap    -0.376404     5App   -0.362594     6App   -0.333240
      10Ap    -0.333006

    Beta Virtual:

      11Ap    -0.025745    12Ap     0.077080    13Ap     0.134844
       7App    0.135241    14Ap     0.144276     8App    0.144715
      15Ap     0.163339    16Ap     0.182209     9App    0.182696
      10App    0.215033    17Ap     0.218929    11App    0.282279
      18Ap     0.282388    12App    0.400245    19Ap     0.400547
      20Ap     0.419789    13App    0.426889    21Ap     0.426929
      22Ap     0.468500    14App    0.497485    23Ap     0.497815
      15App    0.513896    24Ap     0.556324    25Ap     0.584320
      16App    0.584390    26Ap     0.597333    17App    0.598254
      27Ap     0.610056    28Ap     0.628145    18App    0.631879
      29Ap     0.639211    19App    0.639904    30Ap     0.666704
      20App    0.667273    21App    0.686234    31Ap     0.686746
      32Ap     0.757518    33Ap     0.830541    22App    0.830603
      23App    0.855277    34Ap     0.922506    24App    0.923484
      25App    0.945941    35Ap     0.953527    36Ap     0.966401
      26App    0.966840    37Ap     1.008693    27App    1.131776
      38Ap     1.132502    39Ap     1.155591    28App    1.168315
      40Ap     1.168369    41Ap     1.232297    42Ap     1.280019
      29App    1.280157    43Ap     1.285102    44Ap     1.329227
      30App    1.329446    45Ap     1.365354    31App    1.371240
      46Ap     1.371343    32App    1.393525    47Ap     1.406521
      33App    1.408488    34App    1.421930    48Ap     1.422387
      35App    1.428220    36App    1.492538    49Ap     1.509481
      50Ap     1.546972    37App    1.547574    51Ap     1.581886
      38App    1.582764    52Ap     1.674659    53Ap     1.744845
      39App    1.745428    54Ap     1.779171    40App    1.834016
      55Ap     1.836507    41App    1.972554    56Ap     2.024906
      42App    2.026007    57Ap     2.039643    58Ap     2.058060
      43App    2.060745    59Ap     2.746405    44App    2.747245
      45App    2.811843    60Ap     2.816062    46App    2.902402
      61Ap     2.902860    62Ap     2.924657    63Ap     2.931648
      47App    2.932313    48App    2.960066    64Ap     2.968769
      49App    2.969093    65Ap     3.041946    66Ap     3.080409
      50App    3.081971    51App    3.086185    52App    3.183991
      67Ap     3.185077    68Ap     3.188285    53App    3.289625
      69Ap     3.290598    54App    3.329880    70Ap     3.332050
      71Ap     3.383447    72Ap     3.491987    55App    3.493804
      56App    3.512383    73Ap     3.528385    57App    3.574943
      58App    3.581758    74Ap     3.581768    75Ap     3.669911
      59App    3.672346    76Ap     3.692936    77Ap     3.725500
      60App    3.725994    78Ap     3.781308    61App    3.781359
      79Ap     3.817735    62App    3.921792    80Ap     3.922314
      81Ap     4.045306    82Ap     4.117595    63App    4.118692
      64App    4.154876    83Ap     4.155696    84Ap     4.187305
      65App    4.207753    85Ap     4.209078    86Ap     4.211828
      66App    4.215382    87Ap     4.322387    67App    4.324454
      68App    4.362345    69App    4.432497    88Ap     4.432902
      70App    4.446285    89Ap     4.523272    71App    4.525970
      72App    4.588719    90Ap     4.589021    91Ap     4.624829
      92Ap     4.719709    93Ap     4.780551    73App    4.782640
      74App    4.839818    94Ap     4.967667    95Ap     5.005722
      75App    5.008237    96Ap     5.233775    97Ap     5.245995
      76App    5.251191    98Ap     5.360911    77App    5.363197
      78App    5.481707

    Final Occupation by Irrep:
             Ap   App
    DOCC [    10,    6 ]
    SOCC [     1,    0 ]

  @DF-UKS Final Energy:  -157.81304731461594

   => Energetics <=

    Nuclear Repulsion Energy =            125.3946811108083352
    One-Electron Energy =                -458.7489497453548211
    Two-Electron Energy =                 195.8483725562700215
    DFT Exchange-Correlation Energy =     -20.3071512363394895
    Empirical Dispersion Energy =           0.0000000000000000
    VV10 Nonlocal Energy =                  0.0000000000000000
    Total Energy =                       -157.8130473146159432

  UHF NO Occupations:
  HONO-2 :    9 Ap 1.9996008
  HONO-1 :   10 Ap 1.9989804
  HONO-0 :   11 Ap 1.0000000
  LUNO+0 :   12 Ap 0.0010196
  LUNO+1 :   13 Ap 0.0003992
  LUNO+2 :   14 Ap 0.0001977
  LUNO+3 :    7App 0.0001974

Computation Completed

Properties will be evaluated at   0.000000,   0.000000,   0.000000 [a0]

Properties computed using the SCF density matrix

  Nuclear Dipole Moment: [e a0]
     X:     0.8272      Y:    -0.0014      Z:     0.0000

  Electronic Dipole Moment: [e a0]
     X:    -0.7493      Y:     0.0012      Z:     0.0000

  Dipole Moment: [e a0]
     X:     0.0779      Y:    -0.0001      Z:     0.0000     Total:     0.0779

  Dipole Moment: [D]
     X:     0.1980      Y:    -0.0003      Z:     0.0000     Total:     0.1980

*** tstop() called on n023 at Fri Nov  5 14:18:03 2021
Module time:
	user time   =     879.71 seconds =      14.66 minutes
	system time =      17.58 seconds =       0.29 minutes
	total time  =        225 seconds =       3.75 minutes
Total time:
	user time   =     879.71 seconds =      14.66 minutes
	system time =      17.58 seconds =       0.29 minutes
	total time  =        225 seconds =       3.75 minutes
Grab this energy -157.81304731461594
    Psi4 stopped on: Friday, 05 November 2021 02:18PM
    Psi4 wall time for execution: 0:03:45.25

*** Psi4 exiting successfully. Buy a developer a beer!
