                               Psi4 1.4a2.dev629

  ==> Input File <==

--------------------------------------------------------------------------
import os
memory 14 GB

molecule {
 C   -0.3233317877    0.0069896483    0.0000000000
 C    0.0615188317   -1.4029158259   -2.4211055119
 C    0.0602636914    2.8088229009   -0.0000000000
 C    0.0615188317   -1.4029158259    2.4211055119
 H    2.0872119804   -1.6482425235   -2.8423954351
 H   -0.7639369819   -0.3993666207   -4.0275297208
 H   -0.7664881561   -3.2921246784   -2.3309595952
 H    2.0862448015    3.2926746768   -0.0000000000
 H   -0.7661979650    3.6883938787    1.6759299758
 H   -0.7661979650    3.6883938787   -1.6759299759
 H    2.0872119804   -1.6482425235    2.8423954351
 H   -0.7664881561   -3.2921246784    2.3309595952
 H   -0.7639369819   -0.3993666207    4.0275297208
units bohr
0 2
}

basis {

assign 6-31g_2dfp_

[ 6-31g_2dfp_ ]

spherical

!----------------------------------------------------------------------
! Basis Set Exchange
! Version v0.8.13
! https://www.basissetexchange.org
!----------------------------------------------------------------------
!   Basis set: 6-31G(2df,p)
! Description: 6-31G(2df,p)
!        Role: orbital
!     Version: 0  (Data from the original Basis Set Exchange)
!----------------------------------------------------------------------

****
H     0
S    3   1.00
     18.7311370              0.03349460
      2.8253937              0.23472695
      0.6401217              0.81375733
S    1   1.00
      0.1612778              1.00000000
P    1   1.00
      1.5000000              1.0000000
P    1   1.00
      0.3750000              1.0000000
****
B     0
S    6   1.00
   2068.8823000              0.0018663
    310.6495700              0.0142515
     70.6830330              0.0695516
     19.8610800              0.2325729
      6.2993048              0.4670787
      2.1270270              0.3634314
SP   3   1.00
      4.7279710             -0.1303938              0.0745976
      1.1903377             -0.1307889              0.3078467
      0.3594117              1.1309444              0.7434568
SP   1   1.00
      0.1267512              1.0000000              1.0000000
D    1   1.00
      0.8020000              1.0000000
D    1   1.00
      0.2005000              1.0000000
F    1   1.00
      0.5000000              1.0000000
****
C     0
S    6   1.00
   3047.5249000              0.0018347
    457.3695100              0.0140373
    103.9486900              0.0688426
     29.2101550              0.2321844
      9.2866630              0.4679413
      3.1639270              0.3623120
SP   3   1.00
      7.8682724             -0.1193324              0.0689991
      1.8812885             -0.1608542              0.3164240
      0.5442493              1.1434564              0.7443083
SP   1   1.00
      0.1687144              1.0000000              1.0000000
D    1   1.00
      1.2520000              1.0000000
D    1   1.00
      0.3130000              1.0000000
F    1   1.00
      0.8000000              1.0000000
****
N     0
S    6   1.00
   4173.5110000              0.0018348
    627.4579000              0.0139950
    142.9021000              0.0685870
     40.2343300              0.2322410
     12.8202100              0.4690700
      4.3904370              0.3604550
SP   3   1.00
     11.6263580             -0.1149610              0.0675800
      2.7162800             -0.1691180              0.3239070
      0.7722180              1.1458520              0.7408950
SP   1   1.00
      0.2120313              1.0000000              1.0000000
D    1   1.00
      1.8260000              1.0000000
D    1   1.00
      0.4565000              1.0000000
F    1   1.00
      1.0000000              1.0000000
****
O     0
S    6   1.00
   5484.6717000              0.0018311
    825.2349500              0.0139501
    188.0469600              0.0684451
     52.9645000              0.2327143
     16.8975700              0.4701930
      5.7996353              0.3585209
SP   3   1.00
     15.5396160             -0.1107775              0.0708743
      3.5999336             -0.1480263              0.3397528
      1.0137618              1.1307670              0.7271586
SP   1   1.00
      0.2700058              1.0000000              1.0000000
D    1   1.00
      2.5840000              1.0000000
D    1   1.00
      0.6460000              1.0000000
F    1   1.00
      1.4000000              1.0000000
****
F     0
S    6   1.00
   7001.7130900              0.0018196169
   1051.3660900              0.0139160796
    239.2856900              0.0684053245
     67.3974453              0.233185760
     21.5199573              0.471267439
      7.40310130             0.356618546
SP   3   1.00
     20.8479528             -0.108506975            0.0716287243
      4.80830834            -0.146451658            0.3459121030
      1.34406986             1.128688580            0.7224699570
SP   1   1.00
      0.358151393            1.0000000              1.0000000
D    1   1.00
      3.5000000              1.0000000
D    1   1.00
      0.8750000              1.0000000
F    1   1.00
      1.8500000              1.0000000
****
Al     0
S    6   1.00
  13983.1000000              0.00194267
   2098.7500000              0.0148599
    477.7050000              0.0728494
    134.3600000              0.2468300
     42.8709000              0.4872580
     14.5189000              0.3234960
SP   6   1.00
    239.6680000             -0.00292619             0.00460285
     57.4419000             -0.0374080              0.0331990
     18.2859000             -0.1144870              0.1362820
      6.5991400              0.1156350              0.3304760
      2.4904900              0.6125950              0.4491460
      0.9445400              0.3937990              0.2657040
SP   3   1.00
      1.2779000             -0.2276060             -0.0175130
      0.3975900              0.00144583             0.2445330
      0.1600950              1.0927900              0.8049340
SP   1   1.00
      0.0556577              1.0000000              1.0000000
D    1   1.00
      0.6500000              1.0000000
D    1   1.00
      0.1625000              1.0000000
F    1   1.00
      0.2500000              1.0000000
****
Si     0
S    6   1.00
  16115.9000000              0.00195948
   2425.5800000              0.01492880
    553.8670000              0.07284780
    156.3400000              0.24613000
     50.0683000              0.48591400
     17.0178000              0.32500200
SP   6   1.00
    292.7180000             -0.00278094             0.00443826
     69.8731000             -0.03571460             0.03266790
     22.3363000             -0.11498500             0.13472100
      8.1503900              0.09356340             0.32867800
      3.1345800              0.60301700             0.44964000
      1.2254300              0.41895900             0.26137200
SP   3   1.00
      1.7273800             -0.24463000            -0.01779510
      0.5729220              0.00431572             0.25353900
      0.2221920              1.09818000             0.80066900
SP   1   1.00
      0.0778369              1.00000000             1.00000000
D    1   1.00
      0.9000000              1.0000000
D    1   1.00
      0.2250000              1.0000000
F    1   1.00
      0.3200000              1.0000000
****
P     0
S    6   1.00
  19413.3000000              0.0018516
   2909.4200000              0.0142062
    661.3640000              0.0699995
    185.7590000              0.2400790
     59.1943000              0.4847620
     20.0310000              0.3352000
SP   6   1.00
    339.4780000             -0.00278217             0.00456462
     81.0101000             -0.0360499              0.03369360
     25.8780000             -0.1166310              0.13975500
      9.4522100              0.0968328              0.33936200
      3.6656600              0.6144180              0.45092100
      1.4674600              0.4037980              0.23858600
SP   3   1.00
      2.1562300             -0.2529230             -0.01776530
      0.7489970              0.0328517              0.27405800
      0.2831450              1.0812500              0.78542100
SP   1   1.00
      0.0998317              1.0000000              1.00000000
D    1   1.00
      1.1000000              1.0000000
D    1   1.00
      0.2750000              1.0000000
F    1   1.00
      0.4500000              1.0000000
****
S     0
S    6   1.00
  21917.1000000              0.0018690
   3301.4900000              0.0142300
    754.1460000              0.0696960
    212.7110000              0.2384870
     67.9896000              0.4833070
     23.0515000              0.3380740
SP   6   1.00
    423.7350000             -0.0023767              0.0040610
    100.7100000             -0.0316930              0.0306810
     32.1599000             -0.1133170              0.1304520
     11.8079000              0.0560900              0.3272050
      4.6311000              0.5922550              0.4528510
      1.8702500              0.4550060              0.2560420
SP   3   1.00
      2.6158400             -0.2503740             -0.0145110
      0.9221670              0.0669570              0.3102630
      0.3412870              1.0545100              0.7544830
SP   1   1.00
      0.1171670              1.0000000              1.0000000
D    1   1.00
      1.3000000              1.0000000
D    1   1.00
      0.3250000              1.0000000
F    1   1.00
      0.5500000              1.0000000
****
Cl     0
S    6   1.00
  25180.1000000              0.0018330
   3780.3500000              0.0140340
    860.4740000              0.0690970
    242.1450000              0.2374520
     77.3349000              0.4830340
     26.2470000              0.3398560
SP   6   1.00
    491.7650000             -0.0022974              0.0039894
    116.9840000             -0.0307140              0.0303180
     37.4153000             -0.1125280              0.1298800
     13.7834000              0.0450160              0.3279510
      5.4521500              0.5893530              0.4535270
      2.2258800              0.4652060              0.2521540
SP   3   1.00
      3.1864900             -0.2518300             -0.0142990
      1.1442700              0.0615890              0.3235720
      0.4203770              1.0601800              0.7435070
SP   1   1.00
      0.1426570              1.0000000              1.0000000
D    1   1.00
      1.5000000              1.0000000
D    1   1.00
      0.3750000              1.0000000
F    1   1.00
      0.7000000              1.0000000
****
}

set {
reference uhf
freeze_core true
e_convergence 10
d_convergence 10
dft_spherical_points 1202
dft_radial_points 99
}

e = energy('b3lyp')

print_out('Grab this energy {0}'.format(e))
--------------------------------------------------------------------------

    Molecular point group: cs

    Geometry (in Bohr), charge = 0, multiplicity = 2:

       Center              X                  Y                   Z               Mass
    ------------   -----------------  -----------------  -----------------  -----------------
         C           -0.323333627475     0.005067684934     0.000000000000    12.000000000000
         C            0.061516991925    -1.404837789266    -2.421105511900    12.000000000000
         C            0.060261851625     2.806900937534     0.000000000000    12.000000000000
         C            0.061516991925    -1.404837789266     2.421105511900    12.000000000000
         H            2.087210140625    -1.650164486866    -2.842395435100     1.007825032230
         H           -0.763938821675    -0.401288584066    -4.027529720800     1.007825032230
         H           -0.766489995875    -3.294046641766    -2.330959595200     1.007825032230
         H            2.086242961725     3.290752713434     0.000000000000     1.007825032230
         H           -0.766199804775     3.686471915334     1.675929975850     1.007825032230
         H           -0.766199804775     3.686471915334    -1.675929975850     1.007825032230
         H            2.087210140625    -1.650164486866     2.842395435100     1.007825032230
         H           -0.766489995875    -3.294046641766     2.330959595200     1.007825032230
         H           -0.763938821675    -0.401288584066     4.027529720800     1.007825032230

  Charge       = 0
  Multiplicity = 2
  Basis Set: ANONYMOUS7A874553
    Blend: 6-31G_2DFP_
  Basis Set: (ANONYMOUS7A874553 AUX)
    Blend: DEF2-UNIVERSAL-JKFIT

    Orbital Energies [Eh]
    ---------------------

    Alpha Occupied:

       1Ap   -10.180342     2Ap   -10.167148     1App  -10.166965
       3Ap   -10.166932     4Ap    -0.797768     5Ap    -0.686530
       2App   -0.685842     6Ap    -0.530777     7Ap    -0.441134
       8Ap    -0.434998     3App   -0.434336     9Ap    -0.382780
       4App   -0.382417     5App   -0.363606    10Ap    -0.338341
       6App   -0.337659    11Ap    -0.168961

    Alpha Virtual:

      12Ap     0.076072    13Ap     0.133947     7App    0.134365
      14Ap     0.142429     8App    0.142827    15Ap     0.154880
      16Ap     0.178515     9App    0.179040    17Ap     0.203544
      10App    0.214816    11App    0.275886    18Ap     0.276085
      19Ap     0.399105    12App    0.399338    20Ap     0.403364
      21Ap     0.423916    13App    0.424291    22Ap     0.456593
      23Ap     0.494926    14App    0.495841    15App    0.512180
      24Ap     0.513985    16App    0.578765    25Ap     0.578829
      17App    0.591377    26Ap     0.591903    27Ap     0.602575
      28Ap     0.624774    18App    0.631774    19App    0.635988
      29Ap     0.636504    30Ap     0.663161    20App    0.663661
      31Ap     0.683636    21App    0.684073    32Ap     0.734993
      33Ap     0.824361    22App    0.826436    23App    0.853913
      34Ap     0.914892    24App    0.915130    25App    0.944029
      35Ap     0.944479    36Ap     0.961023    26App    0.961853
      37Ap     1.003481    38Ap     1.126718    27App    1.129528
      39Ap     1.142218    40Ap     1.162670    28App    1.163865
      41Ap     1.223324    42Ap     1.274119    29App    1.274881
      43Ap     1.279373    30App    1.324262    44Ap     1.324423
      45Ap     1.355998    46Ap     1.365498    31App    1.366548
      32App    1.392483    47Ap     1.403575    33App    1.404566
      48Ap     1.417035    34App    1.417212    35App    1.427916
      36App    1.491430    49Ap     1.499070    50Ap     1.542187
      37App    1.543497    51Ap     1.572585    38App    1.576415
      52Ap     1.669814    53Ap     1.738686    39App    1.740107
      54Ap     1.768370    55Ap     1.831374    40App    1.831421
      41App    1.971745    56Ap     2.017172    57Ap     2.018650
      42App    2.020527    58Ap     2.050937    43App    2.054453
      59Ap     2.737944    44App    2.739030    60Ap     2.790921
      45App    2.811431    46App    2.889596    61Ap     2.890296
      62Ap     2.894953    63Ap     2.929340    47App    2.929651
      48App    2.958990    64Ap     2.963321    49App    2.965468
      65Ap     3.034006    66Ap     3.070168    50App    3.072350
      51App    3.084428    67Ap     3.168212    52App    3.169384
      68Ap     3.180579    53App    3.284556    69Ap     3.286041
      70Ap     3.326562    54App    3.327794    71Ap     3.375664
      72Ap     3.489805    55App    3.490333    56App    3.514088
      73Ap     3.525340    74Ap     3.567589    57App    3.568611
      58App    3.575783    75Ap     3.666073    59App    3.666688
      76Ap     3.679629    60App    3.693249    77Ap     3.695050
      78Ap     3.776264    61App    3.777239    79Ap     3.789265
      80Ap     3.911067    62App    3.913410    81Ap     4.034472
      82Ap     4.111273    63App    4.111483    83Ap     4.147296
      64App    4.148887    84Ap     4.173257    85Ap     4.201411
      86Ap     4.202749    65App    4.204496    66App    4.211069
      67App    4.315156    87Ap     4.316741    68App    4.358984
      88Ap     4.424077    69App    4.424792    70App    4.443552
      89Ap     4.516419    71App    4.517303    90Ap     4.577549
      72App    4.579042    91Ap     4.617491    92Ap     4.709440
      93Ap     4.772252    73App    4.776953    74App    4.836903
      94Ap     4.962859    95Ap     5.002328    75App    5.003580
      96Ap     5.228006    97Ap     5.246510    76App    5.247122
      77App    5.355482    98Ap     5.355515    78App    5.479339

    Beta Occupied:

       1Ap   -10.167903     1App  -10.167719     2Ap   -10.167702
       3Ap   -10.166520     4Ap    -0.781094     5Ap    -0.684329
       2App   -0.683649     6Ap    -0.511748     7Ap    -0.431384
       3App   -0.430708     8Ap    -0.421816     9Ap    -0.376870
       4App   -0.376497     5App   -0.362590    10Ap    -0.333463
       6App   -0.332783

    Beta Virtual:

      11Ap    -0.025743    12Ap     0.077081    13Ap     0.134819
       7App    0.135273    14Ap     0.144304     8App    0.144693
      15Ap     0.163340    16Ap     0.182195     9App    0.182703
      10App    0.215045    17Ap     0.218927    11App    0.282255
      18Ap     0.282411    19Ap     0.400321    12App    0.400484
      20Ap     0.419777    21Ap     0.426718    13App    0.427118
      22Ap     0.468503    23Ap     0.497187    14App    0.498102
      15App    0.513916    24Ap     0.556329    16App    0.584287
      25Ap     0.584412    17App    0.597581    26Ap     0.598051
      27Ap     0.610002    28Ap     0.628149    18App    0.631931
      19App    0.639237    29Ap     0.639828    30Ap     0.666697
      20App    0.667252    31Ap     0.686241    21App    0.686739
      32Ap     0.757515    33Ap     0.829498    22App    0.831635
      23App    0.855266    34Ap     0.922808    24App    0.923147
      25App    0.945897    35Ap     0.953376    36Ap     0.966482
      26App    0.967025    37Ap     1.008715    38Ap     1.130684
      27App    1.133625    39Ap     1.155592    40Ap     1.167793
      28App    1.168887    41Ap     1.232293    42Ap     1.279713
      29App    1.280483    43Ap     1.285126    30App    1.329220
      44Ap     1.329445    45Ap     1.365415    46Ap     1.370608
      31App    1.371909    32App    1.393547    47Ap     1.407103
      33App    1.407982    48Ap     1.422076    34App    1.422260
      35App    1.428190    36App    1.492482    49Ap     1.509514
      50Ap     1.546486    37App    1.548013    51Ap     1.580611
      38App    1.584131    52Ap     1.674660    53Ap     1.744465
      39App    1.745856    54Ap     1.779145    55Ap     1.835210
      40App    1.835297    41App    1.972606    56Ap     2.023845
      42App    2.027007    57Ap     2.039678    58Ap     2.057771
      43App    2.061046    59Ap     2.746252    44App    2.747395
      45App    2.811844    60Ap     2.816056    46App    2.902375
      61Ap     2.902904    62Ap     2.924649    63Ap     2.931900
      47App    2.932056    48App    2.960057    64Ap     2.967916
      49App    2.969958    65Ap     3.041941    66Ap     3.079980
      50App    3.082172    51App    3.086440    67Ap     3.184109
      52App    3.184981    68Ap     3.188257    53App    3.289397
      69Ap     3.290799    70Ap     3.330344    54App    3.331625
      71Ap     3.383482    72Ap     3.492527    55App    3.493052
      56App    3.512474    73Ap     3.528385    57App    3.574458
      74Ap     3.580966    58App    3.583094    75Ap     3.671035
      59App    3.671231    76Ap     3.692942    60App    3.725240
      77Ap     3.726300    78Ap     3.780933    61App    3.781698
      79Ap     3.817727    80Ap     3.920867    62App    3.923245
      81Ap     4.045361    82Ap     4.117982    63App    4.118402
      83Ap     4.154592    64App    4.156015    84Ap     4.187313
      85Ap     4.207391    65App    4.210370    86Ap     4.210667
      66App    4.215612    67App    4.322551    87Ap     4.324222
      68App    4.362349    88Ap     4.432366    69App    4.432916
      70App    4.446457    89Ap     4.524297    71App    4.525000
      90Ap     4.588066    72App    4.589726    91Ap     4.624684
      92Ap     4.719788    93Ap     4.779211    73App    4.783900
      74App    4.839820    94Ap     4.967654    95Ap     5.006377
      75App    5.007608    96Ap     5.233717    97Ap     5.248297
      76App    5.248910    77App    5.361959    98Ap     5.361999
      78App    5.481660

    Final Occupation by Irrep:
             Ap   App
    DOCC [    10,    6 ]
    SOCC [     1,    0 ]

  @DF-UKS Final Energy:  -157.81306505300151

   => Energetics <=

    Nuclear Repulsion Energy =            125.3948662089651833
    One-Electron Energy =                -458.7493825712192574
    Two-Electron Energy =                 195.8485956108834500
    DFT Exchange-Correlation Energy =     -20.3071443016308955
    Empirical Dispersion Energy =           0.0000000000000000
    VV10 Nonlocal Energy =                  0.0000000000000000
    Total Energy =                       -157.8130650530015089

  UHF NO Occupations:
  HONO-2 :    9 Ap 1.9996009
  HONO-1 :   10 Ap 1.9989804
  HONO-0 :   11 Ap 1.0000000
  LUNO+0 :   12 Ap 0.0010196
  LUNO+1 :   13 Ap 0.0003991
  LUNO+2 :    7App 0.0001982
  LUNO+3 :   14 Ap 0.0001969

Computation Completed

Properties will be evaluated at   0.000000,   0.000000,   0.000000 [a0]

Properties computed using the SCF density matrix

  Nuclear Dipole Moment: [e a0]
     X:     0.8272      Y:    -0.0135      Z:     0.0000

  Electronic Dipole Moment: [e a0]
     X:    -0.7493      Y:     0.0143      Z:     0.0000

  Dipole Moment: [e a0]
     X:     0.0779      Y:     0.0008      Z:     0.0000     Total:     0.0779

  Dipole Moment: [D]
     X:     0.1980      Y:     0.0020      Z:     0.0000     Total:     0.1981

*** tstop() called on n079 at Fri Nov  5 15:34:07 2021
Module time:
	user time   =     493.58 seconds =       8.23 minutes
	system time =       4.58 seconds =       0.08 minutes
	total time  =        125 seconds =       2.08 minutes
Total time:
	user time   =     493.58 seconds =       8.23 minutes
	system time =       4.58 seconds =       0.08 minutes
	total time  =        125 seconds =       2.08 minutes
Grab this energy -157.8130650530015
    Psi4 stopped on: Friday, 05 November 2021 03:34PM
    Psi4 wall time for execution: 0:02:05.30

*** Psi4 exiting successfully. Buy a developer a beer!
