                               Psi4 1.4a2.dev629

  ==> Input File <==

--------------------------------------------------------------------------
import os
memory 14 GB

molecule {
 C   -0.3233397616    0.0004307644    0.0002251127
 C    0.0611310766   -1.4010536152   -2.4286093656
 C    0.0613298309    2.8016531747    0.0004833482
 C    0.0608410421   -1.3986716504    2.4254471837
 H    2.0874624143   -1.6410961733   -2.8484857802
 H   -0.7628859521   -0.3896145106   -4.0231932043
 H   -0.7686624146   -3.2936125027   -2.3483886815
 H    2.0858874223    3.2881130826   -0.0001841870
 H   -0.7653592590    3.6801178782    1.6773248590
 H   -0.7652360896    3.6800940986   -1.6775092872
 H    2.0873222403   -1.6418514155    2.8494187625
 H   -0.7683755852   -3.2940322358    2.3494626985
 H   -0.7627228410   -0.3905012086    4.0240085411
units bohr
0 2
}

basis {

assign 6-31g_2dfp_

[ 6-31g_2dfp_ ]

spherical

!----------------------------------------------------------------------
! Basis Set Exchange
! Version v0.8.13
! https://www.basissetexchange.org
!----------------------------------------------------------------------
!   Basis set: 6-31G(2df,p)
! Description: 6-31G(2df,p)
!        Role: orbital
!     Version: 0  (Data from the original Basis Set Exchange)
!----------------------------------------------------------------------

****
H     0
S    3   1.00
     18.7311370              0.03349460
      2.8253937              0.23472695
      0.6401217              0.81375733
S    1   1.00
      0.1612778              1.00000000
P    1   1.00
      1.5000000              1.0000000
P    1   1.00
      0.3750000              1.0000000
****
B     0
S    6   1.00
   2068.8823000              0.0018663
    310.6495700              0.0142515
     70.6830330              0.0695516
     19.8610800              0.2325729
      6.2993048              0.4670787
      2.1270270              0.3634314
SP   3   1.00
      4.7279710             -0.1303938              0.0745976
      1.1903377             -0.1307889              0.3078467
      0.3594117              1.1309444              0.7434568
SP   1   1.00
      0.1267512              1.0000000              1.0000000
D    1   1.00
      0.8020000              1.0000000
D    1   1.00
      0.2005000              1.0000000
F    1   1.00
      0.5000000              1.0000000
****
C     0
S    6   1.00
   3047.5249000              0.0018347
    457.3695100              0.0140373
    103.9486900              0.0688426
     29.2101550              0.2321844
      9.2866630              0.4679413
      3.1639270              0.3623120
SP   3   1.00
      7.8682724             -0.1193324              0.0689991
      1.8812885             -0.1608542              0.3164240
      0.5442493              1.1434564              0.7443083
SP   1   1.00
      0.1687144              1.0000000              1.0000000
D    1   1.00
      1.2520000              1.0000000
D    1   1.00
      0.3130000              1.0000000
F    1   1.00
      0.8000000              1.0000000
****
N     0
S    6   1.00
   4173.5110000              0.0018348
    627.4579000              0.0139950
    142.9021000              0.0685870
     40.2343300              0.2322410
     12.8202100              0.4690700
      4.3904370              0.3604550
SP   3   1.00
     11.6263580             -0.1149610              0.0675800
      2.7162800             -0.1691180              0.3239070
      0.7722180              1.1458520              0.7408950
SP   1   1.00
      0.2120313              1.0000000              1.0000000
D    1   1.00
      1.8260000              1.0000000
D    1   1.00
      0.4565000              1.0000000
F    1   1.00
      1.0000000              1.0000000
****
O     0
S    6   1.00
   5484.6717000              0.0018311
    825.2349500              0.0139501
    188.0469600              0.0684451
     52.9645000              0.2327143
     16.8975700              0.4701930
      5.7996353              0.3585209
SP   3   1.00
     15.5396160             -0.1107775              0.0708743
      3.5999336             -0.1480263              0.3397528
      1.0137618              1.1307670              0.7271586
SP   1   1.00
      0.2700058              1.0000000              1.0000000
D    1   1.00
      2.5840000              1.0000000
D    1   1.00
      0.6460000              1.0000000
F    1   1.00
      1.4000000              1.0000000
****
F     0
S    6   1.00
   7001.7130900              0.0018196169
   1051.3660900              0.0139160796
    239.2856900              0.0684053245
     67.3974453              0.233185760
     21.5199573              0.471267439
      7.40310130             0.356618546
SP   3   1.00
     20.8479528             -0.108506975            0.0716287243
      4.80830834            -0.146451658            0.3459121030
      1.34406986             1.128688580            0.7224699570
SP   1   1.00
      0.358151393            1.0000000              1.0000000
D    1   1.00
      3.5000000              1.0000000
D    1   1.00
      0.8750000              1.0000000
F    1   1.00
      1.8500000              1.0000000
****
Al     0
S    6   1.00
  13983.1000000              0.00194267
   2098.7500000              0.0148599
    477.7050000              0.0728494
    134.3600000              0.2468300
     42.8709000              0.4872580
     14.5189000              0.3234960
SP   6   1.00
    239.6680000             -0.00292619             0.00460285
     57.4419000             -0.0374080              0.0331990
     18.2859000             -0.1144870              0.1362820
      6.5991400              0.1156350              0.3304760
      2.4904900              0.6125950              0.4491460
      0.9445400              0.3937990              0.2657040
SP   3   1.00
      1.2779000             -0.2276060             -0.0175130
      0.3975900              0.00144583             0.2445330
      0.1600950              1.0927900              0.8049340
SP   1   1.00
      0.0556577              1.0000000              1.0000000
D    1   1.00
      0.6500000              1.0000000
D    1   1.00
      0.1625000              1.0000000
F    1   1.00
      0.2500000              1.0000000
****
Si     0
S    6   1.00
  16115.9000000              0.00195948
   2425.5800000              0.01492880
    553.8670000              0.07284780
    156.3400000              0.24613000
     50.0683000              0.48591400
     17.0178000              0.32500200
SP   6   1.00
    292.7180000             -0.00278094             0.00443826
     69.8731000             -0.03571460             0.03266790
     22.3363000             -0.11498500             0.13472100
      8.1503900              0.09356340             0.32867800
      3.1345800              0.60301700             0.44964000
      1.2254300              0.41895900             0.26137200
SP   3   1.00
      1.7273800             -0.24463000            -0.01779510
      0.5729220              0.00431572             0.25353900
      0.2221920              1.09818000             0.80066900
SP   1   1.00
      0.0778369              1.00000000             1.00000000
D    1   1.00
      0.9000000              1.0000000
D    1   1.00
      0.2250000              1.0000000
F    1   1.00
      0.3200000              1.0000000
****
P     0
S    6   1.00
  19413.3000000              0.0018516
   2909.4200000              0.0142062
    661.3640000              0.0699995
    185.7590000              0.2400790
     59.1943000              0.4847620
     20.0310000              0.3352000
SP   6   1.00
    339.4780000             -0.00278217             0.00456462
     81.0101000             -0.0360499              0.03369360
     25.8780000             -0.1166310              0.13975500
      9.4522100              0.0968328              0.33936200
      3.6656600              0.6144180              0.45092100
      1.4674600              0.4037980              0.23858600
SP   3   1.00
      2.1562300             -0.2529230             -0.01776530
      0.7489970              0.0328517              0.27405800
      0.2831450              1.0812500              0.78542100
SP   1   1.00
      0.0998317              1.0000000              1.00000000
D    1   1.00
      1.1000000              1.0000000
D    1   1.00
      0.2750000              1.0000000
F    1   1.00
      0.4500000              1.0000000
****
S     0
S    6   1.00
  21917.1000000              0.0018690
   3301.4900000              0.0142300
    754.1460000              0.0696960
    212.7110000              0.2384870
     67.9896000              0.4833070
     23.0515000              0.3380740
SP   6   1.00
    423.7350000             -0.0023767              0.0040610
    100.7100000             -0.0316930              0.0306810
     32.1599000             -0.1133170              0.1304520
     11.8079000              0.0560900              0.3272050
      4.6311000              0.5922550              0.4528510
      1.8702500              0.4550060              0.2560420
SP   3   1.00
      2.6158400             -0.2503740             -0.0145110
      0.9221670              0.0669570              0.3102630
      0.3412870              1.0545100              0.7544830
SP   1   1.00
      0.1171670              1.0000000              1.0000000
D    1   1.00
      1.3000000              1.0000000
D    1   1.00
      0.3250000              1.0000000
F    1   1.00
      0.5500000              1.0000000
****
Cl     0
S    6   1.00
  25180.1000000              0.0018330
   3780.3500000              0.0140340
    860.4740000              0.0690970
    242.1450000              0.2374520
     77.3349000              0.4830340
     26.2470000              0.3398560
SP   6   1.00
    491.7650000             -0.0022974              0.0039894
    116.9840000             -0.0307140              0.0303180
     37.4153000             -0.1125280              0.1298800
     13.7834000              0.0450160              0.3279510
      5.4521500              0.5893530              0.4535270
      2.2258800              0.4652060              0.2521540
SP   3   1.00
      3.1864900             -0.2518300             -0.0142990
      1.1442700              0.0615890              0.3235720
      0.4203770              1.0601800              0.7435070
SP   1   1.00
      0.1426570              1.0000000              1.0000000
D    1   1.00
      1.5000000              1.0000000
D    1   1.00
      0.3750000              1.0000000
F    1   1.00
      0.7000000              1.0000000
****
}

set {
reference uhf
freeze_core true
e_convergence 10
d_convergence 10
dft_spherical_points 1202
dft_radial_points 99
}

e = energy('b3lyp')

print_out('Grab this energy {0}'.format(e))
--------------------------------------------------------------------------

    Molecular point group: c1

    Geometry (in Bohr), charge = 0, multiplicity = 2:

       Center              X                  Y                   Z               Mass
    ------------   -----------------  -----------------  -----------------  -----------------
         C           -0.323340180107    -0.000023103743     0.000697717040    12.000000000000
         C            0.061130658093    -1.401507483343    -2.428136761260    12.000000000000
         C            0.061329412393     2.801199306557     0.000955952540    12.000000000000
         C            0.060840623593    -1.399125518543     2.425919788040    12.000000000000
         H            2.087461995793    -1.641550041443    -2.848013175860     1.007825032230
         H           -0.762886370607    -0.390068378743    -4.022720599960     1.007825032230
         H           -0.768662833107    -3.294066370843    -2.347916077160     1.007825032230
         H            2.085887003793     3.287659214457     0.000288417340     1.007825032230
         H           -0.765359677507     3.679664010057     1.677797463340     1.007825032230
         H           -0.765236508107     3.679640230457    -1.677036682860     1.007825032230
         H            2.087321821793    -1.642305283643     2.849891366840     1.007825032230
         H           -0.768376003707    -3.294486103943     2.349935302840     1.007825032230
         H           -0.762723259507    -0.390955076743     4.024481145440     1.007825032230

  Charge       = 0
  Multiplicity = 2
  Basis Set: ANONYMOUSFFD6BD76
    Blend: 6-31G_2DFP_
  Basis Set: (ANONYMOUSFFD6BD76 AUX)
    Blend: DEF2-UNIVERSAL-JKFIT

    Orbital Energies [Eh]
    ---------------------

    Alpha Occupied:

       1A    -10.180342     2A    -10.167055     3A    -10.167023
       4A    -10.166966     5A     -0.797767     6A     -0.686253
       7A     -0.686123     8A     -0.530779     9A     -0.441126
      10A     -0.434872    11A     -0.434467    12A     -0.382692
      13A     -0.382506    14A     -0.363613    15A     -0.338260
      16A     -0.337735    17A     -0.168961

    Alpha Virtual:

      18A      0.076070    19A      0.134038    20A      0.134268
      21A      0.142414    22A      0.142842    23A      0.154883
      24A      0.178653    25A      0.178903    26A      0.203545
      27A      0.214804    28A      0.275736    29A      0.276237
      30A      0.398978    31A      0.399475    32A      0.403347
      33A      0.423929    34A      0.424265    35A      0.456593
      36A      0.495335    37A      0.495444    38A      0.512161
      39A      0.513980    40A      0.578748    41A      0.578881
      42A      0.591479    43A      0.591789    44A      0.602573
      45A      0.624717    46A      0.631765    47A      0.635930
      48A      0.636620    49A      0.663193    50A      0.663631
      51A      0.683656    52A      0.684065    53A      0.734994
      54A      0.825148    55A      0.825666    56A      0.853915
      57A      0.914813    58A      0.915238    59A      0.944125
      60A      0.944607    61A      0.961212    62A      0.961376
      63A      1.003454    64A      1.127814    65A      1.128405
      66A      1.142228    67A      1.162973    68A      1.163566
      69A      1.223322    70A      1.274080    71A      1.274883
      72A      1.279373    73A      1.324133    74A      1.324572
      75A      1.355988    76A      1.365714    77A      1.366399
      78A      1.392442    79A      1.403864    80A      1.404225
      81A      1.416389    82A      1.417832    83A      1.427913
      84A      1.491495    85A      1.499072    86A      1.542763
      87A      1.542907    88A      1.574171    89A      1.574725
      90A      1.669828    91A      1.738705    92A      1.740128
      93A      1.768321    94A      1.830477    95A      1.832304
      96A      1.971756    97A      2.017851    98A      2.018283
      99A      2.020248   100A      2.051778   101A      2.053528
     102A      2.738266   103A      2.738702   104A      2.790924
     105A      2.811426   106A      2.889780   107A      2.890120
     108A      2.894946   109A      2.929433   110A      2.929561
     111A      2.958960   112A      2.964317   113A      2.964475
     114A      3.034009   115A      3.070737   116A      3.071766
     117A      3.084440   118A      3.168304   119A      3.169238
     120A      3.180608   121A      3.285151   122A      3.285471
     123A      3.326740   124A      3.327581   125A      3.375624
     126A      3.489733   127A      3.490583   128A      3.514018
     129A      3.525329   130A      3.567959   131A      3.568827
     132A      3.575120   133A      3.665544   134A      3.667235
     135A      3.679652   136A      3.693889   137A      3.694392
     138A      3.776589   139A      3.776993   140A      3.789130
     141A      3.911276   142A      3.913174   143A      4.034442
     144A      4.110781   145A      4.111890   146A      4.147643
     147A      4.148519   148A      4.173345   149A      4.202116
     150A      4.202623   151A      4.203979   152A      4.210999
     153A      4.314986   154A      4.316925   155A      4.358980
     156A      4.423334   157A      4.425492   158A      4.443548
     159A      4.515608   160A      4.518072   161A      4.578234
     162A      4.578299   163A      4.617553   164A      4.709430
     165A      4.773555   166A      4.775625   167A      4.836929
     168A      4.962830   169A      5.002192   170A      5.003769
     171A      5.227580   172A      5.246788   173A      5.247245
     174A      5.354238   175A      5.356799   176A      5.479412

    Beta Occupied:

       1A    -10.167813     2A    -10.167782     3A    -10.167729
       4A    -10.166519     5A     -0.781092     6A     -0.684059
       7A     -0.683922     8A     -0.511750     9A     -0.431246
      10A     -0.430838    11A     -0.421820    12A     -0.376796
      13A     -0.376573    14A     -0.362597    15A     -0.333382
      16A     -0.332860

    Beta Virtual:

      17A     -0.025743    18A      0.077079    19A      0.134905
      20A      0.135182    21A      0.144261    22A      0.144736
      23A      0.163340    24A      0.182333    25A      0.182566
      26A      0.215033    27A      0.218928    28A      0.282092
      29A      0.282577    30A      0.400144    31A      0.400650
      32A      0.419791    33A      0.426740    34A      0.427076
      35A      0.468501    36A      0.497588    37A      0.497713
      38A      0.513896    39A      0.556325    40A      0.584296
      41A      0.584434    42A      0.597637    43A      0.597987
      44A      0.609998    45A      0.628094    46A      0.631925
      47A      0.639234    48A      0.639883    49A      0.666770
      50A      0.667182    51A      0.686314    52A      0.686677
      53A      0.757517    54A      0.830327    55A      0.830824
      56A      0.855268    57A      0.922805    58A      0.923189
      59A      0.945961    60A      0.953533    61A      0.966504
      62A      0.966699    63A      1.008694    64A      1.131849
      65A      1.132432    66A      1.155599    67A      1.168029
      68A      1.168659    69A      1.232295    70A      1.279662
      71A      1.280494    72A      1.285127    73A      1.329127
      74A      1.329555    75A      1.365403    76A      1.371026
      77A      1.371573    78A      1.393503    79A      1.407371
      80A      1.407648    81A      1.421489    82A      1.422827
      83A      1.428187    84A      1.492545    85A      1.509515
      86A      1.547152    87A      1.547336    88A      1.582035
      89A      1.582601    90A      1.674675    91A      1.744451
      92A      1.745908    93A      1.779099    94A      1.834335
      95A      1.836157    96A      1.972617    97A      2.024671
      98A      2.026188    99A      2.039683   100A      2.058484
     101A      2.060270   102A      2.746603   103A      2.747037
     104A      2.811838   105A      2.816059   106A      2.902441
     107A      2.902841   108A      2.924646   109A      2.931925
     110A      2.932034   111A      2.960036   112A      2.968833
     113A      2.969035   114A      3.041944   115A      3.080649
     116A      3.081524   117A      3.086409   118A      3.184024
     119A      3.184967   120A      3.188341   121A      3.289939
     122A      3.290281   123A      3.330516   124A      3.331413
     125A      3.383442   126A      3.492454   127A      3.493323
     128A      3.512383   129A      3.528375   130A      3.574976
     131A      3.581222   132A      3.582248   133A      3.670335
     134A      3.671942   135A      3.692958   136A      3.725636
     137A      3.725894   138A      3.781063   139A      3.781575
     140A      3.817670   141A      3.921087   142A      3.922995
     143A      4.045330   144A      4.117366   145A      4.118940
     146A      4.154705   147A      4.155893   148A      4.187378
     149A      4.208124   150A      4.209637   151A      4.210784
     152A      4.215493   153A      4.322433   154A      4.324361
     155A      4.362343   156A      4.431566   157A      4.433658
     158A      4.446465   159A      4.523394   160A      4.525863
     161A      4.588805   162A      4.588931   163A      4.624747
     164A      4.719774   165A      4.780539   166A      4.782547
     167A      4.839847   168A      4.967625   169A      5.006245
     170A      5.007794   171A      5.233189   172A      5.248589
     173A      5.249124   174A      5.360725   175A      5.363268
     176A      5.481734

    Final Occupation by Irrep:
              A
    DOCC [    16 ]
    SOCC [     1 ]

  @DF-UKS Final Energy:  -157.81305888398728

   => Energetics <=

    Nuclear Repulsion Energy =            125.3946377417085927
    One-Electron Energy =                -458.7489068586265830
    Two-Electron Energy =                 195.8483565487175611
    DFT Exchange-Correlation Energy =     -20.3071463157868557
    Empirical Dispersion Energy =           0.0000000000000000
    VV10 Nonlocal Energy =                  0.0000000000000000
    Total Energy =                       -157.8130588839872814

  UHF NO Occupations:
  HONO-2 :   15  A 1.9996009
  HONO-1 :   16  A 1.9989805
  HONO-0 :   17  A 1.0000000
  LUNO+0 :   18  A 0.0010195
  LUNO+1 :   19  A 0.0003991
  LUNO+2 :   20  A 0.0001979
  LUNO+3 :   21  A 0.0001972

Computation Completed

Properties will be evaluated at   0.000000,   0.000000,   0.000000 [a0]

Properties computed using the SCF density matrix

  Nuclear Dipole Moment: [e a0]
     X:     0.8272      Y:    -0.0032      Z:     0.0033

  Electronic Dipole Moment: [e a0]
     X:    -0.7493      Y:     0.0050      Z:    -0.0034

  Dipole Moment: [e a0]
     X:     0.0779      Y:     0.0017      Z:    -0.0001     Total:     0.0779

  Dipole Moment: [D]
     X:     0.1980      Y:     0.0044      Z:    -0.0002     Total:     0.1981

*** tstop() called on n031 at Fri Nov  5 13:10:05 2021
Module time:
	user time   =     594.32 seconds =       9.91 minutes
	system time =      11.37 seconds =       0.19 minutes
	total time  =        152 seconds =       2.53 minutes
Total time:
	user time   =     594.32 seconds =       9.91 minutes
	system time =      11.37 seconds =       0.19 minutes
	total time  =        152 seconds =       2.53 minutes
Grab this energy -157.81305888398728
    Psi4 stopped on: Friday, 05 November 2021 01:10PM
    Psi4 wall time for execution: 0:02:32.37

*** Psi4 exiting successfully. Buy a developer a beer!
