                               Psi4 1.4a2.dev629

  ==> Input File <==

--------------------------------------------------------------------------
import os
memory 14 GB

molecule {
 C   -0.3233403912   -0.0000020507    0.0000000000
 C    0.0611400680   -1.4008776849   -2.4263808877
 C    0.0610202700    2.8017596499    0.0000000000
 C    0.0611400680   -1.4008776849    2.4263808877
 H    2.0869379211   -1.6440977974   -2.8474410583
 H   -0.7654057221   -0.3882210951   -4.0254820273
 H   -0.7655689532   -3.2920001623   -2.3489877720
 H    2.0867990009    3.2881031076    0.0000000000
 H   -0.7656466920    3.6802542295    1.6765005886
 H   -0.7656466920    3.6802542295   -1.6765005886
 H    2.0869379211   -1.6440977974    2.8474410583
 H   -0.7655689532   -3.2920001623    2.3489877720
 H   -0.7654057221   -0.3882210951    4.0254820273
units bohr
0 2
}

basis {

assign 6-31g_2dfp_

[ 6-31g_2dfp_ ]

spherical

!----------------------------------------------------------------------
! Basis Set Exchange
! Version v0.8.13
! https://www.basissetexchange.org
!----------------------------------------------------------------------
!   Basis set: 6-31G(2df,p)
! Description: 6-31G(2df,p)
!        Role: orbital
!     Version: 0  (Data from the original Basis Set Exchange)
!----------------------------------------------------------------------

****
H     0
S    3   1.00
     18.7311370              0.03349460
      2.8253937              0.23472695
      0.6401217              0.81375733
S    1   1.00
      0.1612778              1.00000000
P    1   1.00
      1.5000000              1.0000000
P    1   1.00
      0.3750000              1.0000000
****
B     0
S    6   1.00
   2068.8823000              0.0018663
    310.6495700              0.0142515
     70.6830330              0.0695516
     19.8610800              0.2325729
      6.2993048              0.4670787
      2.1270270              0.3634314
SP   3   1.00
      4.7279710             -0.1303938              0.0745976
      1.1903377             -0.1307889              0.3078467
      0.3594117              1.1309444              0.7434568
SP   1   1.00
      0.1267512              1.0000000              1.0000000
D    1   1.00
      0.8020000              1.0000000
D    1   1.00
      0.2005000              1.0000000
F    1   1.00
      0.5000000              1.0000000
****
C     0
S    6   1.00
   3047.5249000              0.0018347
    457.3695100              0.0140373
    103.9486900              0.0688426
     29.2101550              0.2321844
      9.2866630              0.4679413
      3.1639270              0.3623120
SP   3   1.00
      7.8682724             -0.1193324              0.0689991
      1.8812885             -0.1608542              0.3164240
      0.5442493              1.1434564              0.7443083
SP   1   1.00
      0.1687144              1.0000000              1.0000000
D    1   1.00
      1.2520000              1.0000000
D    1   1.00
      0.3130000              1.0000000
F    1   1.00
      0.8000000              1.0000000
****
N     0
S    6   1.00
   4173.5110000              0.0018348
    627.4579000              0.0139950
    142.9021000              0.0685870
     40.2343300              0.2322410
     12.8202100              0.4690700
      4.3904370              0.3604550
SP   3   1.00
     11.6263580             -0.1149610              0.0675800
      2.7162800             -0.1691180              0.3239070
      0.7722180              1.1458520              0.7408950
SP   1   1.00
      0.2120313              1.0000000              1.0000000
D    1   1.00
      1.8260000              1.0000000
D    1   1.00
      0.4565000              1.0000000
F    1   1.00
      1.0000000              1.0000000
****
O     0
S    6   1.00
   5484.6717000              0.0018311
    825.2349500              0.0139501
    188.0469600              0.0684451
     52.9645000              0.2327143
     16.8975700              0.4701930
      5.7996353              0.3585209
SP   3   1.00
     15.5396160             -0.1107775              0.0708743
      3.5999336             -0.1480263              0.3397528
      1.0137618              1.1307670              0.7271586
SP   1   1.00
      0.2700058              1.0000000              1.0000000
D    1   1.00
      2.5840000              1.0000000
D    1   1.00
      0.6460000              1.0000000
F    1   1.00
      1.4000000              1.0000000
****
F     0
S    6   1.00
   7001.7130900              0.0018196169
   1051.3660900              0.0139160796
    239.2856900              0.0684053245
     67.3974453              0.233185760
     21.5199573              0.471267439
      7.40310130             0.356618546
SP   3   1.00
     20.8479528             -0.108506975            0.0716287243
      4.80830834            -0.146451658            0.3459121030
      1.34406986             1.128688580            0.7224699570
SP   1   1.00
      0.358151393            1.0000000              1.0000000
D    1   1.00
      3.5000000              1.0000000
D    1   1.00
      0.8750000              1.0000000
F    1   1.00
      1.8500000              1.0000000
****
Al     0
S    6   1.00
  13983.1000000              0.00194267
   2098.7500000              0.0148599
    477.7050000              0.0728494
    134.3600000              0.2468300
     42.8709000              0.4872580
     14.5189000              0.3234960
SP   6   1.00
    239.6680000             -0.00292619             0.00460285
     57.4419000             -0.0374080              0.0331990
     18.2859000             -0.1144870              0.1362820
      6.5991400              0.1156350              0.3304760
      2.4904900              0.6125950              0.4491460
      0.9445400              0.3937990              0.2657040
SP   3   1.00
      1.2779000             -0.2276060             -0.0175130
      0.3975900              0.00144583             0.2445330
      0.1600950              1.0927900              0.8049340
SP   1   1.00
      0.0556577              1.0000000              1.0000000
D    1   1.00
      0.6500000              1.0000000
D    1   1.00
      0.1625000              1.0000000
F    1   1.00
      0.2500000              1.0000000
****
Si     0
S    6   1.00
  16115.9000000              0.00195948
   2425.5800000              0.01492880
    553.8670000              0.07284780
    156.3400000              0.24613000
     50.0683000              0.48591400
     17.0178000              0.32500200
SP   6   1.00
    292.7180000             -0.00278094             0.00443826
     69.8731000             -0.03571460             0.03266790
     22.3363000             -0.11498500             0.13472100
      8.1503900              0.09356340             0.32867800
      3.1345800              0.60301700             0.44964000
      1.2254300              0.41895900             0.26137200
SP   3   1.00
      1.7273800             -0.24463000            -0.01779510
      0.5729220              0.00431572             0.25353900
      0.2221920              1.09818000             0.80066900
SP   1   1.00
      0.0778369              1.00000000             1.00000000
D    1   1.00
      0.9000000              1.0000000
D    1   1.00
      0.2250000              1.0000000
F    1   1.00
      0.3200000              1.0000000
****
P     0
S    6   1.00
  19413.3000000              0.0018516
   2909.4200000              0.0142062
    661.3640000              0.0699995
    185.7590000              0.2400790
     59.1943000              0.4847620
     20.0310000              0.3352000
SP   6   1.00
    339.4780000             -0.00278217             0.00456462
     81.0101000             -0.0360499              0.03369360
     25.8780000             -0.1166310              0.13975500
      9.4522100              0.0968328              0.33936200
      3.6656600              0.6144180              0.45092100
      1.4674600              0.4037980              0.23858600
SP   3   1.00
      2.1562300             -0.2529230             -0.01776530
      0.7489970              0.0328517              0.27405800
      0.2831450              1.0812500              0.78542100
SP   1   1.00
      0.0998317              1.0000000              1.00000000
D    1   1.00
      1.1000000              1.0000000
D    1   1.00
      0.2750000              1.0000000
F    1   1.00
      0.4500000              1.0000000
****
S     0
S    6   1.00
  21917.1000000              0.0018690
   3301.4900000              0.0142300
    754.1460000              0.0696960
    212.7110000              0.2384870
     67.9896000              0.4833070
     23.0515000              0.3380740
SP   6   1.00
    423.7350000             -0.0023767              0.0040610
    100.7100000             -0.0316930              0.0306810
     32.1599000             -0.1133170              0.1304520
     11.8079000              0.0560900              0.3272050
      4.6311000              0.5922550              0.4528510
      1.8702500              0.4550060              0.2560420
SP   3   1.00
      2.6158400             -0.2503740             -0.0145110
      0.9221670              0.0669570              0.3102630
      0.3412870              1.0545100              0.7544830
SP   1   1.00
      0.1171670              1.0000000              1.0000000
D    1   1.00
      1.3000000              1.0000000
D    1   1.00
      0.3250000              1.0000000
F    1   1.00
      0.5500000              1.0000000
****
Cl     0
S    6   1.00
  25180.1000000              0.0018330
   3780.3500000              0.0140340
    860.4740000              0.0690970
    242.1450000              0.2374520
     77.3349000              0.4830340
     26.2470000              0.3398560
SP   6   1.00
    491.7650000             -0.0022974              0.0039894
    116.9840000             -0.0307140              0.0303180
     37.4153000             -0.1125280              0.1298800
     13.7834000              0.0450160              0.3279510
      5.4521500              0.5893530              0.4535270
      2.2258800              0.4652060              0.2521540
SP   3   1.00
      3.1864900             -0.2518300             -0.0142990
      1.1442700              0.0615890              0.3235720
      0.4203770              1.0601800              0.7435070
SP   1   1.00
      0.1426570              1.0000000              1.0000000
D    1   1.00
      1.5000000              1.0000000
D    1   1.00
      0.3750000              1.0000000
F    1   1.00
      0.7000000              1.0000000
****
}

set {
reference uhf
freeze_core true
e_convergence 10
d_convergence 10
dft_spherical_points 1202
dft_radial_points 99
}

e = energy('b3lyp')

print_out('Grab this energy {0}'.format(e))
--------------------------------------------------------------------------

    Molecular point group: cs

    Geometry (in Bohr), charge = 0, multiplicity = 2:

       Center              X                  Y                   Z               Mass
    ------------   -----------------  -----------------  -----------------  -----------------
         C           -0.323340391131    -0.000002050737     0.000000000000    12.000000000000
         C            0.061140068069    -1.400877684937    -2.426380887700    12.000000000000
         C            0.061020270069     2.801759649863     0.000000000000    12.000000000000
         C            0.061140068069    -1.400877684937     2.426380887700    12.000000000000
         H            2.086937921169    -1.644097797437    -2.847441058300     1.007825032230
         H           -0.765405722031    -0.388221095137    -4.025482027300     1.007825032230
         H           -0.765568953131    -3.292000162337    -2.348987772000     1.007825032230
         H            2.086799000969     3.288103107563     0.000000000000     1.007825032230
         H           -0.765646691931     3.680254229463     1.676500588600     1.007825032230
         H           -0.765646691931     3.680254229463    -1.676500588600     1.007825032230
         H            2.086937921169    -1.644097797437     2.847441058300     1.007825032230
         H           -0.765568953131    -3.292000162337     2.348987772000     1.007825032230
         H           -0.765405722031    -0.388221095137     4.025482027300     1.007825032230

  Charge       = 0
  Multiplicity = 2
  Basis Set: ANONYMOUSD9CC1C79
    Blend: 6-31G_2DFP_
  Basis Set: (ANONYMOUSD9CC1C79 AUX)
    Blend: DEF2-UNIVERSAL-JKFIT

    Orbital Energies [Eh]
    ---------------------

    Alpha Occupied:

       1Ap   -10.180342     2Ap   -10.167030     1App  -10.167030
       3Ap   -10.166984     4Ap    -0.797765     5Ap    -0.686187
       2App   -0.686186     6Ap    -0.530775     7Ap    -0.441123
       3App   -0.434671     8Ap    -0.434670     9Ap    -0.382600
       4App   -0.382598     5App   -0.363611     6App   -0.338000
      10Ap    -0.337999    11Ap    -0.168961

    Alpha Virtual:

      12Ap     0.076073    13Ap     0.134156     7App    0.134157
      14Ap     0.142628     8App    0.142629    15Ap     0.154879
      16Ap     0.178778     9App    0.178778    17Ap     0.203547
      10App    0.214802    11App    0.275984    18Ap     0.275986
      19Ap     0.399227    12App    0.399231    20Ap     0.403343
      13App    0.424097    21Ap     0.424097    22Ap     0.456593
      23Ap     0.495389    14App    0.495390    15App    0.512160
      24Ap     0.513979    25Ap     0.578814    16App    0.578822
      17App    0.591633    26Ap     0.591634    27Ap     0.602570
      28Ap     0.624763    18App    0.631776    19App    0.636243
      29Ap     0.636247    30Ap     0.663411    20App    0.663412
      31Ap     0.683851    21App    0.683852    32Ap     0.734994
      22App    0.825406    33Ap     0.825409    23App    0.853916
      24App    0.915023    34Ap     0.915029    25App    0.944126
      35Ap     0.944615    26App    0.961284    36Ap     0.961300
      37Ap     1.003454    38Ap     1.128106    27App    1.128118
      39Ap     1.142220    40Ap     1.163262    28App    1.163275
      41Ap     1.223324    42Ap     1.274491    29App    1.274494
      43Ap     1.279352    30App    1.324357    44Ap     1.324360
      45Ap     1.355994    31App    1.366054    46Ap     1.366058
      32App    1.392459    47Ap     1.404052    33App    1.404054
      34App    1.417101    48Ap     1.417107    35App    1.427907
      36App    1.491494    49Ap     1.499077    37App    1.542826
      50Ap     1.542828    51Ap     1.574443    38App    1.574446
      52Ap     1.669824    53Ap     1.739413    39App    1.739425
      54Ap     1.768313    40App    1.831394    55Ap     1.831395
      41App    1.971725    56Ap     2.018298    57Ap     2.019042
      42App    2.019046    58Ap     2.052633    43App    2.052634
      44App    2.738485    59Ap     2.738486    60Ap     2.790922
      45App    2.811426    61Ap     2.889953    46App    2.889959
      62Ap     2.894939    63Ap     2.929489    47App    2.929498
      48App    2.958994    64Ap     2.964366    49App    2.964380
      65Ap     3.034008    50App    3.071278    66Ap     3.071291
      51App    3.084349    67Ap     3.168779    52App    3.168786
      68Ap     3.180582    53App    3.285314    69Ap     3.285315
      70Ap     3.327157    54App    3.327163    71Ap     3.375619
      55App    3.490155    72Ap     3.490175    56App    3.514016
      73Ap     3.525331    57App    3.568381    74Ap     3.568402
      58App    3.575139    75Ap     3.666390    59App    3.666399
      76Ap     3.679649    60App    3.694111    77Ap     3.694127
      78Ap     3.776789    61App    3.776814    79Ap     3.789115
      80Ap     3.912218    62App    3.912224    81Ap     4.034458
      82Ap     4.111374    63App    4.111378    83Ap     4.148122
      64App    4.148130    84Ap     4.173242    85Ap     4.202649
      65App    4.203070    86Ap     4.203073    66App    4.210845
      87Ap     4.315951    67App    4.315971    68App    4.358975
      88Ap     4.424456    69App    4.424459    70App    4.443427
      71App    4.516836    89Ap     4.516837    72App    4.578268
      90Ap     4.578280    91Ap     4.617529    92Ap     4.709449
      93Ap     4.774582    73App    4.774589    74App    4.836896
      94Ap     4.962863    75App    5.002942    95Ap     5.002954
      96Ap     5.228040    76App    5.246806    97Ap     5.246806
      98Ap     5.355494    77App    5.355507    78App    5.479348

    Beta Occupied:

       1Ap   -10.167783     1App  -10.167783     2Ap   -10.167758
       3Ap   -10.166519     4Ap    -0.781090     5Ap    -0.683989
       2App   -0.683989     6Ap    -0.511747     3App   -0.431042
       7Ap    -0.431041     8Ap    -0.421821     9Ap    -0.376685
       4App   -0.376683     5App   -0.362595     6App   -0.333123
      10Ap    -0.333122

    Beta Virtual:

      11Ap    -0.025742    12Ap     0.077082    13Ap     0.135046
       7App    0.135047    14Ap     0.144499     8App    0.144499
      15Ap     0.163338    16Ap     0.182449     9App    0.182450
      10App    0.215032    17Ap     0.218929    11App    0.282332
      18Ap     0.282334    19Ap     0.400396    12App    0.400400
      20Ap     0.419791    13App    0.426908    21Ap     0.426908
      22Ap     0.468501    23Ap     0.497650    14App    0.497651
      15App    0.513895    24Ap     0.556325    25Ap     0.584364
      16App    0.584372    17App    0.597813    26Ap     0.597814
      27Ap     0.609994    28Ap     0.628137    18App    0.631931
      19App    0.639530    29Ap     0.639534    30Ap     0.666975
      20App    0.666976    31Ap     0.686486    21App    0.686487
      32Ap     0.757518    22App    0.830575    33Ap     0.830577
      23App    0.855269    24App    0.922994    34Ap     0.923001
      25App    0.945962    35Ap     0.953544    26App    0.966590
      36Ap     0.966606    37Ap     1.008694    38Ap     1.132134
      27App    1.132146    39Ap     1.155600    40Ap     1.168335
      28App    1.168347    41Ap     1.232297    42Ap     1.280088
      29App    1.280091    43Ap     1.285106    30App    1.329347
      44Ap     1.329349    45Ap     1.365412    31App    1.371297
      46Ap     1.371301    32App    1.393515    47Ap     1.407518
      33App    1.407520    34App    1.422151    48Ap     1.422158
      35App    1.428175    36App    1.492542    49Ap     1.509521
      50Ap     1.547234    37App    1.547235    38App    1.582317
      51Ap     1.582317    52Ap     1.674671    53Ap     1.745175
      39App    1.745186    54Ap     1.779094    40App    1.835249
      55Ap     1.835250    41App    1.972584    56Ap     2.025446
      42App    2.025449    57Ap     2.039673    58Ap     2.059347
      43App    2.059348    44App    2.746820    59Ap     2.746821
      45App    2.811838    60Ap     2.816058    61Ap     2.902641
      46App    2.902647    62Ap     2.924651    63Ap     2.931968
      47App    2.931977    48App    2.960056    64Ap     2.968911
      49App    2.968925    65Ap     3.041943    50App    3.081189
      66Ap     3.081201    51App    3.086165    67Ap     3.184535
      52App    3.184539    68Ap     3.188255    69Ap     3.290113
      53App    3.290113    70Ap     3.330962    54App    3.330967
      71Ap     3.383437    55App    3.492885    72Ap     3.492905
      56App    3.512380    73Ap     3.528376    57App    3.575000
      58App    3.581720    74Ap     3.581742    75Ap     3.671132
      59App    3.671144    76Ap     3.692944    60App    3.725749
      77Ap     3.725764    78Ap     3.781313    61App    3.781339
      79Ap     3.817662    80Ap     3.922034    62App    3.922041
      81Ap     4.045345    82Ap     4.118190    63App    4.118192
      83Ap     4.155329    64App    4.155338    84Ap     4.187305
      65App    4.209009    85Ap     4.209012    86Ap     4.210616
      66App    4.215316    87Ap     4.323392    67App    4.323412
      68App    4.362337    88Ap     4.432673    69App    4.432676
      70App    4.446306    71App    4.524627    89Ap     4.524628
      72App    4.588870    90Ap     4.588882    91Ap     4.624721
      92Ap     4.719795    93Ap     4.781535    73App    4.781543
      74App    4.839812    94Ap     4.967658    75App    5.006981
      95Ap     5.006994    96Ap     5.233756    76App    5.248590
      97Ap     5.248590    98Ap     5.361975    77App    5.361988
      78App    5.481669

    Final Occupation by Irrep:
             Ap   App
    DOCC [    10,    6 ]
    SOCC [     1,    0 ]

  @DF-UKS Final Energy:  -157.81307451611633

   => Energetics <=

    Nuclear Repulsion Energy =            125.3945626430639066
    One-Electron Energy =                -458.7488058006113079
    Two-Electron Energy =                 195.8483096130963190
    DFT Exchange-Correlation Energy =     -20.3071409716652589
    Empirical Dispersion Energy =           0.0000000000000000
    VV10 Nonlocal Energy =                  0.0000000000000000
    Total Energy =                       -157.8130745161163304

  UHF NO Occupations:
  HONO-2 :    9 Ap 1.9996009
  HONO-1 :   10 Ap 1.9989805
  HONO-0 :   11 Ap 1.0000000
  LUNO+0 :   12 Ap 0.0010195
  LUNO+1 :   13 Ap 0.0003991
  LUNO+2 :    7App 0.0001975
  LUNO+3 :   14 Ap 0.0001975

Computation Completed

Properties will be evaluated at   0.000000,   0.000000,   0.000000 [a0]

Properties computed using the SCF density matrix

  Nuclear Dipole Moment: [e a0]
     X:     0.8272      Y:    -0.0000      Z:    -0.0000

  Electronic Dipole Moment: [e a0]
     X:    -0.7493      Y:     0.0000      Z:     0.0000

  Dipole Moment: [e a0]
     X:     0.0779      Y:    -0.0000      Z:    -0.0000     Total:     0.0779

  Dipole Moment: [D]
     X:     0.1980      Y:    -0.0000      Z:    -0.0000     Total:     0.1980

*** tstop() called on n046 at Fri Nov  5 11:29:45 2021
Module time:
	user time   =     684.21 seconds =      11.40 minutes
	system time =      16.81 seconds =       0.28 minutes
	total time  =        177 seconds =       2.95 minutes
Total time:
	user time   =     684.21 seconds =      11.40 minutes
	system time =      16.81 seconds =       0.28 minutes
	total time  =        177 seconds =       2.95 minutes
Grab this energy -157.81307451611633
    Psi4 stopped on: Friday, 05 November 2021 11:29AM
    Psi4 wall time for execution: 0:02:56.42

*** Psi4 exiting successfully. Buy a developer a beer!
