                               Psi4 1.4a2.dev629

  ==> Input File <==

--------------------------------------------------------------------------
import os
memory 14 GB

molecule {
 C   -0.3218907108   -0.0000024498    0.0004986299
 C    0.0614750234   -1.4010493820   -2.4262930168
 C    0.0601644911    2.8018530454    0.0003840623
 C    0.0590918226   -1.4008010008    2.4266309430
 H    2.0834158198   -1.6443656701   -2.8477210589
 H   -0.7641884854   -0.3857902523   -4.0271022694
 H   -0.7631548749   -3.2941250358   -2.3474428285
 H    2.0868492837    3.2880576857    0.0001821563
 H   -0.7642877936    3.6797912319    1.6762528700
 H   -0.7666831463    3.6807183491   -1.6768591272
 H    2.0905592545   -1.6437837179    2.8470760422
 H   -0.7676595902   -3.2899722856    2.3504765472
 H   -0.7662989705   -0.3905548314    4.0239170499
units bohr
0 2
}

basis {

assign 6-31g_2dfp_

[ 6-31g_2dfp_ ]

spherical

!----------------------------------------------------------------------
! Basis Set Exchange
! Version v0.8.13
! https://www.basissetexchange.org
!----------------------------------------------------------------------
!   Basis set: 6-31G(2df,p)
! Description: 6-31G(2df,p)
!        Role: orbital
!     Version: 0  (Data from the original Basis Set Exchange)
!----------------------------------------------------------------------

****
H     0
S    3   1.00
     18.7311370              0.03349460
      2.8253937              0.23472695
      0.6401217              0.81375733
S    1   1.00
      0.1612778              1.00000000
P    1   1.00
      1.5000000              1.0000000
P    1   1.00
      0.3750000              1.0000000
****
B     0
S    6   1.00
   2068.8823000              0.0018663
    310.6495700              0.0142515
     70.6830330              0.0695516
     19.8610800              0.2325729
      6.2993048              0.4670787
      2.1270270              0.3634314
SP   3   1.00
      4.7279710             -0.1303938              0.0745976
      1.1903377             -0.1307889              0.3078467
      0.3594117              1.1309444              0.7434568
SP   1   1.00
      0.1267512              1.0000000              1.0000000
D    1   1.00
      0.8020000              1.0000000
D    1   1.00
      0.2005000              1.0000000
F    1   1.00
      0.5000000              1.0000000
****
C     0
S    6   1.00
   3047.5249000              0.0018347
    457.3695100              0.0140373
    103.9486900              0.0688426
     29.2101550              0.2321844
      9.2866630              0.4679413
      3.1639270              0.3623120
SP   3   1.00
      7.8682724             -0.1193324              0.0689991
      1.8812885             -0.1608542              0.3164240
      0.5442493              1.1434564              0.7443083
SP   1   1.00
      0.1687144              1.0000000              1.0000000
D    1   1.00
      1.2520000              1.0000000
D    1   1.00
      0.3130000              1.0000000
F    1   1.00
      0.8000000              1.0000000
****
N     0
S    6   1.00
   4173.5110000              0.0018348
    627.4579000              0.0139950
    142.9021000              0.0685870
     40.2343300              0.2322410
     12.8202100              0.4690700
      4.3904370              0.3604550
SP   3   1.00
     11.6263580             -0.1149610              0.0675800
      2.7162800             -0.1691180              0.3239070
      0.7722180              1.1458520              0.7408950
SP   1   1.00
      0.2120313              1.0000000              1.0000000
D    1   1.00
      1.8260000              1.0000000
D    1   1.00
      0.4565000              1.0000000
F    1   1.00
      1.0000000              1.0000000
****
O     0
S    6   1.00
   5484.6717000              0.0018311
    825.2349500              0.0139501
    188.0469600              0.0684451
     52.9645000              0.2327143
     16.8975700              0.4701930
      5.7996353              0.3585209
SP   3   1.00
     15.5396160             -0.1107775              0.0708743
      3.5999336             -0.1480263              0.3397528
      1.0137618              1.1307670              0.7271586
SP   1   1.00
      0.2700058              1.0000000              1.0000000
D    1   1.00
      2.5840000              1.0000000
D    1   1.00
      0.6460000              1.0000000
F    1   1.00
      1.4000000              1.0000000
****
F     0
S    6   1.00
   7001.7130900              0.0018196169
   1051.3660900              0.0139160796
    239.2856900              0.0684053245
     67.3974453              0.233185760
     21.5199573              0.471267439
      7.40310130             0.356618546
SP   3   1.00
     20.8479528             -0.108506975            0.0716287243
      4.80830834            -0.146451658            0.3459121030
      1.34406986             1.128688580            0.7224699570
SP   1   1.00
      0.358151393            1.0000000              1.0000000
D    1   1.00
      3.5000000              1.0000000
D    1   1.00
      0.8750000              1.0000000
F    1   1.00
      1.8500000              1.0000000
****
Al     0
S    6   1.00
  13983.1000000              0.00194267
   2098.7500000              0.0148599
    477.7050000              0.0728494
    134.3600000              0.2468300
     42.8709000              0.4872580
     14.5189000              0.3234960
SP   6   1.00
    239.6680000             -0.00292619             0.00460285
     57.4419000             -0.0374080              0.0331990
     18.2859000             -0.1144870              0.1362820
      6.5991400              0.1156350              0.3304760
      2.4904900              0.6125950              0.4491460
      0.9445400              0.3937990              0.2657040
SP   3   1.00
      1.2779000             -0.2276060             -0.0175130
      0.3975900              0.00144583             0.2445330
      0.1600950              1.0927900              0.8049340
SP   1   1.00
      0.0556577              1.0000000              1.0000000
D    1   1.00
      0.6500000              1.0000000
D    1   1.00
      0.1625000              1.0000000
F    1   1.00
      0.2500000              1.0000000
****
Si     0
S    6   1.00
  16115.9000000              0.00195948
   2425.5800000              0.01492880
    553.8670000              0.07284780
    156.3400000              0.24613000
     50.0683000              0.48591400
     17.0178000              0.32500200
SP   6   1.00
    292.7180000             -0.00278094             0.00443826
     69.8731000             -0.03571460             0.03266790
     22.3363000             -0.11498500             0.13472100
      8.1503900              0.09356340             0.32867800
      3.1345800              0.60301700             0.44964000
      1.2254300              0.41895900             0.26137200
SP   3   1.00
      1.7273800             -0.24463000            -0.01779510
      0.5729220              0.00431572             0.25353900
      0.2221920              1.09818000             0.80066900
SP   1   1.00
      0.0778369              1.00000000             1.00000000
D    1   1.00
      0.9000000              1.0000000
D    1   1.00
      0.2250000              1.0000000
F    1   1.00
      0.3200000              1.0000000
****
P     0
S    6   1.00
  19413.3000000              0.0018516
   2909.4200000              0.0142062
    661.3640000              0.0699995
    185.7590000              0.2400790
     59.1943000              0.4847620
     20.0310000              0.3352000
SP   6   1.00
    339.4780000             -0.00278217             0.00456462
     81.0101000             -0.0360499              0.03369360
     25.8780000             -0.1166310              0.13975500
      9.4522100              0.0968328              0.33936200
      3.6656600              0.6144180              0.45092100
      1.4674600              0.4037980              0.23858600
SP   3   1.00
      2.1562300             -0.2529230             -0.01776530
      0.7489970              0.0328517              0.27405800
      0.2831450              1.0812500              0.78542100
SP   1   1.00
      0.0998317              1.0000000              1.00000000
D    1   1.00
      1.1000000              1.0000000
D    1   1.00
      0.2750000              1.0000000
F    1   1.00
      0.4500000              1.0000000
****
S     0
S    6   1.00
  21917.1000000              0.0018690
   3301.4900000              0.0142300
    754.1460000              0.0696960
    212.7110000              0.2384870
     67.9896000              0.4833070
     23.0515000              0.3380740
SP   6   1.00
    423.7350000             -0.0023767              0.0040610
    100.7100000             -0.0316930              0.0306810
     32.1599000             -0.1133170              0.1304520
     11.8079000              0.0560900              0.3272050
      4.6311000              0.5922550              0.4528510
      1.8702500              0.4550060              0.2560420
SP   3   1.00
      2.6158400             -0.2503740             -0.0145110
      0.9221670              0.0669570              0.3102630
      0.3412870              1.0545100              0.7544830
SP   1   1.00
      0.1171670              1.0000000              1.0000000
D    1   1.00
      1.3000000              1.0000000
D    1   1.00
      0.3250000              1.0000000
F    1   1.00
      0.5500000              1.0000000
****
Cl     0
S    6   1.00
  25180.1000000              0.0018330
   3780.3500000              0.0140340
    860.4740000              0.0690970
    242.1450000              0.2374520
     77.3349000              0.4830340
     26.2470000              0.3398560
SP   6   1.00
    491.7650000             -0.0022974              0.0039894
    116.9840000             -0.0307140              0.0303180
     37.4153000             -0.1125280              0.1298800
     13.7834000              0.0450160              0.3279510
      5.4521500              0.5893530              0.4535270
      2.2258800              0.4652060              0.2521540
SP   3   1.00
      3.1864900             -0.2518300             -0.0142990
      1.1442700              0.0615890              0.3235720
      0.4203770              1.0601800              0.7435070
SP   1   1.00
      0.1426570              1.0000000              1.0000000
D    1   1.00
      1.5000000              1.0000000
D    1   1.00
      0.3750000              1.0000000
F    1   1.00
      0.7000000              1.0000000
****
}

set {
reference uhf
freeze_core true
e_convergence 10
d_convergence 10
dft_spherical_points 1202
dft_radial_points 99
}

e = energy('b3lyp')

print_out('Grab this energy {0}'.format(e))
--------------------------------------------------------------------------

    Molecular point group: c1

    Geometry (in Bohr), charge = 0, multiplicity = 2:

       Center              X                  Y                   Z               Mass
    ------------   -----------------  -----------------  -----------------  -----------------
         C           -0.321675108446    -0.000002061425     0.000263530005    12.000000000000
         C            0.061690625754    -1.401048993625    -2.426528116695    12.000000000000
         C            0.060380093454     2.801853433775     0.000148962405    12.000000000000
         C            0.059307424954    -1.400800612425     2.426395843105    12.000000000000
         H            2.083631422154    -1.644365281725    -2.847956158795     1.007825032230
         H           -0.763972883046    -0.385789863925    -4.027337369295     1.007825032230
         H           -0.762939272546    -3.294124647425    -2.347677928395     1.007825032230
         H            2.087064886054     3.288058074075    -0.000052943595     1.007825032230
         H           -0.764072191246     3.679791620275     1.676017770105     1.007825032230
         H           -0.766467543946     3.680718737475    -1.677094227095     1.007825032230
         H            2.090774856854    -1.643783329525     2.846840942305     1.007825032230
         H           -0.767443987846    -3.289971897225     2.350241447305     1.007825032230
         H           -0.766083368146    -0.390554443025     4.023681950005     1.007825032230

  Charge       = 0
  Multiplicity = 2
  Basis Set: ANONYMOUS19F9DF67
    Blend: 6-31G_2DFP_
  Basis Set: (ANONYMOUS19F9DF67 AUX)
    Blend: DEF2-UNIVERSAL-JKFIT

    Orbital Energies [Eh]
    ---------------------

    Alpha Occupied:

       1A    -10.180277     2A    -10.167054     3A    -10.167030
       4A    -10.166986     5A     -0.797781     6A     -0.686206
       7A     -0.686204     8A     -0.530772     9A     -0.441069
      10A     -0.434755    11A     -0.434712    12A     -0.382515
      13A     -0.382467    14A     -0.363737    15A     -0.338123
      16A     -0.338059    17A     -0.168778

    Alpha Virtual:

      18A      0.076068    19A      0.133991    20A      0.134325
      21A      0.142588    22A      0.142712    23A      0.154801
      24A      0.178625    25A      0.178795    26A      0.203522
      27A      0.214851    28A      0.276082    29A      0.276235
      30A      0.399215    31A      0.399282    32A      0.403423
      33A      0.424040    34A      0.424210    35A      0.456498
      36A      0.495269    37A      0.495558    38A      0.512115
      39A      0.514080    40A      0.578512    41A      0.578863
      42A      0.591454    43A      0.591751    44A      0.602362
      45A      0.624843    46A      0.631817    47A      0.636309
      48A      0.636518    49A      0.662888    50A      0.663630
      51A      0.683790    52A      0.684138    53A      0.735191
      54A      0.825439    55A      0.825477    56A      0.853920
      57A      0.914876    58A      0.915303    59A      0.944078
      60A      0.944562    61A      0.961150    62A      0.961408
      63A      1.003452    64A      1.127964    65A      1.128065
      66A      1.142197    67A      1.162719    68A      1.162964
      69A      1.223488    70A      1.274397    71A      1.274695
      72A      1.279131    73A      1.324563    74A      1.324652
      75A      1.355722    76A      1.366402    77A      1.366450
      78A      1.392448    79A      1.403554    80A      1.404469
      81A      1.416353    82A      1.417402    83A      1.427860
      84A      1.491673    85A      1.498684    86A      1.542329
      87A      1.543252    88A      1.574572    89A      1.574884
      90A      1.670088    91A      1.739482    92A      1.739794
      93A      1.768297    94A      1.830977    95A      1.832592
      96A      1.971976    97A      2.018239    98A      2.018995
      99A      2.019573   100A      2.051314   101A      2.053210
     102A      2.738269   103A      2.739091   104A      2.790726
     105A      2.811456   106A      2.890169   107A      2.890208
     108A      2.894659   109A      2.929465   110A      2.929488
     111A      2.959066   112A      2.964160   113A      2.964810
     114A      3.033663   115A      3.072099   116A      3.072143
     117A      3.084439   118A      3.168438   119A      3.168885
     120A      3.180635   121A      3.284192   122A      3.284840
     123A      3.326601   124A      3.327010   125A      3.375457
     126A      3.490227   127A      3.490547   128A      3.514196
     129A      3.524863   130A      3.568561   131A      3.568799
     132A      3.574537   133A      3.666249   134A      3.667671
     135A      3.679869   136A      3.693920   137A      3.694204
     138A      3.777070   139A      3.777104   140A      3.790391
     141A      3.912146   142A      3.912355   143A      4.034749
     144A      4.111146   145A      4.112049   146A      4.147552
     147A      4.148703   148A      4.173268   149A      4.201777
     150A      4.202864   151A      4.203937   152A      4.210860
     153A      4.314945   154A      4.316638   155A      4.358498
     156A      4.424296   157A      4.424950   158A      4.443684
     159A      4.515859   160A      4.517239   161A      4.578033
     162A      4.578270   163A      4.618052   164A      4.709127
     165A      4.774293   166A      4.775199   167A      4.838092
     168A      4.962769   169A      5.002045   170A      5.003549
     171A      5.228117   172A      5.244837   173A      5.248984
     174A      5.354605   175A      5.357020   176A      5.479742

    Beta Occupied:

       1A    -10.167812     2A    -10.167787     3A    -10.167755
       4A    -10.166458     5A     -0.781102     6A     -0.684015
       7A     -0.684006     8A     -0.511752     9A     -0.431132
      10A     -0.431102    11A     -0.421731    12A     -0.376611
      13A     -0.376520    14A     -0.362722    15A     -0.333234
      16A     -0.333186

    Beta Virtual:

      17A     -0.025642    18A      0.077081    19A      0.134903
      20A      0.135215    21A      0.144482    22A      0.144554
      23A      0.163268    24A      0.182277    25A      0.182485
      26A      0.215080    27A      0.218926    28A      0.282415
      29A      0.282574    30A      0.400387    31A      0.400451
      32A      0.419896    33A      0.426850    34A      0.427019
      35A      0.468393    36A      0.497518    37A      0.497822
      38A      0.513855    39A      0.556425    40A      0.584091
      41A      0.584411    42A      0.597607    43A      0.597949
      44A      0.609809    45A      0.628196    46A      0.631980
      47A      0.639584    48A      0.639794    49A      0.666482
      50A      0.667160    51A      0.686449    52A      0.686761
      53A      0.757694    54A      0.830601    55A      0.830643
      56A      0.855278    57A      0.922851    58A      0.923250
      59A      0.945918    60A      0.953497    61A      0.966460
      62A      0.966776    63A      1.008673    64A      1.132024
      65A      1.132046    66A      1.155604    67A      1.167760
      68A      1.168078    69A      1.232464    70A      1.279966
      71A      1.280287    72A      1.284878    73A      1.329547
      74A      1.329631    75A      1.365158    76A      1.371650
      77A      1.371699    78A      1.393513    79A      1.406978
      80A      1.407981    81A      1.421407    82A      1.422493
      83A      1.428123    84A      1.492723    85A      1.509120
      86A      1.546751    87A      1.547646    88A      1.582458
      89A      1.582742    90A      1.674918    91A      1.745250
      92A      1.745560    93A      1.779090    94A      1.834833
      95A      1.836463    96A      1.972838    97A      2.024685
      98A      2.025627    99A      2.040669   100A      2.058055
     101A      2.059866   102A      2.746613   103A      2.747418
     104A      2.811859   105A      2.815880   106A      2.902780
     107A      2.902910   108A      2.924356   109A      2.931926
     110A      2.932011   111A      2.960128   112A      2.968684
     113A      2.969360   114A      3.041637   115A      3.081862
     116A      3.082095   117A      3.086286   118A      3.184176
     119A      3.184839   120A      3.188276   121A      3.289019
     122A      3.289688   123A      3.330374   124A      3.330830
     125A      3.383265   126A      3.492979   127A      3.493222
     128A      3.512557   129A      3.527900   130A      3.574372
     131A      3.581824   132A      3.582151   133A      3.670964
     134A      3.672493   135A      3.693168   136A      3.725532
     137A      3.725834   138A      3.781528   139A      3.781623
     140A      3.818941   141A      3.921977   142A      3.922231
     143A      4.045607   144A      4.117995   145A      4.118859
     146A      4.154802   147A      4.155850   148A      4.187358
     149A      4.207827   150A      4.209353   151A      4.211241
     152A      4.215354   153A      4.322363   154A      4.324057
     155A      4.361860   156A      4.432552   157A      4.433209
     158A      4.446561   159A      4.523664   160A      4.525050
     161A      4.588587   162A      4.588850   163A      4.625254
     164A      4.719446   165A      4.781231   166A      4.782139
     167A      4.840997   168A      4.967567   169A      5.006118
     170A      5.007583   171A      5.233829   172A      5.246633
     173A      5.250758   174A      5.361067   175A      5.363503
     176A      5.482057

    Final Occupation by Irrep:
              A
    DOCC [    16 ]
    SOCC [     1 ]

  @DF-UKS Final Energy:  -157.81307070360680

   => Energetics <=

    Nuclear Repulsion Energy =            125.3970518051321932
    One-Electron Energy =                -458.7535802429983960
    Two-Electron Energy =                 195.8506715603329269
    DFT Exchange-Correlation Energy =     -20.3072138260735287
    Empirical Dispersion Energy =           0.0000000000000000
    VV10 Nonlocal Energy =                  0.0000000000000000
    Total Energy =                       -157.8130707036067975

  UHF NO Occupations:
  HONO-2 :   15  A 1.9995994
  HONO-1 :   16  A 1.9989790
  HONO-0 :   17  A 1.0000000
  LUNO+0 :   18  A 0.0010210
  LUNO+1 :   19  A 0.0004006
  LUNO+2 :   20  A 0.0001974
  LUNO+3 :   21  A 0.0001974

Computation Completed

Properties will be evaluated at   0.000000,   0.000000,   0.000000 [a0]

Properties computed using the SCF density matrix

  Nuclear Dipole Moment: [e a0]
     X:     0.8287      Y:    -0.0000      Z:    -0.0017

  Electronic Dipole Moment: [e a0]
     X:    -0.7516      Y:     0.0000      Z:     0.0023

  Dipole Moment: [e a0]
     X:     0.0771      Y:     0.0000      Z:     0.0006     Total:     0.0771

  Dipole Moment: [D]
     X:     0.1961      Y:     0.0000      Z:     0.0016     Total:     0.1961

*** tstop() called on n079 at Fri Nov  5 11:33:31 2021
Module time:
	user time   =     466.19 seconds =       7.77 minutes
	system time =       4.30 seconds =       0.07 minutes
	total time  =        119 seconds =       1.98 minutes
Total time:
	user time   =     466.19 seconds =       7.77 minutes
	system time =       4.30 seconds =       0.07 minutes
	total time  =        119 seconds =       1.98 minutes
Grab this energy -157.8130707036068
    Psi4 stopped on: Friday, 05 November 2021 11:33AM
    Psi4 wall time for execution: 0:01:58.35

*** Psi4 exiting successfully. Buy a developer a beer!
