                               Psi4 1.4a2.dev629

  ==> Input File <==

--------------------------------------------------------------------------
import os
memory 14 GB

molecule {
 C   -0.3233275776   -0.0010238472   -0.0000000000
 C    0.0616968299   -1.4002473684   -2.4284108969
 C    0.0604545470    2.8037920002    0.0000000000
 C    0.0616968299   -1.4002473684    2.4284108969
 H    2.0869467297   -1.6443970436   -2.8467488564
 H   -0.7657581784   -0.3882013788   -4.0250715292
 H   -0.7656659463   -3.2919986434   -2.3483821950
 H    2.0869305438    3.2875084453   -0.0000000000
 H   -0.7655521298    3.6796939783    1.6766971733
 H   -0.7655521298    3.6796939783   -1.6766971733
 H    2.0869467297   -1.6443970436    2.8467488564
 H   -0.7656659463   -3.2919986434    2.3483821950
 H   -0.7657581784   -0.3882013788    4.0250715292
units bohr
0 2
}

basis {

assign 6-31g_2dfp_

[ 6-31g_2dfp_ ]

spherical

!----------------------------------------------------------------------
! Basis Set Exchange
! Version v0.8.13
! https://www.basissetexchange.org
!----------------------------------------------------------------------
!   Basis set: 6-31G(2df,p)
! Description: 6-31G(2df,p)
!        Role: orbital
!     Version: 0  (Data from the original Basis Set Exchange)
!----------------------------------------------------------------------

****
H     0
S    3   1.00
     18.7311370              0.03349460
      2.8253937              0.23472695
      0.6401217              0.81375733
S    1   1.00
      0.1612778              1.00000000
P    1   1.00
      1.5000000              1.0000000
P    1   1.00
      0.3750000              1.0000000
****
B     0
S    6   1.00
   2068.8823000              0.0018663
    310.6495700              0.0142515
     70.6830330              0.0695516
     19.8610800              0.2325729
      6.2993048              0.4670787
      2.1270270              0.3634314
SP   3   1.00
      4.7279710             -0.1303938              0.0745976
      1.1903377             -0.1307889              0.3078467
      0.3594117              1.1309444              0.7434568
SP   1   1.00
      0.1267512              1.0000000              1.0000000
D    1   1.00
      0.8020000              1.0000000
D    1   1.00
      0.2005000              1.0000000
F    1   1.00
      0.5000000              1.0000000
****
C     0
S    6   1.00
   3047.5249000              0.0018347
    457.3695100              0.0140373
    103.9486900              0.0688426
     29.2101550              0.2321844
      9.2866630              0.4679413
      3.1639270              0.3623120
SP   3   1.00
      7.8682724             -0.1193324              0.0689991
      1.8812885             -0.1608542              0.3164240
      0.5442493              1.1434564              0.7443083
SP   1   1.00
      0.1687144              1.0000000              1.0000000
D    1   1.00
      1.2520000              1.0000000
D    1   1.00
      0.3130000              1.0000000
F    1   1.00
      0.8000000              1.0000000
****
N     0
S    6   1.00
   4173.5110000              0.0018348
    627.4579000              0.0139950
    142.9021000              0.0685870
     40.2343300              0.2322410
     12.8202100              0.4690700
      4.3904370              0.3604550
SP   3   1.00
     11.6263580             -0.1149610              0.0675800
      2.7162800             -0.1691180              0.3239070
      0.7722180              1.1458520              0.7408950
SP   1   1.00
      0.2120313              1.0000000              1.0000000
D    1   1.00
      1.8260000              1.0000000
D    1   1.00
      0.4565000              1.0000000
F    1   1.00
      1.0000000              1.0000000
****
O     0
S    6   1.00
   5484.6717000              0.0018311
    825.2349500              0.0139501
    188.0469600              0.0684451
     52.9645000              0.2327143
     16.8975700              0.4701930
      5.7996353              0.3585209
SP   3   1.00
     15.5396160             -0.1107775              0.0708743
      3.5999336             -0.1480263              0.3397528
      1.0137618              1.1307670              0.7271586
SP   1   1.00
      0.2700058              1.0000000              1.0000000
D    1   1.00
      2.5840000              1.0000000
D    1   1.00
      0.6460000              1.0000000
F    1   1.00
      1.4000000              1.0000000
****
F     0
S    6   1.00
   7001.7130900              0.0018196169
   1051.3660900              0.0139160796
    239.2856900              0.0684053245
     67.3974453              0.233185760
     21.5199573              0.471267439
      7.40310130             0.356618546
SP   3   1.00
     20.8479528             -0.108506975            0.0716287243
      4.80830834            -0.146451658            0.3459121030
      1.34406986             1.128688580            0.7224699570
SP   1   1.00
      0.358151393            1.0000000              1.0000000
D    1   1.00
      3.5000000              1.0000000
D    1   1.00
      0.8750000              1.0000000
F    1   1.00
      1.8500000              1.0000000
****
Al     0
S    6   1.00
  13983.1000000              0.00194267
   2098.7500000              0.0148599
    477.7050000              0.0728494
    134.3600000              0.2468300
     42.8709000              0.4872580
     14.5189000              0.3234960
SP   6   1.00
    239.6680000             -0.00292619             0.00460285
     57.4419000             -0.0374080              0.0331990
     18.2859000             -0.1144870              0.1362820
      6.5991400              0.1156350              0.3304760
      2.4904900              0.6125950              0.4491460
      0.9445400              0.3937990              0.2657040
SP   3   1.00
      1.2779000             -0.2276060             -0.0175130
      0.3975900              0.00144583             0.2445330
      0.1600950              1.0927900              0.8049340
SP   1   1.00
      0.0556577              1.0000000              1.0000000
D    1   1.00
      0.6500000              1.0000000
D    1   1.00
      0.1625000              1.0000000
F    1   1.00
      0.2500000              1.0000000
****
Si     0
S    6   1.00
  16115.9000000              0.00195948
   2425.5800000              0.01492880
    553.8670000              0.07284780
    156.3400000              0.24613000
     50.0683000              0.48591400
     17.0178000              0.32500200
SP   6   1.00
    292.7180000             -0.00278094             0.00443826
     69.8731000             -0.03571460             0.03266790
     22.3363000             -0.11498500             0.13472100
      8.1503900              0.09356340             0.32867800
      3.1345800              0.60301700             0.44964000
      1.2254300              0.41895900             0.26137200
SP   3   1.00
      1.7273800             -0.24463000            -0.01779510
      0.5729220              0.00431572             0.25353900
      0.2221920              1.09818000             0.80066900
SP   1   1.00
      0.0778369              1.00000000             1.00000000
D    1   1.00
      0.9000000              1.0000000
D    1   1.00
      0.2250000              1.0000000
F    1   1.00
      0.3200000              1.0000000
****
P     0
S    6   1.00
  19413.3000000              0.0018516
   2909.4200000              0.0142062
    661.3640000              0.0699995
    185.7590000              0.2400790
     59.1943000              0.4847620
     20.0310000              0.3352000
SP   6   1.00
    339.4780000             -0.00278217             0.00456462
     81.0101000             -0.0360499              0.03369360
     25.8780000             -0.1166310              0.13975500
      9.4522100              0.0968328              0.33936200
      3.6656600              0.6144180              0.45092100
      1.4674600              0.4037980              0.23858600
SP   3   1.00
      2.1562300             -0.2529230             -0.01776530
      0.7489970              0.0328517              0.27405800
      0.2831450              1.0812500              0.78542100
SP   1   1.00
      0.0998317              1.0000000              1.00000000
D    1   1.00
      1.1000000              1.0000000
D    1   1.00
      0.2750000              1.0000000
F    1   1.00
      0.4500000              1.0000000
****
S     0
S    6   1.00
  21917.1000000              0.0018690
   3301.4900000              0.0142300
    754.1460000              0.0696960
    212.7110000              0.2384870
     67.9896000              0.4833070
     23.0515000              0.3380740
SP   6   1.00
    423.7350000             -0.0023767              0.0040610
    100.7100000             -0.0316930              0.0306810
     32.1599000             -0.1133170              0.1304520
     11.8079000              0.0560900              0.3272050
      4.6311000              0.5922550              0.4528510
      1.8702500              0.4550060              0.2560420
SP   3   1.00
      2.6158400             -0.2503740             -0.0145110
      0.9221670              0.0669570              0.3102630
      0.3412870              1.0545100              0.7544830
SP   1   1.00
      0.1171670              1.0000000              1.0000000
D    1   1.00
      1.3000000              1.0000000
D    1   1.00
      0.3250000              1.0000000
F    1   1.00
      0.5500000              1.0000000
****
Cl     0
S    6   1.00
  25180.1000000              0.0018330
   3780.3500000              0.0140340
    860.4740000              0.0690970
    242.1450000              0.2374520
     77.3349000              0.4830340
     26.2470000              0.3398560
SP   6   1.00
    491.7650000             -0.0022974              0.0039894
    116.9840000             -0.0307140              0.0303180
     37.4153000             -0.1125280              0.1298800
     13.7834000              0.0450160              0.3279510
      5.4521500              0.5893530              0.4535270
      2.2258800              0.4652060              0.2521540
SP   3   1.00
      3.1864900             -0.2518300             -0.0142990
      1.1442700              0.0615890              0.3235720
      0.4203770              1.0601800              0.7435070
SP   1   1.00
      0.1426570              1.0000000              1.0000000
D    1   1.00
      1.5000000              1.0000000
D    1   1.00
      0.3750000              1.0000000
F    1   1.00
      0.7000000              1.0000000
****
}

set {
reference uhf
freeze_core true
e_convergence 10
d_convergence 10
dft_spherical_points 1202
dft_radial_points 99
}

e = energy('b3lyp')

print_out('Grab this energy {0}'.format(e))
--------------------------------------------------------------------------

    Molecular point group: cs

    Geometry (in Bohr), charge = 0, multiplicity = 2:

       Center              X                  Y                   Z               Mass
    ------------   -----------------  -----------------  -----------------  -----------------
         C           -0.323435555905    -0.001461294175     0.000000000000    12.000000000000
         C            0.061588851595    -1.400684815375    -2.428410896900    12.000000000000
         C            0.060346568695     2.803354553225     0.000000000000    12.000000000000
         C            0.061588851595    -1.400684815375     2.428410896900    12.000000000000
         H            2.086838751395    -1.644834490575    -2.846748856400     1.007825032230
         H           -0.765866156705    -0.388638825775    -4.025071529200     1.007825032230
         H           -0.765773924605    -3.292436090375    -2.348382195000     1.007825032230
         H            2.086822565495     3.287070998325     0.000000000000     1.007825032230
         H           -0.765660108105     3.679256531325     1.676697173300     1.007825032230
         H           -0.765660108105     3.679256531325    -1.676697173300     1.007825032230
         H            2.086838751395    -1.644834490575     2.846748856400     1.007825032230
         H           -0.765773924605    -3.292436090375     2.348382195000     1.007825032230
         H           -0.765866156705    -0.388638825775     4.025071529200     1.007825032230

  Charge       = 0
  Multiplicity = 2
  Basis Set: ANONYMOUSBCBF42AD
    Blend: 6-31G_2DFP_
  Basis Set: (ANONYMOUSBCBF42AD AUX)
    Blend: DEF2-UNIVERSAL-JKFIT

    Orbital Energies [Eh]
    ---------------------

    Alpha Occupied:

       1Ap   -10.180393     1App  -10.166993     2Ap   -10.166974
       3Ap   -10.166921     4Ap    -0.797509     2App   -0.686257
       5Ap    -0.686098     6Ap    -0.530610     7Ap    -0.441115
       8Ap    -0.434611     3App   -0.434596     4App   -0.382776
       9Ap    -0.382698     5App   -0.363811     6App   -0.338132
      10Ap    -0.337546    11Ap    -0.168940

    Alpha Virtual:

      12Ap     0.076080    13Ap     0.134175     7App    0.134253
      14Ap     0.142697     8App    0.142826    15Ap     0.154774
       9App    0.178893    16Ap     0.178994    17Ap     0.203255
      10App    0.214927    18Ap     0.275619    11App    0.275868
      19Ap     0.399124    12App    0.399346    20Ap     0.403434
      13App    0.424146    21Ap     0.424157    22Ap     0.456412
      14App    0.495365    23Ap     0.495434    15App    0.512215
      24Ap     0.514037    25Ap     0.578812    16App    0.578904
      26Ap     0.591715    17App    0.591753    27Ap     0.602614
      28Ap     0.624880    18App    0.632000    29Ap     0.636195
      19App    0.636197    30Ap     0.663208    20App    0.663386
      21App    0.683857    31Ap     0.683877    32Ap     0.735125
      22App    0.825383    33Ap     0.825391    23App    0.853780
      24App    0.914960    34Ap     0.915176    25App    0.944080
      35Ap     0.944300    36Ap     0.961303    26App    0.961413
      37Ap     1.003622    27App    1.128024    38Ap     1.128047
      39Ap     1.141795    28App    1.163862    40Ap     1.163897
      41Ap     1.222904    42Ap     1.274176    29App    1.274545
      43Ap     1.279192    44Ap     1.324104    30App    1.324211
      45Ap     1.355657    31App    1.365675    46Ap     1.366154
      32App    1.392925    47Ap     1.404539    33App    1.405025
      48Ap     1.416855    34App    1.417384    35App    1.428174
      36App    1.490971    49Ap     1.499661    50Ap     1.542497
      37App    1.542835    38App    1.574033    51Ap     1.574662
      52Ap     1.670603    53Ap     1.738785    39App    1.739023
      54Ap     1.768360    40App    1.831763    55Ap     1.831916
      41App    1.971130    42App    2.017882    56Ap     2.018276
      57Ap     2.018950    43App    2.051609    58Ap     2.052827
      59Ap     2.738264    44App    2.738359    60Ap     2.790697
      45App    2.811341    61Ap     2.889177    46App    2.890520
      62Ap     2.894531    63Ap     2.929482    47App    2.929820
      48App    2.959043    49App    2.964126    64Ap     2.964688
      65Ap     3.033837    66Ap     3.071207    50App    3.071465
      51App    3.083948    52App    3.168564    67Ap     3.168772
      68Ap     3.180011    69Ap     3.285426    53App    3.285863
      54App    3.326873    70Ap     3.326952    71Ap     3.375708
      72Ap     3.490044    55App    3.490093    56App    3.513863
      73Ap     3.524977    57App    3.568033    74Ap     3.568260
      58App    3.575284    75Ap     3.666925    59App    3.667360
      76Ap     3.680261    77Ap     3.694223    60App    3.694274
      78Ap     3.776743    61App    3.776755    79Ap     3.789407
      80Ap     3.910763    62App    3.911476    81Ap     4.033908
      63App    4.111426    82Ap     4.111869    83Ap     4.147943
      64App    4.148327    84Ap     4.172572    85Ap     4.201732
      65App    4.202425    86Ap     4.202427    66App    4.210491
      87Ap     4.315273    67App    4.316856    68App    4.359604
      69App    4.425051    88Ap     4.426198    70App    4.445422
      89Ap     4.516319    71App    4.516697    90Ap     4.577264
      72App    4.577841    91Ap     4.617139    92Ap     4.708175
      73App    4.773630    93Ap     4.773939    74App    4.835575
      94Ap     4.964178    75App    5.003547    95Ap     5.004121
      96Ap     5.228559    97Ap     5.246867    76App    5.247331
      98Ap     5.355317    77App    5.355370    78App    5.478137

    Beta Occupied:

       1App  -10.167744     1Ap   -10.167731     2Ap   -10.167686
       3Ap   -10.166560     4Ap    -0.780849     2App   -0.684062
       5Ap    -0.683909     6Ap    -0.511535     7Ap    -0.431010
       3App   -0.430978     8Ap    -0.421853     4App   -0.376885
       9Ap    -0.376792     5App   -0.362798     6App   -0.333240
      10Ap    -0.332654

    Beta Virtual:

      11Ap    -0.025573    12Ap     0.077086    13Ap     0.135045
       7App    0.135146    14Ap     0.144584     8App    0.144676
      15Ap     0.163191     9App    0.182561    16Ap     0.182638
      10App    0.215154    17Ap     0.218687    18Ap     0.282001
      11App    0.282222    19Ap     0.400286    12App    0.400509
      20Ap     0.419872    13App    0.426955    21Ap     0.426969
      22Ap     0.468244    14App    0.497620    23Ap     0.497684
      15App    0.513941    24Ap     0.556414    25Ap     0.584364
      16App    0.584455    26Ap     0.597894    17App    0.597952
      27Ap     0.610043    28Ap     0.628219    18App    0.632154
      19App    0.639459    29Ap     0.639468    30Ap     0.666766
      20App    0.666952    21App    0.686479    31Ap     0.686504
      32Ap     0.757726    22App    0.830539    33Ap     0.830541
      23App    0.855121    24App    0.922934    34Ap     0.923151
      25App    0.945909    35Ap     0.953216    36Ap     0.966609
      26App    0.966700    37Ap     1.008872    27App    1.132069
      38Ap     1.132071    39Ap     1.155130    28App    1.168935
      40Ap     1.168998    41Ap     1.231935    42Ap     1.279713
      29App    1.280136    43Ap     1.284972    44Ap     1.329060
      30App    1.329190    45Ap     1.365063    31App    1.370953
      46Ap     1.371483    32App    1.393973    47Ap     1.407963
      33App    1.408469    48Ap     1.421927    34App    1.422407
      35App    1.428458    36App    1.492006    49Ap     1.510084
      50Ap     1.546870    37App    1.547234    38App    1.581930
      51Ap     1.582545    52Ap     1.675457    53Ap     1.744551
      39App    1.744784    54Ap     1.779098    40App    1.835595
      55Ap     1.835745    41App    1.971983    42App    2.024241
      56Ap     2.025032    57Ap     2.039889    43App    2.058340
      58Ap     2.059603    59Ap     2.746637    44App    2.746720
      45App    2.811754    60Ap     2.815867    61Ap     2.901917
      46App    2.903234    62Ap     2.924201    63Ap     2.931904
      47App    2.932303    48App    2.960109    49App    2.968650
      64Ap     2.969190    65Ap     3.041729    66Ap     3.081064
      50App    3.081340    51App    3.085755    52App    3.184389
      67Ap     3.184597    68Ap     3.187757    69Ap     3.290206
      53App    3.290582    54App    3.330670    70Ap     3.330775
      71Ap     3.383494    72Ap     3.492751    55App    3.492830
      56App    3.512229    73Ap     3.528060    57App    3.575127
      58App    3.581498    74Ap     3.581624    75Ap     3.671768
      59App    3.672414    76Ap     3.693550    60App    3.725579
      77Ap     3.725929    78Ap     3.781149    61App    3.781277
      79Ap     3.818006    80Ap     3.920596    62App    3.921353
      81Ap     4.044874    63App    4.118145    82Ap     4.118589
      83Ap     4.155240    64App    4.155549    84Ap     4.186580
      85Ap     4.208291    65App    4.208377    86Ap     4.209725
      66App    4.214944    87Ap     4.322771    67App    4.324422
      68App    4.362944    69App    4.433194    88Ap     4.434348
      70App    4.448311    89Ap     4.524061    71App    4.524409
      90Ap     4.587869    72App    4.588402    91Ap     4.624311
      92Ap     4.718519    73App    4.780605    93Ap     4.780875
      74App    4.838494    94Ap     4.968951    75App    5.007563
      95Ap     5.008139    96Ap     5.234256    97Ap     5.248651
      76App    5.249097    98Ap     5.361749    77App    5.361842
      78App    5.480450

    Final Occupation by Irrep:
             Ap   App
    DOCC [    10,    6 ]
    SOCC [     1,    0 ]

  @DF-UKS Final Energy:  -157.81304683415715

   => Energetics <=

    Nuclear Repulsion Energy =            125.3666580294869135
    One-Electron Energy =                -458.6938813136199542
    Two-Electron Energy =                 195.8214351269044187
    DFT Exchange-Correlation Energy =     -20.3072586769285302
    Empirical Dispersion Energy =           0.0000000000000000
    VV10 Nonlocal Energy =                  0.0000000000000000
    Total Energy =                       -157.8130468341571486

  UHF NO Occupations:
  HONO-2 :    9 Ap 1.9996025
  HONO-1 :   10 Ap 1.9989782
  HONO-0 :   11 Ap 1.0000000
  LUNO+0 :   12 Ap 0.0010218
  LUNO+1 :   13 Ap 0.0003975
  LUNO+2 :   14 Ap 0.0001987
  LUNO+3 :    7App 0.0001979

Computation Completed

Properties will be evaluated at   0.000000,   0.000000,   0.000000 [a0]

Properties computed using the SCF density matrix

  Nuclear Dipole Moment: [e a0]
     X:     0.8264      Y:    -0.0031      Z:     0.0000

  Electronic Dipole Moment: [e a0]
     X:    -0.7484      Y:     0.0030      Z:     0.0000

  Dipole Moment: [e a0]
     X:     0.0780      Y:    -0.0001      Z:     0.0000     Total:     0.0780

  Dipole Moment: [D]
     X:     0.1984      Y:    -0.0001      Z:     0.0000     Total:     0.1984

*** tstop() called on n066 at Fri Nov  5 11:47:37 2021
Module time:
	user time   =     543.29 seconds =       9.05 minutes
	system time =      11.82 seconds =       0.20 minutes
	total time  =        140 seconds =       2.33 minutes
Total time:
	user time   =     543.29 seconds =       9.05 minutes
	system time =      11.82 seconds =       0.20 minutes
	total time  =        140 seconds =       2.33 minutes
Grab this energy -157.81304683415715
    Psi4 stopped on: Friday, 05 November 2021 11:47AM
    Psi4 wall time for execution: 0:02:19.66

*** Psi4 exiting successfully. Buy a developer a beer!
