                               Psi4 1.4a2.dev629

  ==> Input File <==

--------------------------------------------------------------------------
import os
memory 14 GB

molecule {
 C   -0.3233266114    0.0000043781    0.0060202953
 C    0.0610174474   -1.3941318415   -2.4227435736
 C    0.0610158019    2.8017333481   -0.0080306988
 C    0.0612685470   -1.4075990966    2.4300079793
 H    2.0876831905   -1.6355676305   -2.8431050920
 H   -0.7657519356   -0.3789746460   -4.0184678658
 H   -0.7630222999   -3.2863466246   -2.3485678595
 H    2.0867921213    3.2880808733   -0.0104417999
 H   -0.7627478732    3.6877266136    1.6673213282
 H   -0.7685564897    3.6727250580   -1.6856424180
 H    2.0861940417   -1.6526251910    2.8517657626
 H   -0.7681267438   -3.2976124142    2.3494083519
 H   -0.7650470729   -0.3974371402    4.0324755905
units bohr
0 2
}

basis {

assign 6-31g_2dfp_

[ 6-31g_2dfp_ ]

spherical

!----------------------------------------------------------------------
! Basis Set Exchange
! Version v0.8.13
! https://www.basissetexchange.org
!----------------------------------------------------------------------
!   Basis set: 6-31G(2df,p)
! Description: 6-31G(2df,p)
!        Role: orbital
!     Version: 0  (Data from the original Basis Set Exchange)
!----------------------------------------------------------------------

****
H     0
S    3   1.00
     18.7311370              0.03349460
      2.8253937              0.23472695
      0.6401217              0.81375733
S    1   1.00
      0.1612778              1.00000000
P    1   1.00
      1.5000000              1.0000000
P    1   1.00
      0.3750000              1.0000000
****
B     0
S    6   1.00
   2068.8823000              0.0018663
    310.6495700              0.0142515
     70.6830330              0.0695516
     19.8610800              0.2325729
      6.2993048              0.4670787
      2.1270270              0.3634314
SP   3   1.00
      4.7279710             -0.1303938              0.0745976
      1.1903377             -0.1307889              0.3078467
      0.3594117              1.1309444              0.7434568
SP   1   1.00
      0.1267512              1.0000000              1.0000000
D    1   1.00
      0.8020000              1.0000000
D    1   1.00
      0.2005000              1.0000000
F    1   1.00
      0.5000000              1.0000000
****
C     0
S    6   1.00
   3047.5249000              0.0018347
    457.3695100              0.0140373
    103.9486900              0.0688426
     29.2101550              0.2321844
      9.2866630              0.4679413
      3.1639270              0.3623120
SP   3   1.00
      7.8682724             -0.1193324              0.0689991
      1.8812885             -0.1608542              0.3164240
      0.5442493              1.1434564              0.7443083
SP   1   1.00
      0.1687144              1.0000000              1.0000000
D    1   1.00
      1.2520000              1.0000000
D    1   1.00
      0.3130000              1.0000000
F    1   1.00
      0.8000000              1.0000000
****
N     0
S    6   1.00
   4173.5110000              0.0018348
    627.4579000              0.0139950
    142.9021000              0.0685870
     40.2343300              0.2322410
     12.8202100              0.4690700
      4.3904370              0.3604550
SP   3   1.00
     11.6263580             -0.1149610              0.0675800
      2.7162800             -0.1691180              0.3239070
      0.7722180              1.1458520              0.7408950
SP   1   1.00
      0.2120313              1.0000000              1.0000000
D    1   1.00
      1.8260000              1.0000000
D    1   1.00
      0.4565000              1.0000000
F    1   1.00
      1.0000000              1.0000000
****
O     0
S    6   1.00
   5484.6717000              0.0018311
    825.2349500              0.0139501
    188.0469600              0.0684451
     52.9645000              0.2327143
     16.8975700              0.4701930
      5.7996353              0.3585209
SP   3   1.00
     15.5396160             -0.1107775              0.0708743
      3.5999336             -0.1480263              0.3397528
      1.0137618              1.1307670              0.7271586
SP   1   1.00
      0.2700058              1.0000000              1.0000000
D    1   1.00
      2.5840000              1.0000000
D    1   1.00
      0.6460000              1.0000000
F    1   1.00
      1.4000000              1.0000000
****
F     0
S    6   1.00
   7001.7130900              0.0018196169
   1051.3660900              0.0139160796
    239.2856900              0.0684053245
     67.3974453              0.233185760
     21.5199573              0.471267439
      7.40310130             0.356618546
SP   3   1.00
     20.8479528             -0.108506975            0.0716287243
      4.80830834            -0.146451658            0.3459121030
      1.34406986             1.128688580            0.7224699570
SP   1   1.00
      0.358151393            1.0000000              1.0000000
D    1   1.00
      3.5000000              1.0000000
D    1   1.00
      0.8750000              1.0000000
F    1   1.00
      1.8500000              1.0000000
****
Al     0
S    6   1.00
  13983.1000000              0.00194267
   2098.7500000              0.0148599
    477.7050000              0.0728494
    134.3600000              0.2468300
     42.8709000              0.4872580
     14.5189000              0.3234960
SP   6   1.00
    239.6680000             -0.00292619             0.00460285
     57.4419000             -0.0374080              0.0331990
     18.2859000             -0.1144870              0.1362820
      6.5991400              0.1156350              0.3304760
      2.4904900              0.6125950              0.4491460
      0.9445400              0.3937990              0.2657040
SP   3   1.00
      1.2779000             -0.2276060             -0.0175130
      0.3975900              0.00144583             0.2445330
      0.1600950              1.0927900              0.8049340
SP   1   1.00
      0.0556577              1.0000000              1.0000000
D    1   1.00
      0.6500000              1.0000000
D    1   1.00
      0.1625000              1.0000000
F    1   1.00
      0.2500000              1.0000000
****
Si     0
S    6   1.00
  16115.9000000              0.00195948
   2425.5800000              0.01492880
    553.8670000              0.07284780
    156.3400000              0.24613000
     50.0683000              0.48591400
     17.0178000              0.32500200
SP   6   1.00
    292.7180000             -0.00278094             0.00443826
     69.8731000             -0.03571460             0.03266790
     22.3363000             -0.11498500             0.13472100
      8.1503900              0.09356340             0.32867800
      3.1345800              0.60301700             0.44964000
      1.2254300              0.41895900             0.26137200
SP   3   1.00
      1.7273800             -0.24463000            -0.01779510
      0.5729220              0.00431572             0.25353900
      0.2221920              1.09818000             0.80066900
SP   1   1.00
      0.0778369              1.00000000             1.00000000
D    1   1.00
      0.9000000              1.0000000
D    1   1.00
      0.2250000              1.0000000
F    1   1.00
      0.3200000              1.0000000
****
P     0
S    6   1.00
  19413.3000000              0.0018516
   2909.4200000              0.0142062
    661.3640000              0.0699995
    185.7590000              0.2400790
     59.1943000              0.4847620
     20.0310000              0.3352000
SP   6   1.00
    339.4780000             -0.00278217             0.00456462
     81.0101000             -0.0360499              0.03369360
     25.8780000             -0.1166310              0.13975500
      9.4522100              0.0968328              0.33936200
      3.6656600              0.6144180              0.45092100
      1.4674600              0.4037980              0.23858600
SP   3   1.00
      2.1562300             -0.2529230             -0.01776530
      0.7489970              0.0328517              0.27405800
      0.2831450              1.0812500              0.78542100
SP   1   1.00
      0.0998317              1.0000000              1.00000000
D    1   1.00
      1.1000000              1.0000000
D    1   1.00
      0.2750000              1.0000000
F    1   1.00
      0.4500000              1.0000000
****
S     0
S    6   1.00
  21917.1000000              0.0018690
   3301.4900000              0.0142300
    754.1460000              0.0696960
    212.7110000              0.2384870
     67.9896000              0.4833070
     23.0515000              0.3380740
SP   6   1.00
    423.7350000             -0.0023767              0.0040610
    100.7100000             -0.0316930              0.0306810
     32.1599000             -0.1133170              0.1304520
     11.8079000              0.0560900              0.3272050
      4.6311000              0.5922550              0.4528510
      1.8702500              0.4550060              0.2560420
SP   3   1.00
      2.6158400             -0.2503740             -0.0145110
      0.9221670              0.0669570              0.3102630
      0.3412870              1.0545100              0.7544830
SP   1   1.00
      0.1171670              1.0000000              1.0000000
D    1   1.00
      1.3000000              1.0000000
D    1   1.00
      0.3250000              1.0000000
F    1   1.00
      0.5500000              1.0000000
****
Cl     0
S    6   1.00
  25180.1000000              0.0018330
   3780.3500000              0.0140340
    860.4740000              0.0690970
    242.1450000              0.2374520
     77.3349000              0.4830340
     26.2470000              0.3398560
SP   6   1.00
    491.7650000             -0.0022974              0.0039894
    116.9840000             -0.0307140              0.0303180
     37.4153000             -0.1125280              0.1298800
     13.7834000              0.0450160              0.3279510
      5.4521500              0.5893530              0.4535270
      2.2258800              0.4652060              0.2521540
SP   3   1.00
      3.1864900             -0.2518300             -0.0142990
      1.1442700              0.0615890              0.3235720
      0.4203770              1.0601800              0.7435070
SP   1   1.00
      0.1426570              1.0000000              1.0000000
D    1   1.00
      1.5000000              1.0000000
D    1   1.00
      0.3750000              1.0000000
F    1   1.00
      0.7000000              1.0000000
****
}

set {
reference uhf
freeze_core true
e_convergence 10
d_convergence 10
dft_spherical_points 1202
dft_radial_points 99
}

e = energy('b3lyp')

print_out('Grab this energy {0}'.format(e))
--------------------------------------------------------------------------

    Molecular point group: c1

    Geometry (in Bohr), charge = 0, multiplicity = 2:

       Center              X                  Y                   Z               Mass
    ------------   -----------------  -----------------  -----------------  -----------------
         C           -0.323329533202     0.000003500023     0.005008336630    12.000000000000
         C            0.061014525598    -1.394132719577    -2.423755532270    12.000000000000
         C            0.061012880098     2.801732470023    -0.009042657470    12.000000000000
         C            0.061265625198    -1.407599974677     2.428996020630    12.000000000000
         H            2.087680268698    -1.635568508577    -2.844117050670     1.007825032230
         H           -0.765754857402    -0.378975524077    -4.019479824470     1.007825032230
         H           -0.763025221702    -3.286347502677    -2.349579818170     1.007825032230
         H            2.086789199498     3.288079995223    -0.011453758570     1.007825032230
         H           -0.762750795002     3.687725735523     1.666309369530     1.007825032230
         H           -0.768559411502     3.672724179923    -1.686654376670     1.007825032230
         H            2.086191119898    -1.652626069077     2.850753803930     1.007825032230
         H           -0.768129665602    -3.297613292277     2.348396393230     1.007825032230
         H           -0.765049994702    -0.397438018277     4.031463631830     1.007825032230

  Charge       = 0
  Multiplicity = 2
  Basis Set: ANONYMOUSA5B0631B
    Blend: 6-31G_2DFP_
  Basis Set: (ANONYMOUSA5B0631B AUX)
    Blend: DEF2-UNIVERSAL-JKFIT

    Orbital Energies [Eh]
    ---------------------

    Alpha Occupied:

       1A    -10.180341     2A    -10.167313     3A    -10.167016
       4A    -10.166717     5A     -0.797769     6A     -0.686486
       7A     -0.685886     8A     -0.530777     9A     -0.441129
      10A     -0.434926    11A     -0.434413    12A     -0.382782
      13A     -0.382415    14A     -0.363612    15A     -0.338563
      16A     -0.337429    17A     -0.168961

    Alpha Virtual:

      18A      0.076072    19A      0.133954    20A      0.134357
      21A      0.142552    22A      0.142701    23A      0.154879
      24A      0.178504    25A      0.179052    26A      0.203546
      27A      0.214810    28A      0.275942    29A      0.276029
      30A      0.399156    31A      0.399241    32A      0.403406
      33A      0.423965    34A      0.424244    35A      0.456598
      36A      0.494949    37A      0.495820    38A      0.512172
      39A      0.513988    40A      0.578597    41A      0.579013
      42A      0.591634    43A      0.591644    44A      0.602574
      45A      0.624767    46A      0.631749    47A      0.636034
      48A      0.636478    49A      0.663284    50A      0.663541
      51A      0.683604    52A      0.684111    53A      0.734994
      54A      0.824576    55A      0.826225    56A      0.853913
      57A      0.914680    58A      0.915376    59A      0.944056
      60A      0.944510    61A      0.961072    62A      0.961718
      63A      1.003466    64A      1.126942    65A      1.129302
      66A      1.142212    67A      1.162759    68A      1.163775
      69A      1.223320    70A      1.274169    71A      1.274852
      72A      1.279337    73A      1.324211    74A      1.324495
      75A      1.355991    76A      1.365069    77A      1.366992
      78A      1.392475    79A      1.403521    80A      1.404653
      81A      1.416878    82A      1.417339    83A      1.427937
      84A      1.491440    85A      1.499070    86A      1.542647
      87A      1.543020    88A      1.572315    89A      1.576688
      90A      1.669796    91A      1.738426    92A      1.740324
      93A      1.768430    94A      1.830823    95A      1.831984
      96A      1.971706    97A      2.017121    98A      2.018338
      99A      2.020943   100A      2.049526   101A      2.055831
     102A      2.738266   103A      2.738702   104A      2.790920
     105A      2.811445   106A      2.889180   107A      2.890717
     108A      2.894941   109A      2.929490   110A      2.929511
     111A      2.958968   112A      2.963212   113A      2.965589
     114A      3.034019   115A      3.070411   116A      3.072134
     117A      3.084386   118A      3.167904   119A      3.169688
     120A      3.180551   121A      3.284373   122A      3.286226
     123A      3.326167   124A      3.328158   125A      3.375689
     126A      3.489653   127A      3.490542   128A      3.514049
     129A      3.525300   130A      3.567087   131A      3.569521
     132A      3.575445   133A      3.666274   134A      3.666473
     135A      3.679718   136A      3.693638   137A      3.694565
     138A      3.775957   139A      3.777586   140A      3.789276
     141A      3.911160   142A      3.913297   143A      4.034473
     144A      4.109790   145A      4.112968   146A      4.146646
     147A      4.149577   148A      4.173234   149A      4.201396
     150A      4.202671   151A      4.204675   152A      4.210959
     153A      4.315137   154A      4.316750   155A      4.358995
     156A      4.423626   157A      4.425019   158A      4.443709
     159A      4.516205   160A      4.517500   161A      4.577473
     162A      4.579042   163A      4.617535   164A      4.709444
     165A      4.773141   166A      4.776061   167A      4.836944
     168A      4.962868   169A      5.001685   170A      5.004220
     171A      5.228000   172A      5.246445   173A      5.247242
     174A      5.354819   175A      5.356180   176A      5.479318

    Beta Occupied:

       1A    -10.168070     2A    -10.167775     3A    -10.167480
       4A    -10.166518     5A     -0.781094     6A     -0.684290
       7A     -0.683687     8A     -0.511748     9A     -0.431301
      10A     -0.430786    11A     -0.421820    12A     -0.376885
      13A     -0.376484    14A     -0.362595    15A     -0.333690
      16A     -0.332549

    Beta Virtual:

      17A     -0.025743    18A      0.077081    19A      0.134845
      20A      0.135246    21A      0.144411    22A      0.144584
      23A      0.163339    24A      0.182178    25A      0.182721
      26A      0.215039    27A      0.218928    28A      0.282264
      29A      0.282403    30A      0.400388    31A      0.400403
      32A      0.419788    33A      0.426763    34A      0.427074
      35A      0.468510    36A      0.497210    37A      0.498084
      38A      0.513908    39A      0.556329    40A      0.584177
      41A      0.584535    42A      0.597810    43A      0.597824
      44A      0.609998    45A      0.628142    46A      0.631915
      47A      0.639302    48A      0.639772    49A      0.666826
      50A      0.667126    51A      0.686186    52A      0.686801
      53A      0.757516    54A      0.829737    55A      0.831400
      56A      0.855267    57A      0.922638    58A      0.923359
      59A      0.945916    60A      0.953427    61A      0.966334
      62A      0.967061    63A      1.008704    64A      1.130991
      65A      1.133314    66A      1.155585    67A      1.167788
      68A      1.168892    69A      1.232290    70A      1.279790
      71A      1.280429    72A      1.285089    73A      1.329174
      74A      1.329511    75A      1.365408    76A      1.370180
      77A      1.372359    78A      1.393537    79A      1.407030
      80A      1.408079    81A      1.421900    82A      1.422405
      83A      1.428219    84A      1.492492    85A      1.509513
      86A      1.546961    87A      1.547513    88A      1.580345
      89A      1.584409    90A      1.674644    91A      1.744193
      92A      1.746087    93A      1.779201    94A      1.834662
      95A      1.835855    96A      1.972571    97A      2.023557
      98A      2.027354    99A      2.039664   100A      2.056309
     101A      2.062476   102A      2.746551   103A      2.747089
     104A      2.811857   105A      2.816054   106A      2.901914
     107A      2.903354   108A      2.924637   109A      2.931874
     110A      2.932109   111A      2.960044   112A      2.967790
     113A      2.970084   114A      3.041954   115A      3.080167
     116A      3.082063   117A      3.086347   118A      3.183745
     119A      3.185338   120A      3.188229   121A      3.289272
     122A      3.290930   123A      3.329952   124A      3.331984
     125A      3.383504   126A      3.492399   127A      3.493243
     128A      3.512432   129A      3.528357   130A      3.574679
     131A      3.580777   132A      3.583129   133A      3.670957
     134A      3.671288   135A      3.693006   136A      3.725499
     137A      3.725957   138A      3.780442   139A      3.782228
     140A      3.817748   141A      3.920999   142A      3.923094
     143A      4.045360   144A      4.116611   145A      4.119775
     146A      4.153877   147A      4.156769   148A      4.187294
     149A      4.207314   150A      4.210600   151A      4.210646
     152A      4.215458   153A      4.322527   154A      4.324243
     155A      4.362357   156A      4.431810   157A      4.433162
     158A      4.446697   159A      4.524076   160A      4.525202
     161A      4.587973   162A      4.589745   163A      4.624726
     164A      4.719790   165A      4.780077   166A      4.783031
     167A      4.839863   168A      4.967661   169A      5.005724
     170A      5.008260   171A      5.233707   172A      5.248237
     173A      5.249027   174A      5.361301   175A      5.362659
     176A      5.481639

    Final Occupation by Irrep:
              A
    DOCC [    16 ]
    SOCC [     1 ]

  @DF-UKS Final Energy:  -157.81306183710339

   => Energetics <=

    Nuclear Repulsion Energy =            125.3948980736682586
    One-Electron Energy =                -458.7494449241552275
    Two-Electron Energy =                 195.8486297263368670
    DFT Exchange-Correlation Energy =     -20.3071447129533276
    Empirical Dispersion Energy =           0.0000000000000000
    VV10 Nonlocal Energy =                  0.0000000000000000
    Total Energy =                       -157.8130618371033904

  UHF NO Occupations:
  HONO-2 :   15  A 1.9996009
  HONO-1 :   16  A 1.9989804
  HONO-0 :   17  A 1.0000000
  LUNO+0 :   18  A 0.0010196
  LUNO+1 :   19  A 0.0003991
  LUNO+2 :   20  A 0.0001983
  LUNO+3 :   21  A 0.0001968

Computation Completed

Properties will be evaluated at   0.000000,   0.000000,   0.000000 [a0]

Properties computed using the SCF density matrix

  Nuclear Dipole Moment: [e a0]
     X:     0.8272      Y:    -0.0000      Z:    -0.0071

  Electronic Dipole Moment: [e a0]
     X:    -0.7493      Y:     0.0000      Z:     0.0079

  Dipole Moment: [e a0]
     X:     0.0779      Y:    -0.0000      Z:     0.0008     Total:     0.0779

  Dipole Moment: [D]
     X:     0.1980      Y:    -0.0000      Z:     0.0020     Total:     0.1981

*** tstop() called on n036 at Fri Nov  5 12:12:30 2021
Module time:
	user time   =     634.88 seconds =      10.58 minutes
	system time =      12.09 seconds =       0.20 minutes
	total time  =        162 seconds =       2.70 minutes
Total time:
	user time   =     634.88 seconds =      10.58 minutes
	system time =      12.09 seconds =       0.20 minutes
	total time  =        162 seconds =       2.70 minutes
Grab this energy -157.8130618371034
    Psi4 stopped on: Friday, 05 November 2021 12:12PM
    Psi4 wall time for execution: 0:02:42.75

*** Psi4 exiting successfully. Buy a developer a beer!
