                               Psi4 1.4a2.dev629

  ==> Input File <==

--------------------------------------------------------------------------
import os
memory 14 GB

molecule {
 C   -0.3233394039   -0.0000017809   -0.0010209989
 C    0.0617879989   -1.4014862843   -2.4256348019
 C    0.0610195793    2.8017587276    0.0018021315
 C    0.0604922701   -1.4002669607    2.4271270900
 H    2.0868667383   -1.6438366745   -2.8476869518
 H   -0.7655163677   -0.3881802542   -4.0255315989
 H   -0.7658270439   -3.2918620773   -2.3491958398
 H    2.0867970716    3.2881009136   -0.0006989323
 H   -0.7657936804    3.6803414610    1.6762196179
 H   -0.7654983413    3.6801621349   -1.6767834018
 H    2.0870084965   -1.6443586652    2.8471932488
 H   -0.7653102859   -3.2921350957    2.3487779418
 H   -0.7652949083   -0.3882597578    4.0254324956
units bohr
0 2
}

basis {

assign 6-31g_2dfp_

[ 6-31g_2dfp_ ]

spherical

!----------------------------------------------------------------------
! Basis Set Exchange
! Version v0.8.13
! https://www.basissetexchange.org
!----------------------------------------------------------------------
!   Basis set: 6-31G(2df,p)
! Description: 6-31G(2df,p)
!        Role: orbital
!     Version: 0  (Data from the original Basis Set Exchange)
!----------------------------------------------------------------------

****
H     0
S    3   1.00
     18.7311370              0.03349460
      2.8253937              0.23472695
      0.6401217              0.81375733
S    1   1.00
      0.1612778              1.00000000
P    1   1.00
      1.5000000              1.0000000
P    1   1.00
      0.3750000              1.0000000
****
B     0
S    6   1.00
   2068.8823000              0.0018663
    310.6495700              0.0142515
     70.6830330              0.0695516
     19.8610800              0.2325729
      6.2993048              0.4670787
      2.1270270              0.3634314
SP   3   1.00
      4.7279710             -0.1303938              0.0745976
      1.1903377             -0.1307889              0.3078467
      0.3594117              1.1309444              0.7434568
SP   1   1.00
      0.1267512              1.0000000              1.0000000
D    1   1.00
      0.8020000              1.0000000
D    1   1.00
      0.2005000              1.0000000
F    1   1.00
      0.5000000              1.0000000
****
C     0
S    6   1.00
   3047.5249000              0.0018347
    457.3695100              0.0140373
    103.9486900              0.0688426
     29.2101550              0.2321844
      9.2866630              0.4679413
      3.1639270              0.3623120
SP   3   1.00
      7.8682724             -0.1193324              0.0689991
      1.8812885             -0.1608542              0.3164240
      0.5442493              1.1434564              0.7443083
SP   1   1.00
      0.1687144              1.0000000              1.0000000
D    1   1.00
      1.2520000              1.0000000
D    1   1.00
      0.3130000              1.0000000
F    1   1.00
      0.8000000              1.0000000
****
N     0
S    6   1.00
   4173.5110000              0.0018348
    627.4579000              0.0139950
    142.9021000              0.0685870
     40.2343300              0.2322410
     12.8202100              0.4690700
      4.3904370              0.3604550
SP   3   1.00
     11.6263580             -0.1149610              0.0675800
      2.7162800             -0.1691180              0.3239070
      0.7722180              1.1458520              0.7408950
SP   1   1.00
      0.2120313              1.0000000              1.0000000
D    1   1.00
      1.8260000              1.0000000
D    1   1.00
      0.4565000              1.0000000
F    1   1.00
      1.0000000              1.0000000
****
O     0
S    6   1.00
   5484.6717000              0.0018311
    825.2349500              0.0139501
    188.0469600              0.0684451
     52.9645000              0.2327143
     16.8975700              0.4701930
      5.7996353              0.3585209
SP   3   1.00
     15.5396160             -0.1107775              0.0708743
      3.5999336             -0.1480263              0.3397528
      1.0137618              1.1307670              0.7271586
SP   1   1.00
      0.2700058              1.0000000              1.0000000
D    1   1.00
      2.5840000              1.0000000
D    1   1.00
      0.6460000              1.0000000
F    1   1.00
      1.4000000              1.0000000
****
F     0
S    6   1.00
   7001.7130900              0.0018196169
   1051.3660900              0.0139160796
    239.2856900              0.0684053245
     67.3974453              0.233185760
     21.5199573              0.471267439
      7.40310130             0.356618546
SP   3   1.00
     20.8479528             -0.108506975            0.0716287243
      4.80830834            -0.146451658            0.3459121030
      1.34406986             1.128688580            0.7224699570
SP   1   1.00
      0.358151393            1.0000000              1.0000000
D    1   1.00
      3.5000000              1.0000000
D    1   1.00
      0.8750000              1.0000000
F    1   1.00
      1.8500000              1.0000000
****
Al     0
S    6   1.00
  13983.1000000              0.00194267
   2098.7500000              0.0148599
    477.7050000              0.0728494
    134.3600000              0.2468300
     42.8709000              0.4872580
     14.5189000              0.3234960
SP   6   1.00
    239.6680000             -0.00292619             0.00460285
     57.4419000             -0.0374080              0.0331990
     18.2859000             -0.1144870              0.1362820
      6.5991400              0.1156350              0.3304760
      2.4904900              0.6125950              0.4491460
      0.9445400              0.3937990              0.2657040
SP   3   1.00
      1.2779000             -0.2276060             -0.0175130
      0.3975900              0.00144583             0.2445330
      0.1600950              1.0927900              0.8049340
SP   1   1.00
      0.0556577              1.0000000              1.0000000
D    1   1.00
      0.6500000              1.0000000
D    1   1.00
      0.1625000              1.0000000
F    1   1.00
      0.2500000              1.0000000
****
Si     0
S    6   1.00
  16115.9000000              0.00195948
   2425.5800000              0.01492880
    553.8670000              0.07284780
    156.3400000              0.24613000
     50.0683000              0.48591400
     17.0178000              0.32500200
SP   6   1.00
    292.7180000             -0.00278094             0.00443826
     69.8731000             -0.03571460             0.03266790
     22.3363000             -0.11498500             0.13472100
      8.1503900              0.09356340             0.32867800
      3.1345800              0.60301700             0.44964000
      1.2254300              0.41895900             0.26137200
SP   3   1.00
      1.7273800             -0.24463000            -0.01779510
      0.5729220              0.00431572             0.25353900
      0.2221920              1.09818000             0.80066900
SP   1   1.00
      0.0778369              1.00000000             1.00000000
D    1   1.00
      0.9000000              1.0000000
D    1   1.00
      0.2250000              1.0000000
F    1   1.00
      0.3200000              1.0000000
****
P     0
S    6   1.00
  19413.3000000              0.0018516
   2909.4200000              0.0142062
    661.3640000              0.0699995
    185.7590000              0.2400790
     59.1943000              0.4847620
     20.0310000              0.3352000
SP   6   1.00
    339.4780000             -0.00278217             0.00456462
     81.0101000             -0.0360499              0.03369360
     25.8780000             -0.1166310              0.13975500
      9.4522100              0.0968328              0.33936200
      3.6656600              0.6144180              0.45092100
      1.4674600              0.4037980              0.23858600
SP   3   1.00
      2.1562300             -0.2529230             -0.01776530
      0.7489970              0.0328517              0.27405800
      0.2831450              1.0812500              0.78542100
SP   1   1.00
      0.0998317              1.0000000              1.00000000
D    1   1.00
      1.1000000              1.0000000
D    1   1.00
      0.2750000              1.0000000
F    1   1.00
      0.4500000              1.0000000
****
S     0
S    6   1.00
  21917.1000000              0.0018690
   3301.4900000              0.0142300
    754.1460000              0.0696960
    212.7110000              0.2384870
     67.9896000              0.4833070
     23.0515000              0.3380740
SP   6   1.00
    423.7350000             -0.0023767              0.0040610
    100.7100000             -0.0316930              0.0306810
     32.1599000             -0.1133170              0.1304520
     11.8079000              0.0560900              0.3272050
      4.6311000              0.5922550              0.4528510
      1.8702500              0.4550060              0.2560420
SP   3   1.00
      2.6158400             -0.2503740             -0.0145110
      0.9221670              0.0669570              0.3102630
      0.3412870              1.0545100              0.7544830
SP   1   1.00
      0.1171670              1.0000000              1.0000000
D    1   1.00
      1.3000000              1.0000000
D    1   1.00
      0.3250000              1.0000000
F    1   1.00
      0.5500000              1.0000000
****
Cl     0
S    6   1.00
  25180.1000000              0.0018330
   3780.3500000              0.0140340
    860.4740000              0.0690970
    242.1450000              0.2374520
     77.3349000              0.4830340
     26.2470000              0.3398560
SP   6   1.00
    491.7650000             -0.0022974              0.0039894
    116.9840000             -0.0307140              0.0303180
     37.4153000             -0.1125280              0.1298800
     13.7834000              0.0450160              0.3279510
      5.4521500              0.5893530              0.4535270
      2.2258800              0.4652060              0.2521540
SP   3   1.00
      3.1864900             -0.2518300             -0.0142990
      1.1442700              0.0615890              0.3235720
      0.4203770              1.0601800              0.7435070
SP   1   1.00
      0.1426570              1.0000000              1.0000000
D    1   1.00
      1.5000000              1.0000000
D    1   1.00
      0.3750000              1.0000000
F    1   1.00
      0.7000000              1.0000000
****
}

set {
reference uhf
freeze_core true
e_convergence 10
d_convergence 10
dft_spherical_points 1202
dft_radial_points 99
}

e = energy('b3lyp')

print_out('Grab this energy {0}'.format(e))
--------------------------------------------------------------------------

    Molecular point group: c1

    Geometry (in Bohr), charge = 0, multiplicity = 2:

       Center              X                  Y                   Z               Mass
    ------------   -----------------  -----------------  -----------------  -----------------
         C           -0.323339486576    -0.000002064514    -0.001458876105    12.000000000000
         C            0.061787916224    -1.401486567914    -2.426072679105    12.000000000000
         C            0.061019496624     2.801758443986     0.001364254295    12.000000000000
         C            0.060492187424    -1.400267244314     2.426689212795    12.000000000000
         H            2.086866655624    -1.643836958114    -2.848124829005     1.007825032230
         H           -0.765516450376    -0.388180537814    -4.025969476105     1.007825032230
         H           -0.765827126576    -3.291862360914    -2.349633717005     1.007825032230
         H            2.086796988924     3.288100629986    -0.001136809505     1.007825032230
         H           -0.765793763076     3.680341177386     1.675781740695     1.007825032230
         H           -0.765498423976     3.680161851286    -1.677221279005     1.007825032230
         H            2.087008413824    -1.644358948814     2.846755371595     1.007825032230
         H           -0.765310368576    -3.292135379314     2.348340064595     1.007825032230
         H           -0.765294990976    -0.388260041414     4.024994618395     1.007825032230

  Charge       = 0
  Multiplicity = 2
  Basis Set: ANONYMOUS7360D1EC
    Blend: 6-31G_2DFP_
  Basis Set: (ANONYMOUS7360D1EC AUX)
    Blend: DEF2-UNIVERSAL-JKFIT

    Orbital Energies [Eh]
    ---------------------

    Alpha Occupied:

       1A    -10.180342     2A    -10.167049     3A    -10.167020
       4A    -10.166975     5A     -0.797766     6A     -0.686266
       7A     -0.686107     8A     -0.530776     9A     -0.441125
      10A     -0.434679    11A     -0.434662    12A     -0.382638
      13A     -0.382561    14A     -0.363609    15A     -0.338293
      16A     -0.337706    17A     -0.168961

    Alpha Virtual:

      18A      0.076072    19A      0.134118    20A      0.134194
      21A      0.142564    22A      0.142692    23A      0.154879
      24A      0.178728    25A      0.178828    26A      0.203546
      27A      0.214803    28A      0.275860    29A      0.276111
      30A      0.399120    31A      0.399338    32A      0.403342
      33A      0.424093    34A      0.424102    35A      0.456593
      36A      0.495355    37A      0.495425    38A      0.512160
      39A      0.513979    40A      0.578776    41A      0.578860
      42A      0.591614    43A      0.591652    44A      0.602571
      45A      0.624760    46A      0.631770    47A      0.636246
      48A      0.636255    49A      0.663322    50A      0.663501
      51A      0.683842    52A      0.683864    53A      0.734994
      54A      0.825404    55A      0.825411    56A      0.853916
      57A      0.914921    58A      0.915131    59A      0.944126
      60A      0.944613    61A      0.961228    62A      0.961355
      63A      1.003453    64A      1.128094    65A      1.128130
      66A      1.142211    67A      1.163248    68A      1.163294
      69A      1.223324    70A      1.274310    71A      1.274670
      72A      1.279355    73A      1.324301    74A      1.324416
      75A      1.355993    76A      1.365818    77A      1.366292
      78A      1.392439    79A      1.403817    80A      1.404300
      81A      1.416845    82A      1.417372    83A      1.427916
      84A      1.491494    85A      1.499079    86A      1.542657
      87A      1.543000    88A      1.574131    89A      1.574765
      90A      1.669815    91A      1.739306    92A      1.739521
      93A      1.768333    94A      1.831328    95A      1.831467
      96A      1.971722    97A      2.018144    98A      2.018733
      99A      2.019514   100A      2.052035   101A      2.053239
     102A      2.738438   103A      2.738533   104A      2.790922
     105A      2.811427   106A      2.889285   107A      2.890625
     108A      2.894937   109A      2.929328   110A      2.929663
     111A      2.958993   112A      2.964086   113A      2.964670
     114A      3.034009   115A      3.071153   116A      3.071417
     117A      3.084350   118A      3.168653   119A      3.168890
     120A      3.180604   121A      3.285096   122A      3.285532
     123A      3.327114   124A      3.327204   125A      3.375621
     126A      3.490120   127A      3.490200   128A      3.514017
     129A      3.525330   130A      3.568289   131A      3.568490
     132A      3.575145   133A      3.666169   134A      3.666582
     135A      3.679684   136A      3.694107   137A      3.694139
     138A      3.776790   139A      3.776818   140A      3.789115
     141A      3.911866   142A      3.912573   143A      4.034461
     144A      4.111154   145A      4.111597   146A      4.147938
     147A      4.148312   148A      4.173248   149A      4.202586
     150A      4.203068   151A      4.203139   152A      4.210845
     153A      4.315170   154A      4.316749   155A      4.358970
     156A      4.423878   157A      4.424997   158A      4.443460
     159A      4.516652   160A      4.517023   161A      4.577986
     162A      4.578562   163A      4.617527   164A      4.709457
     165A      4.774436   166A      4.774743   167A      4.836907
     168A      4.962862   169A      5.002666   170A      5.003228
     171A      5.228032   172A      5.246577   173A      5.247055
     174A      5.355479   175A      5.355526   176A      5.479351

    Beta Occupied:

       1A    -10.167805     2A    -10.167776     3A    -10.167743
       4A    -10.166519     5A     -0.781091     6A     -0.684066
       7A     -0.683912     8A     -0.511747     9A     -0.431058
      10A     -0.431027    11A     -0.421821    12A     -0.376730
      13A     -0.376639    14A     -0.362593    15A     -0.333415
      16A     -0.332829

    Beta Virtual:

      17A     -0.025742    18A      0.077081    19A      0.134996
      20A      0.135096    21A      0.144453    22A      0.144544
      23A      0.163338    24A      0.182411    25A      0.182487
      26A      0.215032    27A      0.218929    28A      0.282222
      29A      0.282445    30A      0.400289    31A      0.400507
      32A      0.419789    33A      0.426904    34A      0.426915
      35A      0.468501    36A      0.497618    37A      0.497683
      38A      0.513895    39A      0.556325    40A      0.584326
      41A      0.584410    42A      0.597785    43A      0.597841
      44A      0.609994    45A      0.628136    46A      0.631928
      47A      0.639531    48A      0.639538    49A      0.666882
      50A      0.667069    51A      0.686475    52A      0.686501
      53A      0.757518    54A      0.830574    55A      0.830577
      56A      0.855269    57A      0.922892    58A      0.923103
      59A      0.945963    60A      0.953542    61A      0.966544
      62A      0.966651    63A      1.008693    64A      1.132132
      65A      1.132149    66A      1.155583    67A      1.168314
      68A      1.168382    69A      1.232297    70A      1.279880
      71A      1.280292    72A      1.285110    73A      1.329280
      74A      1.329416    75A      1.365410    76A      1.371035
      77A      1.371560    78A      1.393497    79A      1.407272
      80A      1.407774    81A      1.421915    82A      1.422400
      83A      1.428187    84A      1.492542    85A      1.509523
      86A      1.547052    87A      1.547419    88A      1.582011
      89A      1.582629    90A      1.674663    91A      1.745069
      92A      1.745282    93A      1.779111    94A      1.835185
      95A      1.835320    96A      1.972582    97A      2.025038
      98A      2.025855    99A      2.039677   100A      2.058728
     101A      2.059975   102A      2.746780   103A      2.746862
     104A      2.811839   105A      2.816058   106A      2.901986
     107A      2.903299   108A      2.924646   109A      2.931776
     110A      2.932178   111A      2.960056   112A      2.968641
     113A      2.969201   114A      3.041944   115A      3.081055
     116A      3.081336   117A      3.086165   118A      3.184368
     119A      3.184651   120A      3.188311   121A      3.289924
     122A      3.290300   123A      3.330906   124A      3.331022
     125A      3.383439   126A      3.492835   127A      3.492945
     128A      3.512381   129A      3.528375   130A      3.574993
     131A      3.581678   132A      3.581793   133A      3.670826
     134A      3.671430   135A      3.692969   136A      3.725580
     137A      3.725930   138A      3.781274   139A      3.781386
     140A      3.817660   141A      3.921662   142A      3.922411
     143A      4.045348   144A      4.117969   145A      4.118412
     146A      4.155183   147A      4.155484   148A      4.187310
     149A      4.208963   150A      4.209038   151A      4.210637
     152A      4.215317   153A      4.322578   154A      4.324223
     155A      4.362332   156A      4.432091   157A      4.433204
     158A      4.446352   159A      4.524457   160A      4.524800
     161A      4.588610   162A      4.589142   163A      4.624719
     164A      4.719803   165A      4.781408   166A      4.781677
     167A      4.839823   168A      4.967656   169A      5.006704
     170A      5.007268   171A      5.233746   172A      5.248370
     173A      5.248832   174A      5.361941   175A      5.362026
     176A      5.481672

    Final Occupation by Irrep:
              A
    DOCC [    16 ]
    SOCC [     1 ]

  @DF-UKS Final Energy:  -157.81307178927898

   => Energetics <=

    Nuclear Repulsion Energy =            125.3945908768791213
    One-Electron Energy =                -458.7488540289623415
    Two-Electron Energy =                 195.8483330726477050
    DFT Exchange-Correlation Energy =     -20.3071417098434779
    Empirical Dispersion Energy =           0.0000000000000000
    VV10 Nonlocal Energy =                  0.0000000000000000
    Total Energy =                       -157.8130717892789789

  UHF NO Occupations:
  HONO-2 :   15  A 1.9996009
  HONO-1 :   16  A 1.9989805
  HONO-0 :   17  A 1.0000000
  LUNO+0 :   18  A 0.0010195
  LUNO+1 :   19  A 0.0003991
  LUNO+2 :   20  A 0.0001980
  LUNO+3 :   21  A 0.0001971

Computation Completed

Properties will be evaluated at   0.000000,   0.000000,   0.000000 [a0]

Properties computed using the SCF density matrix

  Nuclear Dipole Moment: [e a0]
     X:     0.8272      Y:    -0.0000      Z:    -0.0031

  Electronic Dipole Moment: [e a0]
     X:    -0.7493      Y:     0.0000      Z:     0.0030

  Dipole Moment: [e a0]
     X:     0.0779      Y:     0.0000      Z:    -0.0000     Total:     0.0779

  Dipole Moment: [D]
     X:     0.1980      Y:     0.0000      Z:    -0.0001     Total:     0.1980

*** tstop() called on n021 at Fri Nov  5 11:59:31 2021
Module time:
	user time   =     634.79 seconds =      10.58 minutes
	system time =      12.24 seconds =       0.20 minutes
	total time  =        163 seconds =       2.72 minutes
Total time:
	user time   =     634.79 seconds =      10.58 minutes
	system time =      12.24 seconds =       0.20 minutes
	total time  =        163 seconds =       2.72 minutes
Grab this energy -157.81307178927898
    Psi4 stopped on: Friday, 05 November 2021 11:59AM
    Psi4 wall time for execution: 0:02:42.66

*** Psi4 exiting successfully. Buy a developer a beer!
