                               Psi4 1.4a2.dev629

  ==> Input File <==

--------------------------------------------------------------------------
import os
memory 14 GB

molecule {
 C   -0.3233398455    0.0007929647    0.0000000000
 C    0.0606817013   -1.4021235119   -2.4245793999
 C    0.0619363761    2.8036338589   -0.0000000000
 C    0.0606817013   -1.4021235119    2.4245793999
 H    2.0869355403   -1.6435809027   -2.8480765881
 H   -0.7650521897   -0.3880685631   -4.0258047750
 H   -0.7655776834   -3.2918826336   -2.3494889137
 H    2.0867970225    3.2875185033    0.0000000000
 H   -0.7659880834    3.6796707910    1.6765581606
 H   -0.7659880834    3.6796707910   -1.6765581606
 H    2.0869355403   -1.6435809027    2.8480765881
 H   -0.7655776834   -3.2918826336    2.3494889137
 H   -0.7650521897   -0.3880685631    4.0258047750
units bohr
0 2
}

basis {

assign 6-31g_2dfp_

[ 6-31g_2dfp_ ]

spherical

!----------------------------------------------------------------------
! Basis Set Exchange
! Version v0.8.13
! https://www.basissetexchange.org
!----------------------------------------------------------------------
!   Basis set: 6-31G(2df,p)
! Description: 6-31G(2df,p)
!        Role: orbital
!     Version: 0  (Data from the original Basis Set Exchange)
!----------------------------------------------------------------------

****
H     0
S    3   1.00
     18.7311370              0.03349460
      2.8253937              0.23472695
      0.6401217              0.81375733
S    1   1.00
      0.1612778              1.00000000
P    1   1.00
      1.5000000              1.0000000
P    1   1.00
      0.3750000              1.0000000
****
B     0
S    6   1.00
   2068.8823000              0.0018663
    310.6495700              0.0142515
     70.6830330              0.0695516
     19.8610800              0.2325729
      6.2993048              0.4670787
      2.1270270              0.3634314
SP   3   1.00
      4.7279710             -0.1303938              0.0745976
      1.1903377             -0.1307889              0.3078467
      0.3594117              1.1309444              0.7434568
SP   1   1.00
      0.1267512              1.0000000              1.0000000
D    1   1.00
      0.8020000              1.0000000
D    1   1.00
      0.2005000              1.0000000
F    1   1.00
      0.5000000              1.0000000
****
C     0
S    6   1.00
   3047.5249000              0.0018347
    457.3695100              0.0140373
    103.9486900              0.0688426
     29.2101550              0.2321844
      9.2866630              0.4679413
      3.1639270              0.3623120
SP   3   1.00
      7.8682724             -0.1193324              0.0689991
      1.8812885             -0.1608542              0.3164240
      0.5442493              1.1434564              0.7443083
SP   1   1.00
      0.1687144              1.0000000              1.0000000
D    1   1.00
      1.2520000              1.0000000
D    1   1.00
      0.3130000              1.0000000
F    1   1.00
      0.8000000              1.0000000
****
N     0
S    6   1.00
   4173.5110000              0.0018348
    627.4579000              0.0139950
    142.9021000              0.0685870
     40.2343300              0.2322410
     12.8202100              0.4690700
      4.3904370              0.3604550
SP   3   1.00
     11.6263580             -0.1149610              0.0675800
      2.7162800             -0.1691180              0.3239070
      0.7722180              1.1458520              0.7408950
SP   1   1.00
      0.2120313              1.0000000              1.0000000
D    1   1.00
      1.8260000              1.0000000
D    1   1.00
      0.4565000              1.0000000
F    1   1.00
      1.0000000              1.0000000
****
O     0
S    6   1.00
   5484.6717000              0.0018311
    825.2349500              0.0139501
    188.0469600              0.0684451
     52.9645000              0.2327143
     16.8975700              0.4701930
      5.7996353              0.3585209
SP   3   1.00
     15.5396160             -0.1107775              0.0708743
      3.5999336             -0.1480263              0.3397528
      1.0137618              1.1307670              0.7271586
SP   1   1.00
      0.2700058              1.0000000              1.0000000
D    1   1.00
      2.5840000              1.0000000
D    1   1.00
      0.6460000              1.0000000
F    1   1.00
      1.4000000              1.0000000
****
F     0
S    6   1.00
   7001.7130900              0.0018196169
   1051.3660900              0.0139160796
    239.2856900              0.0684053245
     67.3974453              0.233185760
     21.5199573              0.471267439
      7.40310130             0.356618546
SP   3   1.00
     20.8479528             -0.108506975            0.0716287243
      4.80830834            -0.146451658            0.3459121030
      1.34406986             1.128688580            0.7224699570
SP   1   1.00
      0.358151393            1.0000000              1.0000000
D    1   1.00
      3.5000000              1.0000000
D    1   1.00
      0.8750000              1.0000000
F    1   1.00
      1.8500000              1.0000000
****
Al     0
S    6   1.00
  13983.1000000              0.00194267
   2098.7500000              0.0148599
    477.7050000              0.0728494
    134.3600000              0.2468300
     42.8709000              0.4872580
     14.5189000              0.3234960
SP   6   1.00
    239.6680000             -0.00292619             0.00460285
     57.4419000             -0.0374080              0.0331990
     18.2859000             -0.1144870              0.1362820
      6.5991400              0.1156350              0.3304760
      2.4904900              0.6125950              0.4491460
      0.9445400              0.3937990              0.2657040
SP   3   1.00
      1.2779000             -0.2276060             -0.0175130
      0.3975900              0.00144583             0.2445330
      0.1600950              1.0927900              0.8049340
SP   1   1.00
      0.0556577              1.0000000              1.0000000
D    1   1.00
      0.6500000              1.0000000
D    1   1.00
      0.1625000              1.0000000
F    1   1.00
      0.2500000              1.0000000
****
Si     0
S    6   1.00
  16115.9000000              0.00195948
   2425.5800000              0.01492880
    553.8670000              0.07284780
    156.3400000              0.24613000
     50.0683000              0.48591400
     17.0178000              0.32500200
SP   6   1.00
    292.7180000             -0.00278094             0.00443826
     69.8731000             -0.03571460             0.03266790
     22.3363000             -0.11498500             0.13472100
      8.1503900              0.09356340             0.32867800
      3.1345800              0.60301700             0.44964000
      1.2254300              0.41895900             0.26137200
SP   3   1.00
      1.7273800             -0.24463000            -0.01779510
      0.5729220              0.00431572             0.25353900
      0.2221920              1.09818000             0.80066900
SP   1   1.00
      0.0778369              1.00000000             1.00000000
D    1   1.00
      0.9000000              1.0000000
D    1   1.00
      0.2250000              1.0000000
F    1   1.00
      0.3200000              1.0000000
****
P     0
S    6   1.00
  19413.3000000              0.0018516
   2909.4200000              0.0142062
    661.3640000              0.0699995
    185.7590000              0.2400790
     59.1943000              0.4847620
     20.0310000              0.3352000
SP   6   1.00
    339.4780000             -0.00278217             0.00456462
     81.0101000             -0.0360499              0.03369360
     25.8780000             -0.1166310              0.13975500
      9.4522100              0.0968328              0.33936200
      3.6656600              0.6144180              0.45092100
      1.4674600              0.4037980              0.23858600
SP   3   1.00
      2.1562300             -0.2529230             -0.01776530
      0.7489970              0.0328517              0.27405800
      0.2831450              1.0812500              0.78542100
SP   1   1.00
      0.0998317              1.0000000              1.00000000
D    1   1.00
      1.1000000              1.0000000
D    1   1.00
      0.2750000              1.0000000
F    1   1.00
      0.4500000              1.0000000
****
S     0
S    6   1.00
  21917.1000000              0.0018690
   3301.4900000              0.0142300
    754.1460000              0.0696960
    212.7110000              0.2384870
     67.9896000              0.4833070
     23.0515000              0.3380740
SP   6   1.00
    423.7350000             -0.0023767              0.0040610
    100.7100000             -0.0316930              0.0306810
     32.1599000             -0.1133170              0.1304520
     11.8079000              0.0560900              0.3272050
      4.6311000              0.5922550              0.4528510
      1.8702500              0.4550060              0.2560420
SP   3   1.00
      2.6158400             -0.2503740             -0.0145110
      0.9221670              0.0669570              0.3102630
      0.3412870              1.0545100              0.7544830
SP   1   1.00
      0.1171670              1.0000000              1.0000000
D    1   1.00
      1.3000000              1.0000000
D    1   1.00
      0.3250000              1.0000000
F    1   1.00
      0.5500000              1.0000000
****
Cl     0
S    6   1.00
  25180.1000000              0.0018330
   3780.3500000              0.0140340
    860.4740000              0.0690970
    242.1450000              0.2374520
     77.3349000              0.4830340
     26.2470000              0.3398560
SP   6   1.00
    491.7650000             -0.0022974              0.0039894
    116.9840000             -0.0307140              0.0303180
     37.4153000             -0.1125280              0.1298800
     13.7834000              0.0450160              0.3279510
      5.4521500              0.5893530              0.4535270
      2.2258800              0.4652060              0.2521540
SP   3   1.00
      3.1864900             -0.2518300             -0.0142990
      1.1442700              0.0615890              0.3235720
      0.4203770              1.0601800              0.7435070
SP   1   1.00
      0.1426570              1.0000000              1.0000000
D    1   1.00
      1.5000000              1.0000000
D    1   1.00
      0.3750000              1.0000000
F    1   1.00
      0.7000000              1.0000000
****
}

set {
reference uhf
freeze_core true
e_convergence 10
d_convergence 10
dft_spherical_points 1202
dft_radial_points 99
}

e = energy('b3lyp')

print_out('Grab this energy {0}'.format(e))
--------------------------------------------------------------------------

    Molecular point group: cs

    Geometry (in Bohr), charge = 0, multiplicity = 2:

       Center              X                  Y                   Z               Mass
    ------------   -----------------  -----------------  -----------------  -----------------
         C           -0.323339829715     0.000758763327     0.000000000000    12.000000000000
         C            0.060681717085    -1.402157713273    -2.424579399900    12.000000000000
         C            0.061936391885     2.803599657527     0.000000000000    12.000000000000
         C            0.060681717085    -1.402157713273     2.424579399900    12.000000000000
         H            2.086935556085    -1.643615104073    -2.848076588100     1.007825032230
         H           -0.765052173915    -0.388102764473    -4.025804775000     1.007825032230
         H           -0.765577667615    -3.291916834973    -2.349488913700     1.007825032230
         H            2.086797038285     3.287484301927     0.000000000000     1.007825032230
         H           -0.765988067615     3.679636589627     1.676558160600     1.007825032230
         H           -0.765988067615     3.679636589627    -1.676558160600     1.007825032230
         H            2.086935556085    -1.643615104073     2.848076588100     1.007825032230
         H           -0.765577667615    -3.291916834973     2.349488913700     1.007825032230
         H           -0.765052173915    -0.388102764473     4.025804775000     1.007825032230

  Charge       = 0
  Multiplicity = 2
  Basis Set: ANONYMOUS9349C544
    Blend: 6-31G_2DFP_
  Basis Set: (ANONYMOUS9349C544 AUX)
    Blend: DEF2-UNIVERSAL-JKFIT

    Orbital Energies [Eh]
    ---------------------

    Alpha Occupied:

       1Ap   -10.180342     1App  -10.167036     2Ap   -10.167026
       3Ap   -10.166983     4Ap    -0.797766     5Ap    -0.686290
       2App   -0.686084     6Ap    -0.530776     7Ap    -0.441126
       3App   -0.434762     8Ap    -0.434579     9Ap    -0.382727
       4App   -0.382472     5App   -0.363611    10Ap    -0.338084
       6App   -0.337911    11Ap    -0.168961

    Alpha Virtual:

      12Ap     0.076072     7App    0.134101    13Ap     0.134211
      14Ap     0.142626     8App    0.142629    15Ap     0.154880
       9App    0.178746    16Ap     0.178810    17Ap     0.203546
      10App    0.214802    18Ap     0.275887    11App    0.276084
      12App    0.399132    19Ap     0.399323    20Ap     0.403344
      21Ap     0.424050    13App    0.424147    22Ap     0.456594
      23Ap     0.495331    14App    0.495448    15App    0.512160
      24Ap     0.513981    25Ap     0.578815    16App    0.578816
      17App    0.591555    26Ap     0.591714    27Ap     0.602573
      28Ap     0.624758    18App    0.631776    29Ap     0.636089
      19App    0.636407    20App    0.663383    30Ap     0.663439
      21App    0.683846    31Ap     0.683862    32Ap     0.734994
      22App    0.825355    33Ap     0.825460    23App    0.853916
      34Ap     0.914908    24App    0.915144    25App    0.944126
      35Ap     0.944612    26App    0.961188    36Ap     0.961396
      37Ap     1.003454    38Ap     1.128002    27App    1.128210
      39Ap     1.142213    40Ap     1.162976    28App    1.163581
      41Ap     1.223321    42Ap     1.274366    29App    1.274614
      43Ap     1.279359    44Ap     1.324349    30App    1.324362
      45Ap     1.355994    46Ap     1.365674    31App    1.366443
      32App    1.392404    33App    1.403667    47Ap     1.404472
      34App    1.416986    48Ap     1.417217    35App    1.427947
      36App    1.491488    49Ap     1.499081    37App    1.542727
      50Ap     1.542928    51Ap     1.573934    38App    1.574961
      52Ap     1.669808    39App    1.739178    53Ap     1.739654
      54Ap     1.768341    40App    1.830961    55Ap     1.831835
      41App    1.971719    56Ap     2.018036    57Ap     2.018341
      42App    2.020026    58Ap     2.051364    43App    2.053921
      44App    2.738317    59Ap     2.738654    60Ap     2.790923
      45App    2.811427    46App    2.889361    61Ap     2.890539
      62Ap     2.894943    47App    2.929393    63Ap     2.929602
      48App    2.958988    64Ap     2.963999    49App    2.964765
      65Ap     3.034010    50App    3.071012    66Ap     3.071554
      51App    3.084352    67Ap     3.168468    52App    3.169096
      68Ap     3.180582    53App    3.285105    69Ap     3.285522
      70Ap     3.326922    54App    3.327398    71Ap     3.375619
      72Ap     3.489874    55App    3.490426    56App    3.514022
      73Ap     3.525331    74Ap     3.568218    57App    3.568553
      58App    3.575151    59App    3.665511    75Ap     3.667276
      76Ap     3.679635    60App    3.693990    77Ap     3.694276
      78Ap     3.776604    61App    3.776997    79Ap     3.789120
      80Ap     3.911827    62App    3.912623    81Ap     4.034462
      82Ap     4.110991    63App    4.111750    83Ap     4.148016
      64App    4.148247    84Ap     4.173240    85Ap     4.202445
      86Ap     4.202915    65App    4.203433    66App    4.210860
      67App    4.315872    87Ap     4.316016    68App    4.358969
      88Ap     4.422960    69App    4.425937    70App    4.443459
      89Ap     4.516367    71App    4.517311    72App    4.578005
      90Ap     4.578540    91Ap     4.617526    92Ap     4.709453
      73App    4.774401    93Ap     4.774752    74App    4.836936
      94Ap     4.962818    75App    5.002512    95Ap     5.003432
      96Ap     5.228024    76App    5.246771    97Ap     5.246877
      98Ap     5.355454    77App    5.355549    78App    5.479349

    Beta Occupied:

       1App  -10.167790     1Ap   -10.167780     2Ap   -10.167754
       3Ap   -10.166519     4Ap    -0.781091     5Ap    -0.684095
       2App   -0.683883     6Ap    -0.511747     3App   -0.431141
       7Ap    -0.430945     8Ap    -0.421821     9Ap    -0.376839
       4App   -0.376531     5App   -0.362594    10Ap    -0.333206
       6App   -0.333036

    Beta Virtual:

      11Ap    -0.025742    12Ap     0.077081     7App    0.135000
      13Ap     0.135092    14Ap     0.144496     8App    0.144501
      15Ap     0.163339     9App    0.182418    16Ap     0.182481
      10App    0.215032    17Ap     0.218929    18Ap     0.282230
      11App    0.282437    12App    0.400297    19Ap     0.400496
      20Ap     0.419788    21Ap     0.426861    13App    0.426960
      22Ap     0.468502    23Ap     0.497589    14App    0.497712
      15App    0.513895    24Ap     0.556326    25Ap     0.584360
      16App    0.584371    17App    0.597726    26Ap     0.597903
      27Ap     0.609997    28Ap     0.628133    18App    0.631931
      29Ap     0.639375    19App    0.639692    20App    0.666949
      30Ap     0.667001    31Ap     0.686483    21App    0.686495
      32Ap     0.757518    22App    0.830516    33Ap     0.830636
      23App    0.855269    34Ap     0.922877    24App    0.923117
      25App    0.945963    35Ap     0.953540    26App    0.966507
      36Ap     0.966689    37Ap     1.008694    38Ap     1.132056
      27App    1.132221    39Ap     1.155563    40Ap     1.168041
      28App    1.168683    41Ap     1.232294    42Ap     1.279988
      29App    1.280189    43Ap     1.285110    30App    1.329327
      44Ap     1.329362    45Ap     1.365411    46Ap     1.370918
      31App    1.371684    32App    1.393469    33App    1.407163
      47Ap     1.407897    34App    1.422024    48Ap     1.422265
      35App    1.428233    36App    1.492537    49Ap     1.509525
      37App    1.547131    50Ap     1.547339    51Ap     1.581810
      38App    1.582830    52Ap     1.674656    39App    1.744937
      53Ap     1.745418    54Ap     1.779119    40App    1.834824
      55Ap     1.835683    41App    1.972580    56Ap     2.024493
      42App    2.026420    57Ap     2.039667    58Ap     2.058057
      43App    2.060657    44App    2.746681    59Ap     2.746962
      45App    2.811839    60Ap     2.816058    46App    2.902040
      61Ap     2.903241    62Ap     2.924631    47App    2.931824
      63Ap     2.932147    48App    2.960054    64Ap     2.968540
      49App    2.969308    65Ap     3.041946    50App    3.080916
      66Ap     3.081466    51App    3.086174    67Ap     3.184189
      52App    3.184884    68Ap     3.188257    53App    3.289907
      69Ap     3.290317    70Ap     3.330721    54App    3.331207
      71Ap     3.383438    72Ap     3.492598    55App    3.493160
      56App    3.512391    73Ap     3.528376    57App    3.574977
      74Ap     3.581585    58App    3.581899    59App    3.670136
      75Ap     3.672151    76Ap     3.692930    77Ap     3.725725
      60App    3.725799    78Ap     3.781145    61App    3.781505
      79Ap     3.817666    80Ap     3.921716    62App    3.922368
      81Ap     4.045349    82Ap     4.117706    63App    4.118666
      83Ap     4.155283    64App    4.155395    84Ap     4.187302
      85Ap     4.208623    65App    4.209364    86Ap     4.210646
      66App    4.215336    67App    4.323306    87Ap     4.323461
      68App    4.362332    88Ap     4.431211    69App    4.434114
      70App    4.446346    89Ap     4.524149    71App    4.525108
      72App    4.588645    90Ap     4.589104    91Ap     4.624718
      92Ap     4.719798    73App    4.781355    93Ap     4.781705
      74App    4.839853    94Ap     4.967613    75App    5.006567
      95Ap     5.007455    96Ap     5.233737    76App    5.248555
      97Ap     5.248664    98Ap     5.361933    77App    5.362031
      78App    5.481670

    Final Occupation by Irrep:
             Ap   App
    DOCC [    10,    6 ]
    SOCC [     1,    0 ]

  @DF-UKS Final Energy:  -157.81306967232172

   => Energetics <=

    Nuclear Repulsion Energy =            125.3945895246764906
    One-Electron Energy =                -458.7488446510803328
    Two-Electron Energy =                 195.8483276129256865
    DFT Exchange-Correlation Energy =     -20.3071421588435861
    Empirical Dispersion Energy =           0.0000000000000000
    VV10 Nonlocal Energy =                  0.0000000000000000
    Total Energy =                       -157.8130696723217170

  UHF NO Occupations:
  HONO-2 :    9 Ap 1.9996009
  HONO-1 :   10 Ap 1.9989805
  HONO-0 :   11 Ap 1.0000000
  LUNO+0 :   12 Ap 0.0010195
  LUNO+1 :   13 Ap 0.0003991
  LUNO+2 :    7App 0.0001976
  LUNO+3 :   14 Ap 0.0001975

Computation Completed

Properties will be evaluated at   0.000000,   0.000000,   0.000000 [a0]

Properties computed using the SCF density matrix

  Nuclear Dipole Moment: [e a0]
     X:     0.8272      Y:    -0.0003      Z:    -0.0000

  Electronic Dipole Moment: [e a0]
     X:    -0.7493      Y:     0.0004      Z:     0.0000

  Dipole Moment: [e a0]
     X:     0.0779      Y:     0.0001      Z:    -0.0000     Total:     0.0779

  Dipole Moment: [D]
     X:     0.1980      Y:     0.0003      Z:    -0.0000     Total:     0.1980

*** tstop() called on n080 at Fri Nov  5 11:45:07 2021
Module time:
	user time   =     492.88 seconds =       8.21 minutes
	system time =       4.49 seconds =       0.07 minutes
	total time  =        125 seconds =       2.08 minutes
Total time:
	user time   =     492.88 seconds =       8.21 minutes
	system time =       4.49 seconds =       0.07 minutes
	total time  =        125 seconds =       2.08 minutes
Grab this energy -157.81306967232172
    Psi4 stopped on: Friday, 05 November 2021 11:45AM
    Psi4 wall time for execution: 0:02:05.08

*** Psi4 exiting successfully. Buy a developer a beer!
