                               Psi4 1.4a2.dev629

  ==> Input File <==

--------------------------------------------------------------------------
import os
memory 14 GB

molecule {
 C   -0.3233396477   -0.0004351861   -0.0002245749
 C    0.0611506892   -1.4007007653   -2.4241523386
 C    0.0607106765    2.8018659221   -0.0004827439
 C    0.0614409515   -1.4030849350    2.4273141578
 H    2.0864087138   -1.6470964162   -2.8463999831
 H   -0.7679252336   -0.3868330127   -4.0277726874
 H   -0.7624751946   -3.2903795791   -2.3495853701
 H    2.0877102455    3.2880929412    0.0001858934
 H   -0.7659347495    3.6803898533    1.6756768798
 H   -0.7660565350    3.6804130486   -1.6754917082
 H    2.0865505563   -1.6463476586    2.8454676949
 H   -0.7627597396   -3.2899684629    2.3485212853
 H   -0.7680886097   -0.3859400630    4.0269434951
units bohr
0 2
}

basis {

assign 6-31g_2dfp_

[ 6-31g_2dfp_ ]

spherical

!----------------------------------------------------------------------
! Basis Set Exchange
! Version v0.8.13
! https://www.basissetexchange.org
!----------------------------------------------------------------------
!   Basis set: 6-31G(2df,p)
! Description: 6-31G(2df,p)
!        Role: orbital
!     Version: 0  (Data from the original Basis Set Exchange)
!----------------------------------------------------------------------

****
H     0
S    3   1.00
     18.7311370              0.03349460
      2.8253937              0.23472695
      0.6401217              0.81375733
S    1   1.00
      0.1612778              1.00000000
P    1   1.00
      1.5000000              1.0000000
P    1   1.00
      0.3750000              1.0000000
****
B     0
S    6   1.00
   2068.8823000              0.0018663
    310.6495700              0.0142515
     70.6830330              0.0695516
     19.8610800              0.2325729
      6.2993048              0.4670787
      2.1270270              0.3634314
SP   3   1.00
      4.7279710             -0.1303938              0.0745976
      1.1903377             -0.1307889              0.3078467
      0.3594117              1.1309444              0.7434568
SP   1   1.00
      0.1267512              1.0000000              1.0000000
D    1   1.00
      0.8020000              1.0000000
D    1   1.00
      0.2005000              1.0000000
F    1   1.00
      0.5000000              1.0000000
****
C     0
S    6   1.00
   3047.5249000              0.0018347
    457.3695100              0.0140373
    103.9486900              0.0688426
     29.2101550              0.2321844
      9.2866630              0.4679413
      3.1639270              0.3623120
SP   3   1.00
      7.8682724             -0.1193324              0.0689991
      1.8812885             -0.1608542              0.3164240
      0.5442493              1.1434564              0.7443083
SP   1   1.00
      0.1687144              1.0000000              1.0000000
D    1   1.00
      1.2520000              1.0000000
D    1   1.00
      0.3130000              1.0000000
F    1   1.00
      0.8000000              1.0000000
****
N     0
S    6   1.00
   4173.5110000              0.0018348
    627.4579000              0.0139950
    142.9021000              0.0685870
     40.2343300              0.2322410
     12.8202100              0.4690700
      4.3904370              0.3604550
SP   3   1.00
     11.6263580             -0.1149610              0.0675800
      2.7162800             -0.1691180              0.3239070
      0.7722180              1.1458520              0.7408950
SP   1   1.00
      0.2120313              1.0000000              1.0000000
D    1   1.00
      1.8260000              1.0000000
D    1   1.00
      0.4565000              1.0000000
F    1   1.00
      1.0000000              1.0000000
****
O     0
S    6   1.00
   5484.6717000              0.0018311
    825.2349500              0.0139501
    188.0469600              0.0684451
     52.9645000              0.2327143
     16.8975700              0.4701930
      5.7996353              0.3585209
SP   3   1.00
     15.5396160             -0.1107775              0.0708743
      3.5999336             -0.1480263              0.3397528
      1.0137618              1.1307670              0.7271586
SP   1   1.00
      0.2700058              1.0000000              1.0000000
D    1   1.00
      2.5840000              1.0000000
D    1   1.00
      0.6460000              1.0000000
F    1   1.00
      1.4000000              1.0000000
****
F     0
S    6   1.00
   7001.7130900              0.0018196169
   1051.3660900              0.0139160796
    239.2856900              0.0684053245
     67.3974453              0.233185760
     21.5199573              0.471267439
      7.40310130             0.356618546
SP   3   1.00
     20.8479528             -0.108506975            0.0716287243
      4.80830834            -0.146451658            0.3459121030
      1.34406986             1.128688580            0.7224699570
SP   1   1.00
      0.358151393            1.0000000              1.0000000
D    1   1.00
      3.5000000              1.0000000
D    1   1.00
      0.8750000              1.0000000
F    1   1.00
      1.8500000              1.0000000
****
Al     0
S    6   1.00
  13983.1000000              0.00194267
   2098.7500000              0.0148599
    477.7050000              0.0728494
    134.3600000              0.2468300
     42.8709000              0.4872580
     14.5189000              0.3234960
SP   6   1.00
    239.6680000             -0.00292619             0.00460285
     57.4419000             -0.0374080              0.0331990
     18.2859000             -0.1144870              0.1362820
      6.5991400              0.1156350              0.3304760
      2.4904900              0.6125950              0.4491460
      0.9445400              0.3937990              0.2657040
SP   3   1.00
      1.2779000             -0.2276060             -0.0175130
      0.3975900              0.00144583             0.2445330
      0.1600950              1.0927900              0.8049340
SP   1   1.00
      0.0556577              1.0000000              1.0000000
D    1   1.00
      0.6500000              1.0000000
D    1   1.00
      0.1625000              1.0000000
F    1   1.00
      0.2500000              1.0000000
****
Si     0
S    6   1.00
  16115.9000000              0.00195948
   2425.5800000              0.01492880
    553.8670000              0.07284780
    156.3400000              0.24613000
     50.0683000              0.48591400
     17.0178000              0.32500200
SP   6   1.00
    292.7180000             -0.00278094             0.00443826
     69.8731000             -0.03571460             0.03266790
     22.3363000             -0.11498500             0.13472100
      8.1503900              0.09356340             0.32867800
      3.1345800              0.60301700             0.44964000
      1.2254300              0.41895900             0.26137200
SP   3   1.00
      1.7273800             -0.24463000            -0.01779510
      0.5729220              0.00431572             0.25353900
      0.2221920              1.09818000             0.80066900
SP   1   1.00
      0.0778369              1.00000000             1.00000000
D    1   1.00
      0.9000000              1.0000000
D    1   1.00
      0.2250000              1.0000000
F    1   1.00
      0.3200000              1.0000000
****
P     0
S    6   1.00
  19413.3000000              0.0018516
   2909.4200000              0.0142062
    661.3640000              0.0699995
    185.7590000              0.2400790
     59.1943000              0.4847620
     20.0310000              0.3352000
SP   6   1.00
    339.4780000             -0.00278217             0.00456462
     81.0101000             -0.0360499              0.03369360
     25.8780000             -0.1166310              0.13975500
      9.4522100              0.0968328              0.33936200
      3.6656600              0.6144180              0.45092100
      1.4674600              0.4037980              0.23858600
SP   3   1.00
      2.1562300             -0.2529230             -0.01776530
      0.7489970              0.0328517              0.27405800
      0.2831450              1.0812500              0.78542100
SP   1   1.00
      0.0998317              1.0000000              1.00000000
D    1   1.00
      1.1000000              1.0000000
D    1   1.00
      0.2750000              1.0000000
F    1   1.00
      0.4500000              1.0000000
****
S     0
S    6   1.00
  21917.1000000              0.0018690
   3301.4900000              0.0142300
    754.1460000              0.0696960
    212.7110000              0.2384870
     67.9896000              0.4833070
     23.0515000              0.3380740
SP   6   1.00
    423.7350000             -0.0023767              0.0040610
    100.7100000             -0.0316930              0.0306810
     32.1599000             -0.1133170              0.1304520
     11.8079000              0.0560900              0.3272050
      4.6311000              0.5922550              0.4528510
      1.8702500              0.4550060              0.2560420
SP   3   1.00
      2.6158400             -0.2503740             -0.0145110
      0.9221670              0.0669570              0.3102630
      0.3412870              1.0545100              0.7544830
SP   1   1.00
      0.1171670              1.0000000              1.0000000
D    1   1.00
      1.3000000              1.0000000
D    1   1.00
      0.3250000              1.0000000
F    1   1.00
      0.5500000              1.0000000
****
Cl     0
S    6   1.00
  25180.1000000              0.0018330
   3780.3500000              0.0140340
    860.4740000              0.0690970
    242.1450000              0.2374520
     77.3349000              0.4830340
     26.2470000              0.3398560
SP   6   1.00
    491.7650000             -0.0022974              0.0039894
    116.9840000             -0.0307140              0.0303180
     37.4153000             -0.1125280              0.1298800
     13.7834000              0.0450160              0.3279510
      5.4521500              0.5893530              0.4535270
      2.2258800              0.4652060              0.2521540
SP   3   1.00
      3.1864900             -0.2518300             -0.0142990
      1.1442700              0.0615890              0.3235720
      0.4203770              1.0601800              0.7435070
SP   1   1.00
      0.1426570              1.0000000              1.0000000
D    1   1.00
      1.5000000              1.0000000
D    1   1.00
      0.3750000              1.0000000
F    1   1.00
      0.7000000              1.0000000
****
}

set {
reference uhf
freeze_core true
e_convergence 10
d_convergence 10
dft_spherical_points 1202
dft_radial_points 99
}

e = energy('b3lyp')

print_out('Grab this energy {0}'.format(e))
--------------------------------------------------------------------------

    Molecular point group: c1

    Geometry (in Bohr), charge = 0, multiplicity = 2:

       Center              X                  Y                   Z               Mass
    ------------   -----------------  -----------------  -----------------  -----------------
         C           -0.323340158942     0.000018826350    -0.000697329358    12.000000000000
         C            0.061150177958    -1.400246752850    -2.424625093058    12.000000000000
         C            0.060710165258     2.802319934550    -0.000955498358    12.000000000000
         C            0.061440440258    -1.402630922550     2.426841403342    12.000000000000
         H            2.086408202558    -1.646642403750    -2.846872737558     1.007825032230
         H           -0.767925744842    -0.386379000250    -4.028245441858     1.007825032230
         H           -0.762475705842    -3.289925566650    -2.350058124558     1.007825032230
         H            2.087709734258     3.288546953650    -0.000286861058     1.007825032230
         H           -0.765935260742     3.680843865750     1.675204125342     1.007825032230
         H           -0.766057046242     3.680867061050    -1.675964462658     1.007825032230
         H            2.086550045058    -1.645893646150     2.844994940442     1.007825032230
         H           -0.762760250842    -3.289514450450     2.348048530842     1.007825032230
         H           -0.768089120942    -0.385486050550     4.026470740642     1.007825032230

  Charge       = 0
  Multiplicity = 2
  Basis Set: ANONYMOUS1E7708E7
    Blend: 6-31G_2DFP_
  Basis Set: (ANONYMOUS1E7708E7 AUX)
    Blend: DEF2-UNIVERSAL-JKFIT

    Orbital Energies [Eh]
    ---------------------

    Alpha Occupied:

       1A    -10.180342     2A    -10.167060     3A    -10.167014
       4A    -10.166970     5A     -0.797767     6A     -0.686252
       7A     -0.686124     8A     -0.530779     9A     -0.441126
      10A     -0.434876    11A     -0.434463    12A     -0.382692
      13A     -0.382506    14A     -0.363613    15A     -0.338263
      16A     -0.337733    17A     -0.168961

    Alpha Virtual:

      18A      0.076070    19A      0.134038    20A      0.134268
      21A      0.142412    22A      0.142843    23A      0.154883
      24A      0.178655    25A      0.178901    26A      0.203545
      27A      0.214804    28A      0.275736    29A      0.276237
      30A      0.398982    31A      0.399470    32A      0.403347
      33A      0.423929    34A      0.424265    35A      0.456593
      36A      0.495334    37A      0.495445    38A      0.512161
      39A      0.513980    40A      0.578744    41A      0.578885
      42A      0.591478    43A      0.591789    44A      0.602573
      45A      0.624716    46A      0.631766    47A      0.635966
      48A      0.636584    49A      0.663193    50A      0.663631
      51A      0.683664    52A      0.684057    53A      0.734994
      54A      0.825152    55A      0.825663    56A      0.853915
      57A      0.914809    58A      0.915242    59A      0.944125
      60A      0.944607    61A      0.961195    62A      0.961393
      63A      1.003454    64A      1.127823    65A      1.128397
      66A      1.142227    67A      1.162980    68A      1.163559
      69A      1.223323    70A      1.274105    71A      1.274855
      72A      1.279376    73A      1.324132    74A      1.324572
      75A      1.355988    76A      1.365723    77A      1.366389
      78A      1.392440    79A      1.403863    80A      1.404227
      81A      1.416399    82A      1.417821    83A      1.427915
      84A      1.491495    85A      1.499072    86A      1.542760
      87A      1.542911    88A      1.574162    89A      1.574733
      90A      1.669827    91A      1.738689    92A      1.740145
      93A      1.768321    94A      1.830454    95A      1.832326
      96A      1.971756    97A      2.017390    98A      2.019131
      99A      2.019859   100A      2.051803   101A      2.053505
     102A      2.738266   103A      2.738703   104A      2.790924
     105A      2.811426   106A      2.889783   107A      2.890117
     108A      2.894947   109A      2.929430   110A      2.929564
     111A      2.958961   112A      2.964277   113A      2.964514
     114A      3.034009   115A      3.070646   116A      3.071864
     117A      3.084433   118A      3.168325   119A      3.169216
     120A      3.180610   121A      3.285152   122A      3.285469
     123A      3.326731   124A      3.327591   125A      3.375624
     126A      3.489720   127A      3.490596   128A      3.514017
     129A      3.525329   130A      3.567940   131A      3.568846
     132A      3.575121   133A      3.665558   134A      3.667216
     135A      3.679659   136A      3.693858   137A      3.694420
     138A      3.776566   139A      3.777015   140A      3.789131
     141A      3.911280   142A      3.913170   143A      4.034441
     144A      4.110793   145A      4.111879   146A      4.147685
     147A      4.148481   148A      4.173339   149A      4.201897
     150A      4.202859   151A      4.203983   152A      4.210980
     153A      4.314973   154A      4.316940   155A      4.358980
     156A      4.423338   157A      4.425487   158A      4.443548
     159A      4.515604   160A      4.518078   161A      4.578256
     162A      4.578277   163A      4.617553   164A      4.709430
     165A      4.773557   166A      4.775624   167A      4.836927
     168A      4.962830   169A      5.002165   170A      5.003796
     171A      5.227585   172A      5.246618   173A      5.247409
     174A      5.354272   175A      5.356766   176A      5.479411

    Beta Occupied:

       1A    -10.167819     2A    -10.167769     3A    -10.167735
       4A    -10.166519     5A     -0.781092     6A     -0.684058
       7A     -0.683923     8A     -0.511750     9A     -0.431248
      10A     -0.430836    11A     -0.421820    12A     -0.376796
      13A     -0.376572    14A     -0.362597    15A     -0.333384
      16A     -0.332858

    Beta Virtual:

      17A     -0.025743    18A      0.077079    19A      0.134904
      20A      0.135182    21A      0.144261    22A      0.144736
      23A      0.163340    24A      0.182334    25A      0.182565
      26A      0.215033    27A      0.218928    28A      0.282093
      29A      0.282576    30A      0.400148    31A      0.400645
      32A      0.419791    33A      0.426739    34A      0.427077
      35A      0.468501    36A      0.497587    37A      0.497714
      38A      0.513896    39A      0.556325    40A      0.584292
      41A      0.584437    42A      0.597634    43A      0.597990
      44A      0.609998    45A      0.628093    46A      0.631925
      47A      0.639269    48A      0.639849    49A      0.666768
      50A      0.667184    51A      0.686322    52A      0.686669
      53A      0.757517    54A      0.830330    55A      0.830821
      56A      0.855268    57A      0.922799    58A      0.923195
      59A      0.945962    60A      0.953534    61A      0.966486
      62A      0.966716    63A      1.008694    64A      1.131860
      65A      1.132421    66A      1.155598    67A      1.168039
      68A      1.168649    69A      1.232295    70A      1.279688
      71A      1.280465    72A      1.285131    73A      1.329126
      74A      1.329556    75A      1.365404    76A      1.371034
      77A      1.371563    78A      1.393501    79A      1.407369
      80A      1.407651    81A      1.421499    82A      1.422812
      83A      1.428192    84A      1.492545    85A      1.509515
      86A      1.547151    87A      1.547338    88A      1.582030
      89A      1.582606    90A      1.674675    91A      1.744439
      92A      1.745920    93A      1.779099    94A      1.834310
      95A      1.836181    96A      1.972616    97A      2.024631
      98A      2.026234    99A      2.039673   100A      2.058530
     101A      2.060228   102A      2.746604   103A      2.747037
     104A      2.811838   105A      2.816059   106A      2.902441
     107A      2.902841   108A      2.924646   109A      2.931933
     110A      2.932025   111A      2.960037   112A      2.968806
     113A      2.969061   114A      3.041944   115A      3.080447
     116A      3.081772   117A      3.086363   118A      3.184101
     119A      3.184872   120A      3.188359   121A      3.289939
     122A      3.290280   123A      3.330507   124A      3.331422
     125A      3.383442   126A      3.492442   127A      3.493335
     128A      3.512383   129A      3.528374   130A      3.574977
     131A      3.581198   132A      3.582271   133A      3.670350
     134A      3.671925   135A      3.692962   136A      3.725615
     137A      3.725915   138A      3.781043   139A      3.781595
     140A      3.817671   141A      3.921092   142A      3.922990
     143A      4.045329   144A      4.117379   145A      4.118927
     146A      4.154776   147A      4.155823   148A      4.187375
     149A      4.207996   150A      4.209860   151A      4.210715
     152A      4.215470   153A      4.322420   154A      4.324375
     155A      4.362342   156A      4.431581   157A      4.433639
     158A      4.446467   159A      4.523389   160A      4.525870
     161A      4.588829   162A      4.588907   163A      4.624747
     164A      4.719774   165A      4.780542   166A      4.782546
     167A      4.839845   168A      4.967626   169A      5.006218
     170A      5.007821   171A      5.233196   172A      5.248424
     173A      5.249281   174A      5.360760   175A      5.363233
     176A      5.481734

    Final Occupation by Irrep:
              A
    DOCC [    16 ]
    SOCC [     1 ]

  @DF-UKS Final Energy:  -157.81305889047576

   => Energetics <=

    Nuclear Repulsion Energy =            125.3946390054639011
    One-Electron Energy =                -458.7489093675336562
    Two-Electron Energy =                 195.8483577986661146
    DFT Exchange-Correlation Energy =     -20.3071463270721075
    Empirical Dispersion Energy =           0.0000000000000000
    VV10 Nonlocal Energy =                  0.0000000000000000
    Total Energy =                       -157.8130588904757587

  UHF NO Occupations:
  HONO-2 :   15  A 1.9996009
  HONO-1 :   16  A 1.9989805
  HONO-0 :   17  A 1.0000000
  LUNO+0 :   18  A 0.0010195
  LUNO+1 :   19  A 0.0003991
  LUNO+2 :   20  A 0.0001979
  LUNO+3 :   21  A 0.0001972

Computation Completed

Properties will be evaluated at   0.000000,   0.000000,   0.000000 [a0]

Properties computed using the SCF density matrix

  Nuclear Dipole Moment: [e a0]
     X:     0.8272      Y:     0.0032      Z:    -0.0033

  Electronic Dipole Moment: [e a0]
     X:    -0.7493      Y:    -0.0049      Z:     0.0034

  Dipole Moment: [e a0]
     X:     0.0779      Y:    -0.0017      Z:     0.0001     Total:     0.0779

  Dipole Moment: [D]
     X:     0.1980      Y:    -0.0044      Z:     0.0002     Total:     0.1981

*** tstop() called on n080 at Fri Nov  5 13:09:45 2021
Module time:
	user time   =     466.52 seconds =       7.78 minutes
	system time =       4.32 seconds =       0.07 minutes
	total time  =        118 seconds =       1.97 minutes
Total time:
	user time   =     466.52 seconds =       7.78 minutes
	system time =       4.32 seconds =       0.07 minutes
	total time  =        118 seconds =       1.97 minutes
Grab this energy -157.81305889047576
    Psi4 stopped on: Friday, 05 November 2021 01:09PM
    Psi4 wall time for execution: 0:01:58.44

*** Psi4 exiting successfully. Buy a developer a beer!
