                               Psi4 1.4a2.dev629

  ==> Input File <==

--------------------------------------------------------------------------
import os
memory 14 GB

molecule {
 C   -0.3233414187   -0.0000035450   -0.0002565588
 C    0.0593643097   -1.4019060186   -2.4257951791
 C    0.0610188561    2.8017581995   -0.0000299521
 C    0.0629154509   -1.3998513598    2.4269649549
 H    2.0871126252   -1.6453652045   -2.8467034170
 H   -0.7654527051   -0.3866475151   -4.0212567465
 H   -0.7644082692   -3.2951880467   -2.3523075688
 H    2.0867960557    3.2881047500   -0.0018176928
 H   -0.7664542488    3.6758653610    1.6753211537
 H   -0.7648368792    3.6846446510   -1.6776711782
 H    2.0867625888   -1.6428335792    2.8481768851
 H   -0.7667287611   -3.2888003710    2.3456758867
 H   -0.7653554811   -0.3898016352    4.0296994130
units bohr
0 2
}

basis {

assign 6-31g_2dfp_

[ 6-31g_2dfp_ ]

spherical

!----------------------------------------------------------------------
! Basis Set Exchange
! Version v0.8.13
! https://www.basissetexchange.org
!----------------------------------------------------------------------
!   Basis set: 6-31G(2df,p)
! Description: 6-31G(2df,p)
!        Role: orbital
!     Version: 0  (Data from the original Basis Set Exchange)
!----------------------------------------------------------------------

****
H     0
S    3   1.00
     18.7311370              0.03349460
      2.8253937              0.23472695
      0.6401217              0.81375733
S    1   1.00
      0.1612778              1.00000000
P    1   1.00
      1.5000000              1.0000000
P    1   1.00
      0.3750000              1.0000000
****
B     0
S    6   1.00
   2068.8823000              0.0018663
    310.6495700              0.0142515
     70.6830330              0.0695516
     19.8610800              0.2325729
      6.2993048              0.4670787
      2.1270270              0.3634314
SP   3   1.00
      4.7279710             -0.1303938              0.0745976
      1.1903377             -0.1307889              0.3078467
      0.3594117              1.1309444              0.7434568
SP   1   1.00
      0.1267512              1.0000000              1.0000000
D    1   1.00
      0.8020000              1.0000000
D    1   1.00
      0.2005000              1.0000000
F    1   1.00
      0.5000000              1.0000000
****
C     0
S    6   1.00
   3047.5249000              0.0018347
    457.3695100              0.0140373
    103.9486900              0.0688426
     29.2101550              0.2321844
      9.2866630              0.4679413
      3.1639270              0.3623120
SP   3   1.00
      7.8682724             -0.1193324              0.0689991
      1.8812885             -0.1608542              0.3164240
      0.5442493              1.1434564              0.7443083
SP   1   1.00
      0.1687144              1.0000000              1.0000000
D    1   1.00
      1.2520000              1.0000000
D    1   1.00
      0.3130000              1.0000000
F    1   1.00
      0.8000000              1.0000000
****
N     0
S    6   1.00
   4173.5110000              0.0018348
    627.4579000              0.0139950
    142.9021000              0.0685870
     40.2343300              0.2322410
     12.8202100              0.4690700
      4.3904370              0.3604550
SP   3   1.00
     11.6263580             -0.1149610              0.0675800
      2.7162800             -0.1691180              0.3239070
      0.7722180              1.1458520              0.7408950
SP   1   1.00
      0.2120313              1.0000000              1.0000000
D    1   1.00
      1.8260000              1.0000000
D    1   1.00
      0.4565000              1.0000000
F    1   1.00
      1.0000000              1.0000000
****
O     0
S    6   1.00
   5484.6717000              0.0018311
    825.2349500              0.0139501
    188.0469600              0.0684451
     52.9645000              0.2327143
     16.8975700              0.4701930
      5.7996353              0.3585209
SP   3   1.00
     15.5396160             -0.1107775              0.0708743
      3.5999336             -0.1480263              0.3397528
      1.0137618              1.1307670              0.7271586
SP   1   1.00
      0.2700058              1.0000000              1.0000000
D    1   1.00
      2.5840000              1.0000000
D    1   1.00
      0.6460000              1.0000000
F    1   1.00
      1.4000000              1.0000000
****
F     0
S    6   1.00
   7001.7130900              0.0018196169
   1051.3660900              0.0139160796
    239.2856900              0.0684053245
     67.3974453              0.233185760
     21.5199573              0.471267439
      7.40310130             0.356618546
SP   3   1.00
     20.8479528             -0.108506975            0.0716287243
      4.80830834            -0.146451658            0.3459121030
      1.34406986             1.128688580            0.7224699570
SP   1   1.00
      0.358151393            1.0000000              1.0000000
D    1   1.00
      3.5000000              1.0000000
D    1   1.00
      0.8750000              1.0000000
F    1   1.00
      1.8500000              1.0000000
****
Al     0
S    6   1.00
  13983.1000000              0.00194267
   2098.7500000              0.0148599
    477.7050000              0.0728494
    134.3600000              0.2468300
     42.8709000              0.4872580
     14.5189000              0.3234960
SP   6   1.00
    239.6680000             -0.00292619             0.00460285
     57.4419000             -0.0374080              0.0331990
     18.2859000             -0.1144870              0.1362820
      6.5991400              0.1156350              0.3304760
      2.4904900              0.6125950              0.4491460
      0.9445400              0.3937990              0.2657040
SP   3   1.00
      1.2779000             -0.2276060             -0.0175130
      0.3975900              0.00144583             0.2445330
      0.1600950              1.0927900              0.8049340
SP   1   1.00
      0.0556577              1.0000000              1.0000000
D    1   1.00
      0.6500000              1.0000000
D    1   1.00
      0.1625000              1.0000000
F    1   1.00
      0.2500000              1.0000000
****
Si     0
S    6   1.00
  16115.9000000              0.00195948
   2425.5800000              0.01492880
    553.8670000              0.07284780
    156.3400000              0.24613000
     50.0683000              0.48591400
     17.0178000              0.32500200
SP   6   1.00
    292.7180000             -0.00278094             0.00443826
     69.8731000             -0.03571460             0.03266790
     22.3363000             -0.11498500             0.13472100
      8.1503900              0.09356340             0.32867800
      3.1345800              0.60301700             0.44964000
      1.2254300              0.41895900             0.26137200
SP   3   1.00
      1.7273800             -0.24463000            -0.01779510
      0.5729220              0.00431572             0.25353900
      0.2221920              1.09818000             0.80066900
SP   1   1.00
      0.0778369              1.00000000             1.00000000
D    1   1.00
      0.9000000              1.0000000
D    1   1.00
      0.2250000              1.0000000
F    1   1.00
      0.3200000              1.0000000
****
P     0
S    6   1.00
  19413.3000000              0.0018516
   2909.4200000              0.0142062
    661.3640000              0.0699995
    185.7590000              0.2400790
     59.1943000              0.4847620
     20.0310000              0.3352000
SP   6   1.00
    339.4780000             -0.00278217             0.00456462
     81.0101000             -0.0360499              0.03369360
     25.8780000             -0.1166310              0.13975500
      9.4522100              0.0968328              0.33936200
      3.6656600              0.6144180              0.45092100
      1.4674600              0.4037980              0.23858600
SP   3   1.00
      2.1562300             -0.2529230             -0.01776530
      0.7489970              0.0328517              0.27405800
      0.2831450              1.0812500              0.78542100
SP   1   1.00
      0.0998317              1.0000000              1.00000000
D    1   1.00
      1.1000000              1.0000000
D    1   1.00
      0.2750000              1.0000000
F    1   1.00
      0.4500000              1.0000000
****
S     0
S    6   1.00
  21917.1000000              0.0018690
   3301.4900000              0.0142300
    754.1460000              0.0696960
    212.7110000              0.2384870
     67.9896000              0.4833070
     23.0515000              0.3380740
SP   6   1.00
    423.7350000             -0.0023767              0.0040610
    100.7100000             -0.0316930              0.0306810
     32.1599000             -0.1133170              0.1304520
     11.8079000              0.0560900              0.3272050
      4.6311000              0.5922550              0.4528510
      1.8702500              0.4550060              0.2560420
SP   3   1.00
      2.6158400             -0.2503740             -0.0145110
      0.9221670              0.0669570              0.3102630
      0.3412870              1.0545100              0.7544830
SP   1   1.00
      0.1171670              1.0000000              1.0000000
D    1   1.00
      1.3000000              1.0000000
D    1   1.00
      0.3250000              1.0000000
F    1   1.00
      0.5500000              1.0000000
****
Cl     0
S    6   1.00
  25180.1000000              0.0018330
   3780.3500000              0.0140340
    860.4740000              0.0690970
    242.1450000              0.2374520
     77.3349000              0.4830340
     26.2470000              0.3398560
SP   6   1.00
    491.7650000             -0.0022974              0.0039894
    116.9840000             -0.0307140              0.0303180
     37.4153000             -0.1125280              0.1298800
     13.7834000              0.0450160              0.3279510
      5.4521500              0.5893530              0.4535270
      2.2258800              0.4652060              0.2521540
SP   3   1.00
      3.1864900             -0.2518300             -0.0142990
      1.1442700              0.0615890              0.3235720
      0.4203770              1.0601800              0.7435070
SP   1   1.00
      0.1426570              1.0000000              1.0000000
D    1   1.00
      1.5000000              1.0000000
D    1   1.00
      0.3750000              1.0000000
F    1   1.00
      0.7000000              1.0000000
****
}

set {
reference uhf
freeze_core true
e_convergence 10
d_convergence 10
dft_spherical_points 1202
dft_radial_points 99
}

e = energy('b3lyp')

print_out('Grab this energy {0}'.format(e))
--------------------------------------------------------------------------

    Molecular point group: c1

    Geometry (in Bohr), charge = 0, multiplicity = 2:

       Center              X                  Y                   Z               Mass
    ------------   -----------------  -----------------  -----------------  -----------------
         C           -0.323340876094    -0.000002590996    -0.000426681983    12.000000000000
         C            0.059364852306    -1.401905064596    -2.425965302283    12.000000000000
         C            0.061019398706     2.801759153504    -0.000200075283    12.000000000000
         C            0.062915993506    -1.399850405796     2.426794831717    12.000000000000
         H            2.087113167806    -1.645364250496    -2.846873540183     1.007825032230
         H           -0.765452162494    -0.386646561096    -4.021426869683     1.007825032230
         H           -0.764407726594    -3.295187092696    -2.352477691983     1.007825032230
         H            2.086796598306     3.288105704004    -0.001987815983     1.007825032230
         H           -0.766453706194     3.675866315004     1.675151030517     1.007825032230
         H           -0.764836336594     3.684645605004    -1.677841301383     1.007825032230
         H            2.086763131406    -1.642832625196     2.848006761917     1.007825032230
         H           -0.766728218494    -3.288799416996     2.345505763517     1.007825032230
         H           -0.765354938494    -0.389800681196     4.029529289817     1.007825032230

  Charge       = 0
  Multiplicity = 2
  Basis Set: ANONYMOUS4A900B04
    Blend: 6-31G_2DFP_
  Basis Set: (ANONYMOUS4A900B04 AUX)
    Blend: DEF2-UNIVERSAL-JKFIT

    Orbital Energies [Eh]
    ---------------------

    Alpha Occupied:

       1A    -10.180342     2A    -10.167051     3A    -10.167020
       4A    -10.166974     5A     -0.797766     6A     -0.686220
       7A     -0.686154     8A     -0.530776     9A     -0.441126
      10A     -0.434773    11A     -0.434571    12A     -0.382749
      13A     -0.382447    14A     -0.363611    15A     -0.338083
      16A     -0.337913    17A     -0.168961

    Alpha Virtual:

      18A      0.076073    19A      0.134121    20A      0.134187
      21A      0.142566    22A      0.142691    23A      0.154879
      24A      0.178666    25A      0.178893    26A      0.203529
      27A      0.214819    28A      0.275930    29A      0.276039
      30A      0.399070    31A      0.399385    32A      0.403347
      33A      0.424050    34A      0.424146    35A      0.456593
      36A      0.495361    37A      0.495419    38A      0.512160
      39A      0.513980    40A      0.578731    41A      0.578903
      42A      0.591514    43A      0.591754    44A      0.602571
      45A      0.624686    46A      0.631852    47A      0.636141
      48A      0.636355    49A      0.663243    50A      0.663582
      51A      0.683704    52A      0.684002    53A      0.734993
      54A      0.825394    55A      0.825421    56A      0.853916
      57A      0.915005    58A      0.915047    59A      0.944020
      60A      0.944704    61A      0.961214    62A      0.961370
      63A      1.003467    64A      1.128001    65A      1.128211
      66A      1.142215    67A      1.163173    68A      1.163366
      69A      1.223324    70A      1.274355    71A      1.274638
      72A      1.279353    73A      1.324101    74A      1.324609
      75A      1.355969    76A      1.365744    77A      1.366354
      78A      1.392462    79A      1.403911    80A      1.404150
      81A      1.416840    82A      1.417426    83A      1.427916
      84A      1.491493    85A      1.499084    86A      1.542785
      87A      1.542870    88A      1.574294    89A      1.574602
      90A      1.669834    91A      1.739015    92A      1.739827
      93A      1.768326    94A      1.831199    95A      1.831592
      96A      1.971730    97A      2.018176    98A      2.018537
      99A      2.019687   100A      2.052267   101A      2.053012
     102A      2.738445   103A      2.738524   104A      2.790922
     105A      2.811429   106A      2.889684   107A      2.890229
     108A      2.894940   109A      2.929467   110A      2.929530
     111A      2.958998   112A      2.964270   113A      2.964480
     114A      3.034013   115A      3.071162   116A      3.071401
     117A      3.084352   118A      3.168661   119A      3.168904
     120A      3.180585   121A      3.285268   122A      3.285338
     123A      3.327022   124A      3.327331   125A      3.375616
     126A      3.489843   127A      3.490463   128A      3.513931
     129A      3.525416   130A      3.568276   131A      3.568495
     132A      3.575146   133A      3.666097   134A      3.666689
     135A      3.679648   136A      3.694093   137A      3.694120
     138A      3.776772   139A      3.776871   140A      3.789115
     141A      3.912158   142A      3.912319   143A      4.034461
     144A      4.111282   145A      4.111461   146A      4.148070
     147A      4.148183   148A      4.173228   149A      4.202463
     150A      4.202972   151A      4.203338   152A      4.210859
     153A      4.315524   154A      4.316383   155A      4.358970
     156A      4.424332   157A      4.424578   158A      4.443428
     159A      4.515793   160A      4.517899   161A      4.578064
     162A      4.578485   163A      4.617544   164A      4.709424
     165A      4.774080   166A      4.775100   167A      4.836924
     168A      4.962888   169A      5.002493   170A      5.003400
     171A      5.228049   172A      5.246795   173A      5.246838
     174A      5.355240   175A      5.355774   176A      5.479349

    Beta Occupied:

       1A    -10.167807     2A    -10.167776     3A    -10.167741
       4A    -10.166520     5A     -0.781091     6A     -0.684023
       7A     -0.683957     8A     -0.511747     9A     -0.431150
      10A     -0.430938    11A     -0.421822    12A     -0.376842
      13A     -0.376524    14A     -0.362594    15A     -0.333207
      16A     -0.333035

    Beta Virtual:

      17A     -0.025743    18A      0.077082    19A      0.135019
      20A      0.135068    21A      0.144441    22A      0.144557
      23A      0.163338    24A      0.182335    25A      0.182566
      26A      0.214983    27A      0.218977    28A      0.282280
      29A      0.282385    30A      0.400240    31A      0.400557
      32A      0.419790    33A      0.426858    34A      0.426960
      35A      0.468500    36A      0.497626    37A      0.497675
      38A      0.513896    39A      0.556325    40A      0.584285
      41A      0.584448    42A      0.597689    43A      0.597938
      44A      0.609994    45A      0.628006    46A      0.632064
      47A      0.639426    48A      0.639641    49A      0.666822
      50A      0.667130    51A      0.686337    52A      0.686639
      53A      0.757516    54A      0.830564    55A      0.830587
      56A      0.855270    57A      0.922977    58A      0.923017
      59A      0.945938    60A      0.953552    61A      0.966513
      62A      0.966682    63A      1.008706    64A      1.131990
      65A      1.132275    66A      1.155595    67A      1.168296
      68A      1.168395    69A      1.232296    70A      1.279947
      71A      1.280239    72A      1.285105    73A      1.329080
      74A      1.329608    75A      1.365383    76A      1.370986
      77A      1.371597    78A      1.393522    79A      1.407367
      80A      1.407634    81A      1.421902    82A      1.422457
      83A      1.428185    84A      1.492543    85A      1.509526
      86A      1.547209    87A      1.547263    88A      1.582219
      89A      1.582420    90A      1.674681    91A      1.744784
      92A      1.745581    93A      1.779106    94A      1.835054
      95A      1.835447    96A      1.972591    97A      2.024811
      98A      2.026084    99A      2.039685   100A      2.059007
     101A      2.059699   102A      2.746785   103A      2.746855
     104A      2.811831   105A      2.816067   106A      2.902381
     107A      2.902909   108A      2.924646   109A      2.931948
     110A      2.932006   111A      2.960064   112A      2.968820
     113A      2.969021   114A      3.041948   115A      3.081073
     116A      3.081300   117A      3.086179   118A      3.184432
     119A      3.184632   120A      3.188270   121A      3.290074
     122A      3.290126   123A      3.330814   124A      3.331151
     125A      3.383433   126A      3.492575   127A      3.493193
     128A      3.512319   129A      3.528438   130A      3.575005
     131A      3.581675   132A      3.581769   133A      3.670900
     134A      3.671375   135A      3.692942   136A      3.725597
     137A      3.725890   138A      3.781309   139A      3.781388
     140A      3.817661   141A      3.921958   142A      3.922152
     143A      4.045348   144A      4.118150   145A      4.118224
     146A      4.155232   147A      4.155435   148A      4.187289
     149A      4.208802   150A      4.209153   151A      4.210656
     152A      4.215338   153A      4.322939   154A      4.323847
     155A      4.362336   156A      4.432558   157A      4.432782
     158A      4.446310   159A      4.523588   160A      4.525685
     161A      4.588680   162A      4.589072   163A      4.624735
     164A      4.719767   165A      4.781052   166A      4.782035
     167A      4.839844   168A      4.967682   169A      5.006550
     170A      5.007421   171A      5.233764   172A      5.248579
     173A      5.248623   174A      5.361722   175A      5.362252
     176A      5.481671

    Final Occupation by Irrep:
              A
    DOCC [    16 ]
    SOCC [     1 ]

  @DF-UKS Final Energy:  -157.81306603594717

   => Energetics <=

    Nuclear Repulsion Energy =            125.3946104870469753
    One-Electron Energy =                -458.7488761107095456
    Two-Electron Energy =                 195.8483423026927426
    DFT Exchange-Correlation Energy =     -20.3071427149773385
    Empirical Dispersion Energy =           0.0000000000000000
    VV10 Nonlocal Energy =                  0.0000000000000000
    Total Energy =                       -157.8130660359471733

  UHF NO Occupations:
  HONO-2 :   15  A 1.9996009
  HONO-1 :   16  A 1.9989805
  HONO-0 :   17  A 1.0000000
  LUNO+0 :   18  A 0.0010195
  LUNO+1 :   19  A 0.0003991
  LUNO+2 :   20  A 0.0001977
  LUNO+3 :   21  A 0.0001974

Computation Completed

Properties will be evaluated at   0.000000,   0.000000,   0.000000 [a0]

Properties computed using the SCF density matrix

  Nuclear Dipole Moment: [e a0]
     X:     0.8272      Y:    -0.0000      Z:    -0.0012

  Electronic Dipole Moment: [e a0]
     X:    -0.7493      Y:     0.0000      Z:     0.0011

  Dipole Moment: [e a0]
     X:     0.0779      Y:    -0.0000      Z:    -0.0001     Total:     0.0779

  Dipole Moment: [D]
     X:     0.1980      Y:    -0.0000      Z:    -0.0003     Total:     0.1980

*** tstop() called on n091 at Fri Nov  5 12:22:08 2021
Module time:
	user time   =     498.35 seconds =       8.31 minutes
	system time =       4.56 seconds =       0.08 minutes
	total time  =        126 seconds =       2.10 minutes
Total time:
	user time   =     498.35 seconds =       8.31 minutes
	system time =       4.56 seconds =       0.08 minutes
	total time  =        126 seconds =       2.10 minutes
Grab this energy -157.81306603594717
    Psi4 stopped on: Friday, 05 November 2021 12:22PM
    Psi4 wall time for execution: 0:02:06.47

*** Psi4 exiting successfully. Buy a developer a beer!
