                               Psi4 1.4a2.dev629

  ==> Input File <==

--------------------------------------------------------------------------
import os
memory 14 GB

molecule {
 C   -0.3233403552    0.0004916499    0.0002566058
 C    0.0628687842   -1.4002962627   -2.4262125801
 C    0.0611172777    2.8026166846   -0.0007672106
 C    0.0593157136   -1.4009696496    2.4258404517
 H    2.0888553256   -1.6440985436   -2.8471590574
 H   -0.7671973405   -0.3868670731   -4.0260770291
 H   -0.7670676304   -3.2942345952   -2.3484495968
 H    2.0826171892    3.2885980820    0.0002348936
 H   -0.7633370406    3.6796884774    1.6726243625
 H   -0.7636061910    3.6797759931   -1.6722935505
 H    2.0892033934   -1.6438878899    2.8472669880
 H   -0.7660892095   -3.2944429152    2.3484103189
 H   -0.7659477933   -0.3863982714    4.0263254039
units bohr
0 2
}

basis {

assign 6-31g_2dfp_

[ 6-31g_2dfp_ ]

spherical

!----------------------------------------------------------------------
! Basis Set Exchange
! Version v0.8.13
! https://www.basissetexchange.org
!----------------------------------------------------------------------
!   Basis set: 6-31G(2df,p)
! Description: 6-31G(2df,p)
!        Role: orbital
!     Version: 0  (Data from the original Basis Set Exchange)
!----------------------------------------------------------------------

****
H     0
S    3   1.00
     18.7311370              0.03349460
      2.8253937              0.23472695
      0.6401217              0.81375733
S    1   1.00
      0.1612778              1.00000000
P    1   1.00
      1.5000000              1.0000000
P    1   1.00
      0.3750000              1.0000000
****
B     0
S    6   1.00
   2068.8823000              0.0018663
    310.6495700              0.0142515
     70.6830330              0.0695516
     19.8610800              0.2325729
      6.2993048              0.4670787
      2.1270270              0.3634314
SP   3   1.00
      4.7279710             -0.1303938              0.0745976
      1.1903377             -0.1307889              0.3078467
      0.3594117              1.1309444              0.7434568
SP   1   1.00
      0.1267512              1.0000000              1.0000000
D    1   1.00
      0.8020000              1.0000000
D    1   1.00
      0.2005000              1.0000000
F    1   1.00
      0.5000000              1.0000000
****
C     0
S    6   1.00
   3047.5249000              0.0018347
    457.3695100              0.0140373
    103.9486900              0.0688426
     29.2101550              0.2321844
      9.2866630              0.4679413
      3.1639270              0.3623120
SP   3   1.00
      7.8682724             -0.1193324              0.0689991
      1.8812885             -0.1608542              0.3164240
      0.5442493              1.1434564              0.7443083
SP   1   1.00
      0.1687144              1.0000000              1.0000000
D    1   1.00
      1.2520000              1.0000000
D    1   1.00
      0.3130000              1.0000000
F    1   1.00
      0.8000000              1.0000000
****
N     0
S    6   1.00
   4173.5110000              0.0018348
    627.4579000              0.0139950
    142.9021000              0.0685870
     40.2343300              0.2322410
     12.8202100              0.4690700
      4.3904370              0.3604550
SP   3   1.00
     11.6263580             -0.1149610              0.0675800
      2.7162800             -0.1691180              0.3239070
      0.7722180              1.1458520              0.7408950
SP   1   1.00
      0.2120313              1.0000000              1.0000000
D    1   1.00
      1.8260000              1.0000000
D    1   1.00
      0.4565000              1.0000000
F    1   1.00
      1.0000000              1.0000000
****
O     0
S    6   1.00
   5484.6717000              0.0018311
    825.2349500              0.0139501
    188.0469600              0.0684451
     52.9645000              0.2327143
     16.8975700              0.4701930
      5.7996353              0.3585209
SP   3   1.00
     15.5396160             -0.1107775              0.0708743
      3.5999336             -0.1480263              0.3397528
      1.0137618              1.1307670              0.7271586
SP   1   1.00
      0.2700058              1.0000000              1.0000000
D    1   1.00
      2.5840000              1.0000000
D    1   1.00
      0.6460000              1.0000000
F    1   1.00
      1.4000000              1.0000000
****
F     0
S    6   1.00
   7001.7130900              0.0018196169
   1051.3660900              0.0139160796
    239.2856900              0.0684053245
     67.3974453              0.233185760
     21.5199573              0.471267439
      7.40310130             0.356618546
SP   3   1.00
     20.8479528             -0.108506975            0.0716287243
      4.80830834            -0.146451658            0.3459121030
      1.34406986             1.128688580            0.7224699570
SP   1   1.00
      0.358151393            1.0000000              1.0000000
D    1   1.00
      3.5000000              1.0000000
D    1   1.00
      0.8750000              1.0000000
F    1   1.00
      1.8500000              1.0000000
****
Al     0
S    6   1.00
  13983.1000000              0.00194267
   2098.7500000              0.0148599
    477.7050000              0.0728494
    134.3600000              0.2468300
     42.8709000              0.4872580
     14.5189000              0.3234960
SP   6   1.00
    239.6680000             -0.00292619             0.00460285
     57.4419000             -0.0374080              0.0331990
     18.2859000             -0.1144870              0.1362820
      6.5991400              0.1156350              0.3304760
      2.4904900              0.6125950              0.4491460
      0.9445400              0.3937990              0.2657040
SP   3   1.00
      1.2779000             -0.2276060             -0.0175130
      0.3975900              0.00144583             0.2445330
      0.1600950              1.0927900              0.8049340
SP   1   1.00
      0.0556577              1.0000000              1.0000000
D    1   1.00
      0.6500000              1.0000000
D    1   1.00
      0.1625000              1.0000000
F    1   1.00
      0.2500000              1.0000000
****
Si     0
S    6   1.00
  16115.9000000              0.00195948
   2425.5800000              0.01492880
    553.8670000              0.07284780
    156.3400000              0.24613000
     50.0683000              0.48591400
     17.0178000              0.32500200
SP   6   1.00
    292.7180000             -0.00278094             0.00443826
     69.8731000             -0.03571460             0.03266790
     22.3363000             -0.11498500             0.13472100
      8.1503900              0.09356340             0.32867800
      3.1345800              0.60301700             0.44964000
      1.2254300              0.41895900             0.26137200
SP   3   1.00
      1.7273800             -0.24463000            -0.01779510
      0.5729220              0.00431572             0.25353900
      0.2221920              1.09818000             0.80066900
SP   1   1.00
      0.0778369              1.00000000             1.00000000
D    1   1.00
      0.9000000              1.0000000
D    1   1.00
      0.2250000              1.0000000
F    1   1.00
      0.3200000              1.0000000
****
P     0
S    6   1.00
  19413.3000000              0.0018516
   2909.4200000              0.0142062
    661.3640000              0.0699995
    185.7590000              0.2400790
     59.1943000              0.4847620
     20.0310000              0.3352000
SP   6   1.00
    339.4780000             -0.00278217             0.00456462
     81.0101000             -0.0360499              0.03369360
     25.8780000             -0.1166310              0.13975500
      9.4522100              0.0968328              0.33936200
      3.6656600              0.6144180              0.45092100
      1.4674600              0.4037980              0.23858600
SP   3   1.00
      2.1562300             -0.2529230             -0.01776530
      0.7489970              0.0328517              0.27405800
      0.2831450              1.0812500              0.78542100
SP   1   1.00
      0.0998317              1.0000000              1.00000000
D    1   1.00
      1.1000000              1.0000000
D    1   1.00
      0.2750000              1.0000000
F    1   1.00
      0.4500000              1.0000000
****
S     0
S    6   1.00
  21917.1000000              0.0018690
   3301.4900000              0.0142300
    754.1460000              0.0696960
    212.7110000              0.2384870
     67.9896000              0.4833070
     23.0515000              0.3380740
SP   6   1.00
    423.7350000             -0.0023767              0.0040610
    100.7100000             -0.0316930              0.0306810
     32.1599000             -0.1133170              0.1304520
     11.8079000              0.0560900              0.3272050
      4.6311000              0.5922550              0.4528510
      1.8702500              0.4550060              0.2560420
SP   3   1.00
      2.6158400             -0.2503740             -0.0145110
      0.9221670              0.0669570              0.3102630
      0.3412870              1.0545100              0.7544830
SP   1   1.00
      0.1171670              1.0000000              1.0000000
D    1   1.00
      1.3000000              1.0000000
D    1   1.00
      0.3250000              1.0000000
F    1   1.00
      0.5500000              1.0000000
****
Cl     0
S    6   1.00
  25180.1000000              0.0018330
   3780.3500000              0.0140340
    860.4740000              0.0690970
    242.1450000              0.2374520
     77.3349000              0.4830340
     26.2470000              0.3398560
SP   6   1.00
    491.7650000             -0.0022974              0.0039894
    116.9840000             -0.0307140              0.0303180
     37.4153000             -0.1125280              0.1298800
     13.7834000              0.0450160              0.3279510
      5.4521500              0.5893530              0.4535270
      2.2258800              0.4652060              0.2521540
SP   3   1.00
      3.1864900             -0.2518300             -0.0142990
      1.1442700              0.0615890              0.3235720
      0.4203770              1.0601800              0.7435070
SP   1   1.00
      0.1426570              1.0000000              1.0000000
D    1   1.00
      1.5000000              1.0000000
D    1   1.00
      0.3750000              1.0000000
F    1   1.00
      0.7000000              1.0000000
****
}

set {
reference uhf
freeze_core true
e_convergence 10
d_convergence 10
dft_spherical_points 1202
dft_radial_points 99
}

e = energy('b3lyp')

print_out('Grab this energy {0}'.format(e))
--------------------------------------------------------------------------

    Molecular point group: c1

    Geometry (in Bohr), charge = 0, multiplicity = 2:

       Center              X                  Y                   Z               Mass
    ------------   -----------------  -----------------  -----------------  -----------------
         C           -0.323340625839     0.000137215477     0.000426626574    12.000000000000
         C            0.062868513561    -1.400650697123    -2.426042559326    12.000000000000
         C            0.061117007061     2.802262250177    -0.000597189826    12.000000000000
         C            0.059315442961    -1.401324084023     2.426010472474    12.000000000000
         H            2.088855054961    -1.644452978023    -2.846989036626     1.007825032230
         H           -0.767197611139    -0.387221507523    -4.025907008326     1.007825032230
         H           -0.767067901039    -3.294589029623    -2.348279576026     1.007825032230
         H            2.082616918561     3.288243647577     0.000404914374     1.007825032230
         H           -0.763337311239     3.679334042977     1.672794383274     1.007825032230
         H           -0.763606461639     3.679421558677    -1.672123529726     1.007825032230
         H            2.089203122761    -1.644242324323     2.847437008774     1.007825032230
         H           -0.766089480139    -3.294797349623     2.348580339674     1.007825032230
         H           -0.765948063939    -0.386752705823     4.026495424674     1.007825032230

  Charge       = 0
  Multiplicity = 2
  Basis Set: ANONYMOUSC9F2572D
    Blend: 6-31G_2DFP_
  Basis Set: (ANONYMOUSC9F2572D AUX)
    Blend: DEF2-UNIVERSAL-JKFIT

    Orbital Energies [Eh]
    ---------------------

    Alpha Occupied:

       1A    -10.180342     2A    -10.167382     3A    -10.167318
       4A    -10.166344     5A     -0.797767     6A     -0.686512
       7A     -0.685863     8A     -0.530775     9A     -0.441127
      10A     -0.434804    11A     -0.434538    12A     -0.382869
      13A     -0.382330    14A     -0.363613    15A     -0.338087
      16A     -0.337909    17A     -0.168961

    Alpha Virtual:

      18A      0.076071    19A      0.134115    20A      0.134181
      21A      0.142514    22A      0.142754    23A      0.154875
      24A      0.178436    25A      0.179125    26A      0.203547
      27A      0.214805    28A      0.275915    29A      0.276056
      30A      0.399048    31A      0.399405    32A      0.403348
      33A      0.423990    34A      0.424203    35A      0.456592
      36A      0.495314    37A      0.495465    38A      0.512162
      39A      0.513978    40A      0.578670    41A      0.578960
      42A      0.591304    43A      0.591941    44A      0.602593
      45A      0.624765    46A      0.631699    47A      0.635855
      48A      0.636718    49A      0.663167    50A      0.663664
      51A      0.683509    52A      0.684211    53A      0.734995
      54A      0.825009    55A      0.825796    56A      0.853917
      57A      0.915005    58A      0.915049    59A      0.944131
      60A      0.944612    61A      0.961042    62A      0.961549
      63A      1.003454    64A      1.127773    65A      1.128445
      66A      1.142220    67A      1.163138    68A      1.163400
      69A      1.223323    70A      1.274259    71A      1.274719
      72A      1.279356    73A      1.323918    74A      1.324787
      75A      1.355972    76A      1.365650    77A      1.366460
      78A      1.392452    79A      1.403645    80A      1.404452
      81A      1.416682    82A      1.417536    83A      1.427915
      84A      1.491491    85A      1.499086    86A      1.542760
      87A      1.542899    88A      1.574131    89A      1.574773
      90A      1.669801    91A      1.738969    92A      1.739835
      93A      1.768334    94A      1.829795    95A      1.833065
      96A      1.971703    97A      2.017851    98A      2.018853
      99A      2.019670   100A      2.052289   101A      2.053045
     102A      2.738037   103A      2.738932   104A      2.790925
     105A      2.811429   106A      2.889566   107A      2.890292
     108A      2.894984   109A      2.929387   110A      2.929605
     111A      2.959006   112A      2.963856   113A      2.964909
     114A      3.034021   115A      3.071015   116A      3.071538
     117A      3.084388   118A      3.168595   119A      3.168967
     120A      3.180594   121A      3.285240   122A      3.285397
     123A      3.327005   124A      3.327320   125A      3.375612
     126A      3.489280   127A      3.491045   128A      3.514019
     129A      3.525340   130A      3.568226   131A      3.568506
     132A      3.575192   133A      3.665608   134A      3.667088
     135A      3.679652   136A      3.693643   137A      3.694645
     138A      3.776239   139A      3.777391   140A      3.789121
     141A      3.911770   142A      3.912659   143A      4.034439
     144A      4.110586   145A      4.112035   146A      4.146144
     147A      4.150002   148A      4.173316   149A      4.201005
     150A      4.202420   151A      4.205284   152A      4.211176
     153A      4.315131   154A      4.316774   155A      4.358958
     156A      4.424198   157A      4.424615   158A      4.443542
     159A      4.515763   160A      4.517894   161A      4.577788
     162A      4.578804   163A      4.617533   164A      4.709479
     165A      4.774074   166A      4.775113   167A      4.836882
     168A      4.962865   169A      5.002218   170A      5.003714
     171A      5.227844   172A      5.243164   173A      5.250436
     174A      5.352493   175A      5.358708   176A      5.479436

    Beta Occupied:

       1A    -10.168142     2A    -10.168080     3A    -10.167106
       4A    -10.166515     5A     -0.781092     6A     -0.684314
       7A     -0.683666     8A     -0.511747     9A     -0.431187
      10A     -0.430899    11A     -0.421823    12A     -0.376966
      13A     -0.376401    14A     -0.362596    15A     -0.333209
      16A     -0.333033

    Beta Virtual:

      17A     -0.025743    18A      0.077080    19A      0.134975
      20A      0.135102    21A      0.144424    22A      0.144584
      23A      0.163334    24A      0.182116    25A      0.182788
      26A      0.215035    27A      0.218929    28A      0.282264
      29A      0.282403    30A      0.400218    31A      0.400577
      32A      0.419791    33A      0.426797    34A      0.427018
      35A      0.468499    36A      0.497575    37A      0.497724
      38A      0.513897    39A      0.556323    40A      0.584217
      41A      0.584513    42A      0.597503    43A      0.598106
      44A      0.610012    45A      0.628140    46A      0.631889
      47A      0.639161    48A      0.639951    49A      0.666730
      50A      0.667228    51A      0.686175    52A      0.686815
      53A      0.757518    54A      0.830152    55A      0.830990
      56A      0.855271    57A      0.922978    58A      0.923018
      59A      0.945967    60A      0.953540    61A      0.966373
      62A      0.966830    63A      1.008694    64A      1.131773
      65A      1.132503    66A      1.155596    67A      1.168229
      68A      1.168456    69A      1.232296    70A      1.279853
      71A      1.280321    72A      1.285108    73A      1.328862
      74A      1.329821    75A      1.365381    76A      1.370901
      77A      1.371702    78A      1.393511    79A      1.407089
      80A      1.407938    81A      1.421708    82A      1.422610
      83A      1.428185    84A      1.492540    85A      1.509528
      86A      1.547132    87A      1.547341    88A      1.582034
      89A      1.582614    90A      1.674647    91A      1.744746
      92A      1.745586    93A      1.779110    94A      1.833680
      95A      1.836891    96A      1.972566    97A      2.024791
      98A      2.026076    99A      2.039676   100A      2.059017
     101A      2.059751   102A      2.746360   103A      2.747282
     104A      2.811841   105A      2.816061   106A      2.902313
     107A      2.902953   108A      2.924658   109A      2.931916
     110A      2.932039   111A      2.960070   112A      2.968360
     113A      2.969493   114A      3.041955   115A      3.080847
     116A      3.081480   117A      3.086252   118A      3.184304
     119A      3.184734   120A      3.188300   121A      3.290017
     122A      3.290218   123A      3.330799   124A      3.331134
     125A      3.383430   126A      3.492041   127A      3.493745
     128A      3.512383   129A      3.528385   130A      3.574949
     131A      3.581719   132A      3.581794   133A      3.670321
     134A      3.671881   135A      3.692971   136A      3.725259
     137A      3.726258   138A      3.780797   139A      3.781887
     140A      3.817667   141A      3.921597   142A      3.922467
     143A      4.045321   144A      4.117602   145A      4.118629
     146A      4.153574   147A      4.157020   148A      4.187368
     149A      4.207845   150A      4.208468   151A      4.212239
     152A      4.215656   153A      4.322656   154A      4.324122
     155A      4.362325   156A      4.432440   157A      4.432753
     158A      4.446476   159A      4.523569   160A      4.525670
     161A      4.588438   162A      4.589356   163A      4.624724
     164A      4.719823   165A      4.781039   166A      4.782055
     167A      4.839799   168A      4.967661   169A      5.006281
     170A      5.007729   171A      5.233548   172A      5.244964
     173A      5.252221   174A      5.358987   175A      5.365171
     176A      5.481757

    Final Occupation by Irrep:
              A
    DOCC [    16 ]
    SOCC [     1 ]

  @DF-UKS Final Energy:  -157.81305599001297

   => Energetics <=

    Nuclear Repulsion Energy =            125.3946584467252450
    One-Electron Energy =                -458.7489439405927669
    Two-Electron Energy =                 195.8483771066861721
    DFT Exchange-Correlation Energy =     -20.3071476028316233
    Empirical Dispersion Energy =           0.0000000000000000
    VV10 Nonlocal Energy =                  0.0000000000000000
    Total Energy =                       -157.8130559900129697

  UHF NO Occupations:
  HONO-2 :   15  A 1.9996008
  HONO-1 :   16  A 1.9989805
  HONO-0 :   17  A 1.0000000
  LUNO+0 :   18  A 0.0010195
  LUNO+1 :   19  A 0.0003992
  LUNO+2 :   20  A 0.0001977
  LUNO+3 :   21  A 0.0001974

Computation Completed

Properties will be evaluated at   0.000000,   0.000000,   0.000000 [a0]

Properties computed using the SCF density matrix

  Nuclear Dipole Moment: [e a0]
     X:     0.8272      Y:    -0.0025      Z:     0.0012

  Electronic Dipole Moment: [e a0]
     X:    -0.7493      Y:     0.0050      Z:    -0.0011

  Dipole Moment: [e a0]
     X:     0.0779      Y:     0.0024      Z:     0.0001     Total:     0.0779

  Dipole Moment: [D]
     X:     0.1980      Y:     0.0062      Z:     0.0003     Total:     0.1981

*** tstop() called on n049 at Fri Nov  5 12:21:07 2021
Module time:
	user time   =     543.17 seconds =       9.05 minutes
	system time =      11.99 seconds =       0.20 minutes
	total time  =        140 seconds =       2.33 minutes
Total time:
	user time   =     543.17 seconds =       9.05 minutes
	system time =      11.99 seconds =       0.20 minutes
	total time  =        140 seconds =       2.33 minutes
Grab this energy -157.81305599001297
    Psi4 stopped on: Friday, 05 November 2021 12:21PM
    Psi4 wall time for execution: 0:02:19.60

*** Psi4 exiting successfully. Buy a developer a beer!
