                               Psi4 1.4a2.dev629

  ==> Input File <==

--------------------------------------------------------------------------
import os
memory 14 GB

molecule {
 C   -0.3265076690   -0.0000018531   -0.0010203727
 C    0.0604616036   -1.4015756612   -2.4257891545
 C    0.0596942530    2.8019379502    0.0018025355
 C    0.0591680523   -1.4003569000    2.4272832245
 H    2.0871980591   -1.6439681315   -2.8479145026
 H   -0.7644906633   -0.3877084427   -4.0255192308
 H   -0.7648050005   -3.2920874868   -2.3487830388
 H    2.0871297024    3.2883633101   -0.0006986528
 H   -0.7647728455    3.6800976316    1.6766199171
 H   -0.7644703841    3.6799146116   -1.6771853615
 H    2.0873424514   -1.6444894752    2.8474202382
 H   -0.7642836764   -3.2923587560    2.3483639916
 H   -0.7642717598   -0.3877911106    4.0254204068
units bohr
0 2
}

basis {

assign 6-31g_2dfp_

[ 6-31g_2dfp_ ]

spherical

!----------------------------------------------------------------------
! Basis Set Exchange
! Version v0.8.13
! https://www.basissetexchange.org
!----------------------------------------------------------------------
!   Basis set: 6-31G(2df,p)
! Description: 6-31G(2df,p)
!        Role: orbital
!     Version: 0  (Data from the original Basis Set Exchange)
!----------------------------------------------------------------------

****
H     0
S    3   1.00
     18.7311370              0.03349460
      2.8253937              0.23472695
      0.6401217              0.81375733
S    1   1.00
      0.1612778              1.00000000
P    1   1.00
      1.5000000              1.0000000
P    1   1.00
      0.3750000              1.0000000
****
B     0
S    6   1.00
   2068.8823000              0.0018663
    310.6495700              0.0142515
     70.6830330              0.0695516
     19.8610800              0.2325729
      6.2993048              0.4670787
      2.1270270              0.3634314
SP   3   1.00
      4.7279710             -0.1303938              0.0745976
      1.1903377             -0.1307889              0.3078467
      0.3594117              1.1309444              0.7434568
SP   1   1.00
      0.1267512              1.0000000              1.0000000
D    1   1.00
      0.8020000              1.0000000
D    1   1.00
      0.2005000              1.0000000
F    1   1.00
      0.5000000              1.0000000
****
C     0
S    6   1.00
   3047.5249000              0.0018347
    457.3695100              0.0140373
    103.9486900              0.0688426
     29.2101550              0.2321844
      9.2866630              0.4679413
      3.1639270              0.3623120
SP   3   1.00
      7.8682724             -0.1193324              0.0689991
      1.8812885             -0.1608542              0.3164240
      0.5442493              1.1434564              0.7443083
SP   1   1.00
      0.1687144              1.0000000              1.0000000
D    1   1.00
      1.2520000              1.0000000
D    1   1.00
      0.3130000              1.0000000
F    1   1.00
      0.8000000              1.0000000
****
N     0
S    6   1.00
   4173.5110000              0.0018348
    627.4579000              0.0139950
    142.9021000              0.0685870
     40.2343300              0.2322410
     12.8202100              0.4690700
      4.3904370              0.3604550
SP   3   1.00
     11.6263580             -0.1149610              0.0675800
      2.7162800             -0.1691180              0.3239070
      0.7722180              1.1458520              0.7408950
SP   1   1.00
      0.2120313              1.0000000              1.0000000
D    1   1.00
      1.8260000              1.0000000
D    1   1.00
      0.4565000              1.0000000
F    1   1.00
      1.0000000              1.0000000
****
O     0
S    6   1.00
   5484.6717000              0.0018311
    825.2349500              0.0139501
    188.0469600              0.0684451
     52.9645000              0.2327143
     16.8975700              0.4701930
      5.7996353              0.3585209
SP   3   1.00
     15.5396160             -0.1107775              0.0708743
      3.5999336             -0.1480263              0.3397528
      1.0137618              1.1307670              0.7271586
SP   1   1.00
      0.2700058              1.0000000              1.0000000
D    1   1.00
      2.5840000              1.0000000
D    1   1.00
      0.6460000              1.0000000
F    1   1.00
      1.4000000              1.0000000
****
F     0
S    6   1.00
   7001.7130900              0.0018196169
   1051.3660900              0.0139160796
    239.2856900              0.0684053245
     67.3974453              0.233185760
     21.5199573              0.471267439
      7.40310130             0.356618546
SP   3   1.00
     20.8479528             -0.108506975            0.0716287243
      4.80830834            -0.146451658            0.3459121030
      1.34406986             1.128688580            0.7224699570
SP   1   1.00
      0.358151393            1.0000000              1.0000000
D    1   1.00
      3.5000000              1.0000000
D    1   1.00
      0.8750000              1.0000000
F    1   1.00
      1.8500000              1.0000000
****
Al     0
S    6   1.00
  13983.1000000              0.00194267
   2098.7500000              0.0148599
    477.7050000              0.0728494
    134.3600000              0.2468300
     42.8709000              0.4872580
     14.5189000              0.3234960
SP   6   1.00
    239.6680000             -0.00292619             0.00460285
     57.4419000             -0.0374080              0.0331990
     18.2859000             -0.1144870              0.1362820
      6.5991400              0.1156350              0.3304760
      2.4904900              0.6125950              0.4491460
      0.9445400              0.3937990              0.2657040
SP   3   1.00
      1.2779000             -0.2276060             -0.0175130
      0.3975900              0.00144583             0.2445330
      0.1600950              1.0927900              0.8049340
SP   1   1.00
      0.0556577              1.0000000              1.0000000
D    1   1.00
      0.6500000              1.0000000
D    1   1.00
      0.1625000              1.0000000
F    1   1.00
      0.2500000              1.0000000
****
Si     0
S    6   1.00
  16115.9000000              0.00195948
   2425.5800000              0.01492880
    553.8670000              0.07284780
    156.3400000              0.24613000
     50.0683000              0.48591400
     17.0178000              0.32500200
SP   6   1.00
    292.7180000             -0.00278094             0.00443826
     69.8731000             -0.03571460             0.03266790
     22.3363000             -0.11498500             0.13472100
      8.1503900              0.09356340             0.32867800
      3.1345800              0.60301700             0.44964000
      1.2254300              0.41895900             0.26137200
SP   3   1.00
      1.7273800             -0.24463000            -0.01779510
      0.5729220              0.00431572             0.25353900
      0.2221920              1.09818000             0.80066900
SP   1   1.00
      0.0778369              1.00000000             1.00000000
D    1   1.00
      0.9000000              1.0000000
D    1   1.00
      0.2250000              1.0000000
F    1   1.00
      0.3200000              1.0000000
****
P     0
S    6   1.00
  19413.3000000              0.0018516
   2909.4200000              0.0142062
    661.3640000              0.0699995
    185.7590000              0.2400790
     59.1943000              0.4847620
     20.0310000              0.3352000
SP   6   1.00
    339.4780000             -0.00278217             0.00456462
     81.0101000             -0.0360499              0.03369360
     25.8780000             -0.1166310              0.13975500
      9.4522100              0.0968328              0.33936200
      3.6656600              0.6144180              0.45092100
      1.4674600              0.4037980              0.23858600
SP   3   1.00
      2.1562300             -0.2529230             -0.01776530
      0.7489970              0.0328517              0.27405800
      0.2831450              1.0812500              0.78542100
SP   1   1.00
      0.0998317              1.0000000              1.00000000
D    1   1.00
      1.1000000              1.0000000
D    1   1.00
      0.2750000              1.0000000
F    1   1.00
      0.4500000              1.0000000
****
S     0
S    6   1.00
  21917.1000000              0.0018690
   3301.4900000              0.0142300
    754.1460000              0.0696960
    212.7110000              0.2384870
     67.9896000              0.4833070
     23.0515000              0.3380740
SP   6   1.00
    423.7350000             -0.0023767              0.0040610
    100.7100000             -0.0316930              0.0306810
     32.1599000             -0.1133170              0.1304520
     11.8079000              0.0560900              0.3272050
      4.6311000              0.5922550              0.4528510
      1.8702500              0.4550060              0.2560420
SP   3   1.00
      2.6158400             -0.2503740             -0.0145110
      0.9221670              0.0669570              0.3102630
      0.3412870              1.0545100              0.7544830
SP   1   1.00
      0.1171670              1.0000000              1.0000000
D    1   1.00
      1.3000000              1.0000000
D    1   1.00
      0.3250000              1.0000000
F    1   1.00
      0.5500000              1.0000000
****
Cl     0
S    6   1.00
  25180.1000000              0.0018330
   3780.3500000              0.0140340
    860.4740000              0.0690970
    242.1450000              0.2374520
     77.3349000              0.4830340
     26.2470000              0.3398560
SP   6   1.00
    491.7650000             -0.0022974              0.0039894
    116.9840000             -0.0307140              0.0303180
     37.4153000             -0.1125280              0.1298800
     13.7834000              0.0450160              0.3279510
      5.4521500              0.5893530              0.4535270
      2.2258800              0.4652060              0.2521540
SP   3   1.00
      3.1864900             -0.2518300             -0.0142990
      1.1442700              0.0615890              0.3235720
      0.4203770              1.0601800              0.7435070
SP   1   1.00
      0.1426570              1.0000000              1.0000000
D    1   1.00
      1.5000000              1.0000000
D    1   1.00
      0.3750000              1.0000000
F    1   1.00
      0.7000000              1.0000000
****
}

set {
reference uhf
freeze_core true
e_convergence 10
d_convergence 10
dft_spherical_points 1202
dft_radial_points 99
}

e = energy('b3lyp')

print_out('Grab this energy {0}'.format(e))
--------------------------------------------------------------------------

    Molecular point group: c1

    Geometry (in Bohr), charge = 0, multiplicity = 2:

       Center              X                  Y                   Z               Mass
    ------------   -----------------  -----------------  -----------------  -----------------
         C           -0.325131726430    -0.000002104778    -0.001458791532    12.000000000000
         C            0.061837546170    -1.401575912878    -2.426227573332    12.000000000000
         C            0.061070195570     2.801937698522     0.001364116668    12.000000000000
         C            0.060543994870    -1.400357151678     2.426844805668    12.000000000000
         H            2.088574001670    -1.643968383178    -2.848352921432     1.007825032230
         H           -0.763114720730    -0.387708694378    -4.025957649632     1.007825032230
         H           -0.763429057930    -3.292087738478    -2.349221457632     1.007825032230
         H            2.088505644970     3.288363058422    -0.001137071632     1.007825032230
         H           -0.763396902930     3.680097379922     1.676181498268     1.007825032230
         H           -0.763094441530     3.679914359922    -1.677623780332     1.007825032230
         H            2.088718393970    -1.644489726878     2.846981819368     1.007825032230
         H           -0.762907733830    -3.292359007678     2.347925572768     1.007825032230
         H           -0.762895817230    -0.387791362278     4.024981987968     1.007825032230

  Charge       = 0
  Multiplicity = 2
  Basis Set: ANONYMOUS42C8A87E
    Blend: 6-31G_2DFP_
  Basis Set: (ANONYMOUS42C8A87E AUX)
    Blend: DEF2-UNIVERSAL-JKFIT

    Orbital Energies [Eh]
    ---------------------

    Alpha Occupied:

       1A    -10.180455     2A    -10.167073     3A    -10.167044
       4A    -10.166999     5A     -0.797712     6A     -0.686254
       7A     -0.686095     8A     -0.530797     9A     -0.440890
      10A     -0.434825    11A     -0.434807    12A     -0.382390
      13A     -0.382314    14A     -0.363891    15A     -0.338342
      16A     -0.337754    17A     -0.169076

    Alpha Virtual:

      18A      0.076089    19A      0.134124    20A      0.134197
      21A      0.142645    22A      0.142777    23A      0.154814
      24A      0.178624    25A      0.178725    26A      0.203501
      27A      0.214935    28A      0.275720    29A      0.275973
      30A      0.399102    31A      0.399321    32A      0.403301
      33A      0.424086    34A      0.424096    35A      0.456589
      36A      0.495406    37A      0.495477    38A      0.512056
      39A      0.513983    40A      0.578865    41A      0.578950
      42A      0.591310    43A      0.591347    44A      0.602261
      45A      0.624902    46A      0.631911    47A      0.636377
      48A      0.636386    49A      0.663151    50A      0.663328
      51A      0.683866    52A      0.683888    53A      0.734865
      54A      0.825229    55A      0.825236    56A      0.853963
      57A      0.914756    58A      0.914967    59A      0.944023
      60A      0.944593    61A      0.961320    62A      0.961447
      63A      1.004333    64A      1.128314    65A      1.128351
      66A      1.141840    67A      1.163111    68A      1.163157
      69A      1.222903    70A      1.274022    71A      1.274383
      72A      1.279204    73A      1.324412    74A      1.324527
      75A      1.354965    76A      1.366170    77A      1.366632
      78A      1.392511    79A      1.403186    80A      1.403677
      81A      1.416253    82A      1.416764    83A      1.427736
      84A      1.491960    85A      1.498578    86A      1.543041
      87A      1.543380    88A      1.574229    89A      1.574864
      90A      1.670350    91A      1.739093    92A      1.739312
      93A      1.768124    94A      1.831652    95A      1.831797
      96A      1.972281    97A      2.017868    98A      2.018435
      99A      2.019208   100A      2.051663   101A      2.052871
     102A      2.738107   103A      2.738202   104A      2.790705
     105A      2.811701   106A      2.889105   107A      2.890449
     108A      2.894975   109A      2.929482   110A      2.929816
     111A      2.959159   112A      2.964054   113A      2.964638
     114A      3.033969   115A      3.070536   116A      3.070796
     117A      3.084413   118A      3.168637   119A      3.168872
     120A      3.180797   121A      3.285446   122A      3.285881
     123A      3.328047   124A      3.328139   125A      3.375321
     126A      3.489938   127A      3.490016   128A      3.513557
     129A      3.525489   130A      3.567868   131A      3.568060
     132A      3.574698   133A      3.666158   134A      3.666577
     135A      3.680714   136A      3.693825   137A      3.693847
     138A      3.775916   139A      3.775942   140A      3.787797
     141A      3.911971   142A      3.912677   143A      4.033289
     144A      4.111532   145A      4.111973   146A      4.148166
     147A      4.148536   148A      4.173107   149A      4.202210
     150A      4.202746   151A      4.202815   152A      4.210742
     153A      4.314964   154A      4.316542   155A      4.359064
     156A      4.423236   157A      4.424368   158A      4.444350
     159A      4.516787   160A      4.517172   161A      4.578082
     162A      4.578663   163A      4.616654   164A      4.709045
     165A      4.774191   166A      4.774503   167A      4.836676
     168A      4.962923   169A      5.001961   170A      5.002518
     171A      5.227967   172A      5.246590   173A      5.247068
     174A      5.355936   175A      5.355976   176A      5.478835

    Beta Occupied:

       1A    -10.167828     2A    -10.167799     3A    -10.167767
       4A    -10.166634     5A     -0.781053     6A     -0.684058
       7A     -0.683904     8A     -0.511773     9A     -0.431215
      10A     -0.431184    11A     -0.421579    12A     -0.376471
      13A     -0.376380    14A     -0.362876    15A     -0.333461
      16A     -0.332875

    Beta Virtual:

      17A     -0.025891    18A      0.077100    19A      0.135035
      20A      0.135132    21A      0.144524    22A      0.144619
      23A      0.163305    24A      0.182296    25A      0.182373
      26A      0.215160    27A      0.218861    28A      0.282094
      29A      0.282319    30A      0.400275    31A      0.400494
      32A      0.419807    33A      0.426894    34A      0.426905
      35A      0.468434    36A      0.497669    37A      0.497735
      38A      0.513796    39A      0.556281    40A      0.584406
      41A      0.584491    42A      0.597497    43A      0.597553
      44A      0.609709    45A      0.628246    46A      0.632069
      47A      0.639646    48A      0.639653    49A      0.666738
      50A      0.666924    51A      0.686497    52A      0.686522
      53A      0.757395    54A      0.830420    55A      0.830423
      56A      0.855319    57A      0.922731    58A      0.922942
      59A      0.945859    60A      0.953488    61A      0.966617
      62A      0.966725    63A      1.009621    64A      1.132247
      65A      1.132264    66A      1.155223    67A      1.168237
      68A      1.168306    69A      1.231868    70A      1.279610
      71A      1.280023    72A      1.284951    73A      1.329449
      74A      1.329586    75A      1.364364    76A      1.371391
      77A      1.371903    78A      1.393581    79A      1.406625
      80A      1.407132    81A      1.421307    82A      1.421778
      83A      1.427989    84A      1.493011    85A      1.509001
      86A      1.547544    87A      1.547911    88A      1.582003
      89A      1.582625    90A      1.675182    91A      1.744865
      92A      1.745082    93A      1.778908    94A      1.835503
      95A      1.835644    96A      1.973139    97A      2.024699
      98A      2.025512    99A      2.039429   100A      2.058379
     101A      2.059629   102A      2.746452   103A      2.746534
     104A      2.812113   105A      2.815789   106A      2.901819
     107A      2.903137   108A      2.924598   109A      2.931904
     110A      2.932305   111A      2.960223   112A      2.968624
     113A      2.969185   114A      3.041944   115A      3.080463
     116A      3.080739   117A      3.086234   118A      3.184278
     119A      3.184558   120A      3.188564   121A      3.290233
     122A      3.290607   123A      3.331854   124A      3.331972
     125A      3.383101   126A      3.492661   127A      3.492769
     128A      3.511924   129A      3.528498   130A      3.574538
     131A      3.581328   132A      3.581431   133A      3.670752
     134A      3.671351   135A      3.693981   136A      3.725312
     137A      3.725673   138A      3.780433   139A      3.780556
     140A      3.816369   141A      3.921770   142A      3.922517
     143A      4.044187   144A      4.118324   145A      4.118765
     146A      4.155428   147A      4.155724   148A      4.187199
     149A      4.208636   150A      4.208717   151A      4.210242
     152A      4.215249   153A      4.322360   154A      4.324003
     155A      4.362439   156A      4.431507   157A      4.432635
     158A      4.447211   159A      4.524595   160A      4.524952
     161A      4.588681   162A      4.589218   163A      4.623774
     164A      4.719480   165A      4.781140   166A      4.781413
     167A      4.839590   168A      4.967734   169A      5.006012
     170A      5.006571   171A      5.233650   172A      5.248373
     173A      5.248835   174A      5.362381   175A      5.362458
     176A      5.481156

    Final Occupation by Irrep:
              A
    DOCC [    16 ]
    SOCC [     1 ]

  @DF-UKS Final Energy:  -157.81306438425372

   => Energetics <=

    Nuclear Repulsion Energy =            125.3858755599906232
    One-Electron Energy =                -458.7313143644542492
    Two-Electron Energy =                 195.8392616535027742
    DFT Exchange-Correlation Energy =     -20.3068872332928692
    Empirical Dispersion Energy =           0.0000000000000000
    VV10 Nonlocal Energy =                  0.0000000000000000
    Total Energy =                       -157.8130643842537211

  UHF NO Occupations:
  HONO-2 :   15  A 1.9995999
  HONO-1 :   16  A 1.9989813
  HONO-0 :   17  A 1.0000000
  LUNO+0 :   18  A 0.0010187
  LUNO+1 :   19  A 0.0004001
  LUNO+2 :   20  A 0.0001980
  LUNO+3 :   21  A 0.0001972

Computation Completed

Properties will be evaluated at   0.000000,   0.000000,   0.000000 [a0]

Properties computed using the SCF density matrix

  Nuclear Dipole Moment: [e a0]
     X:     0.8369      Y:    -0.0000      Z:    -0.0031

  Electronic Dipole Moment: [e a0]
     X:    -0.7591      Y:     0.0000      Z:     0.0030

  Dipole Moment: [e a0]
     X:     0.0778      Y:     0.0000      Z:    -0.0001     Total:     0.0778

  Dipole Moment: [D]
     X:     0.1977      Y:     0.0000      Z:    -0.0001     Total:     0.1977

*** tstop() called on n059 at Fri Nov  5 12:02:07 2021
Module time:
	user time   =     541.86 seconds =       9.03 minutes
	system time =      11.81 seconds =       0.20 minutes
	total time  =        140 seconds =       2.33 minutes
Total time:
	user time   =     541.86 seconds =       9.03 minutes
	system time =      11.81 seconds =       0.20 minutes
	total time  =        140 seconds =       2.33 minutes
Grab this energy -157.81306438425372
    Psi4 stopped on: Friday, 05 November 2021 12:02PM
    Psi4 wall time for execution: 0:02:19.22

*** Psi4 exiting successfully. Buy a developer a beer!
