                               Psi4 1.4a2.dev629

  ==> Input File <==

--------------------------------------------------------------------------
import os
memory 14 GB

molecule {
 C   -0.3233397504   -0.0001782407    0.0000000000
 C    0.0623208932   -1.4024660823   -2.4253965989
 C    0.0586620698    2.8018732144    0.0000000000
 C    0.0623208932   -1.4024660823    2.4253965989
 H    2.0863810759   -1.6465464025   -2.8460358403
 H   -0.7682133368   -0.3863269726   -4.0273348477
 H   -0.7630561513   -3.2899756258   -2.3491998163
 H    2.0879141818    3.2880843537    0.0000000000
 H   -0.7653546700    3.6804132626    1.6757922097
 H   -0.7653546700    3.6804132626   -1.6757922097
 H    2.0863810759   -1.6465464025    2.8460358403
 H   -0.7630561513   -3.2899756258    2.3491998163
 H   -0.7682133368   -0.3863269726    4.0273348477
units bohr
0 2
}

basis {

assign 6-31g_2dfp_

[ 6-31g_2dfp_ ]

spherical

!----------------------------------------------------------------------
! Basis Set Exchange
! Version v0.8.13
! https://www.basissetexchange.org
!----------------------------------------------------------------------
!   Basis set: 6-31G(2df,p)
! Description: 6-31G(2df,p)
!        Role: orbital
!     Version: 0  (Data from the original Basis Set Exchange)
!----------------------------------------------------------------------

****
H     0
S    3   1.00
     18.7311370              0.03349460
      2.8253937              0.23472695
      0.6401217              0.81375733
S    1   1.00
      0.1612778              1.00000000
P    1   1.00
      1.5000000              1.0000000
P    1   1.00
      0.3750000              1.0000000
****
B     0
S    6   1.00
   2068.8823000              0.0018663
    310.6495700              0.0142515
     70.6830330              0.0695516
     19.8610800              0.2325729
      6.2993048              0.4670787
      2.1270270              0.3634314
SP   3   1.00
      4.7279710             -0.1303938              0.0745976
      1.1903377             -0.1307889              0.3078467
      0.3594117              1.1309444              0.7434568
SP   1   1.00
      0.1267512              1.0000000              1.0000000
D    1   1.00
      0.8020000              1.0000000
D    1   1.00
      0.2005000              1.0000000
F    1   1.00
      0.5000000              1.0000000
****
C     0
S    6   1.00
   3047.5249000              0.0018347
    457.3695100              0.0140373
    103.9486900              0.0688426
     29.2101550              0.2321844
      9.2866630              0.4679413
      3.1639270              0.3623120
SP   3   1.00
      7.8682724             -0.1193324              0.0689991
      1.8812885             -0.1608542              0.3164240
      0.5442493              1.1434564              0.7443083
SP   1   1.00
      0.1687144              1.0000000              1.0000000
D    1   1.00
      1.2520000              1.0000000
D    1   1.00
      0.3130000              1.0000000
F    1   1.00
      0.8000000              1.0000000
****
N     0
S    6   1.00
   4173.5110000              0.0018348
    627.4579000              0.0139950
    142.9021000              0.0685870
     40.2343300              0.2322410
     12.8202100              0.4690700
      4.3904370              0.3604550
SP   3   1.00
     11.6263580             -0.1149610              0.0675800
      2.7162800             -0.1691180              0.3239070
      0.7722180              1.1458520              0.7408950
SP   1   1.00
      0.2120313              1.0000000              1.0000000
D    1   1.00
      1.8260000              1.0000000
D    1   1.00
      0.4565000              1.0000000
F    1   1.00
      1.0000000              1.0000000
****
O     0
S    6   1.00
   5484.6717000              0.0018311
    825.2349500              0.0139501
    188.0469600              0.0684451
     52.9645000              0.2327143
     16.8975700              0.4701930
      5.7996353              0.3585209
SP   3   1.00
     15.5396160             -0.1107775              0.0708743
      3.5999336             -0.1480263              0.3397528
      1.0137618              1.1307670              0.7271586
SP   1   1.00
      0.2700058              1.0000000              1.0000000
D    1   1.00
      2.5840000              1.0000000
D    1   1.00
      0.6460000              1.0000000
F    1   1.00
      1.4000000              1.0000000
****
F     0
S    6   1.00
   7001.7130900              0.0018196169
   1051.3660900              0.0139160796
    239.2856900              0.0684053245
     67.3974453              0.233185760
     21.5199573              0.471267439
      7.40310130             0.356618546
SP   3   1.00
     20.8479528             -0.108506975            0.0716287243
      4.80830834            -0.146451658            0.3459121030
      1.34406986             1.128688580            0.7224699570
SP   1   1.00
      0.358151393            1.0000000              1.0000000
D    1   1.00
      3.5000000              1.0000000
D    1   1.00
      0.8750000              1.0000000
F    1   1.00
      1.8500000              1.0000000
****
Al     0
S    6   1.00
  13983.1000000              0.00194267
   2098.7500000              0.0148599
    477.7050000              0.0728494
    134.3600000              0.2468300
     42.8709000              0.4872580
     14.5189000              0.3234960
SP   6   1.00
    239.6680000             -0.00292619             0.00460285
     57.4419000             -0.0374080              0.0331990
     18.2859000             -0.1144870              0.1362820
      6.5991400              0.1156350              0.3304760
      2.4904900              0.6125950              0.4491460
      0.9445400              0.3937990              0.2657040
SP   3   1.00
      1.2779000             -0.2276060             -0.0175130
      0.3975900              0.00144583             0.2445330
      0.1600950              1.0927900              0.8049340
SP   1   1.00
      0.0556577              1.0000000              1.0000000
D    1   1.00
      0.6500000              1.0000000
D    1   1.00
      0.1625000              1.0000000
F    1   1.00
      0.2500000              1.0000000
****
Si     0
S    6   1.00
  16115.9000000              0.00195948
   2425.5800000              0.01492880
    553.8670000              0.07284780
    156.3400000              0.24613000
     50.0683000              0.48591400
     17.0178000              0.32500200
SP   6   1.00
    292.7180000             -0.00278094             0.00443826
     69.8731000             -0.03571460             0.03266790
     22.3363000             -0.11498500             0.13472100
      8.1503900              0.09356340             0.32867800
      3.1345800              0.60301700             0.44964000
      1.2254300              0.41895900             0.26137200
SP   3   1.00
      1.7273800             -0.24463000            -0.01779510
      0.5729220              0.00431572             0.25353900
      0.2221920              1.09818000             0.80066900
SP   1   1.00
      0.0778369              1.00000000             1.00000000
D    1   1.00
      0.9000000              1.0000000
D    1   1.00
      0.2250000              1.0000000
F    1   1.00
      0.3200000              1.0000000
****
P     0
S    6   1.00
  19413.3000000              0.0018516
   2909.4200000              0.0142062
    661.3640000              0.0699995
    185.7590000              0.2400790
     59.1943000              0.4847620
     20.0310000              0.3352000
SP   6   1.00
    339.4780000             -0.00278217             0.00456462
     81.0101000             -0.0360499              0.03369360
     25.8780000             -0.1166310              0.13975500
      9.4522100              0.0968328              0.33936200
      3.6656600              0.6144180              0.45092100
      1.4674600              0.4037980              0.23858600
SP   3   1.00
      2.1562300             -0.2529230             -0.01776530
      0.7489970              0.0328517              0.27405800
      0.2831450              1.0812500              0.78542100
SP   1   1.00
      0.0998317              1.0000000              1.00000000
D    1   1.00
      1.1000000              1.0000000
D    1   1.00
      0.2750000              1.0000000
F    1   1.00
      0.4500000              1.0000000
****
S     0
S    6   1.00
  21917.1000000              0.0018690
   3301.4900000              0.0142300
    754.1460000              0.0696960
    212.7110000              0.2384870
     67.9896000              0.4833070
     23.0515000              0.3380740
SP   6   1.00
    423.7350000             -0.0023767              0.0040610
    100.7100000             -0.0316930              0.0306810
     32.1599000             -0.1133170              0.1304520
     11.8079000              0.0560900              0.3272050
      4.6311000              0.5922550              0.4528510
      1.8702500              0.4550060              0.2560420
SP   3   1.00
      2.6158400             -0.2503740             -0.0145110
      0.9221670              0.0669570              0.3102630
      0.3412870              1.0545100              0.7544830
SP   1   1.00
      0.1171670              1.0000000              1.0000000
D    1   1.00
      1.3000000              1.0000000
D    1   1.00
      0.3250000              1.0000000
F    1   1.00
      0.5500000              1.0000000
****
Cl     0
S    6   1.00
  25180.1000000              0.0018330
   3780.3500000              0.0140340
    860.4740000              0.0690970
    242.1450000              0.2374520
     77.3349000              0.4830340
     26.2470000              0.3398560
SP   6   1.00
    491.7650000             -0.0022974              0.0039894
    116.9840000             -0.0307140              0.0303180
     37.4153000             -0.1125280              0.1298800
     13.7834000              0.0450160              0.3279510
      5.4521500              0.5893530              0.4535270
      2.2258800              0.4652060              0.2521540
SP   3   1.00
      3.1864900             -0.2518300             -0.0142990
      1.1442700              0.0615890              0.3235720
      0.4203770              1.0601800              0.7435070
SP   1   1.00
      0.1426570              1.0000000              1.0000000
D    1   1.00
      1.5000000              1.0000000
D    1   1.00
      0.3750000              1.0000000
F    1   1.00
      0.7000000              1.0000000
****
}

set {
reference uhf
freeze_core true
e_convergence 10
d_convergence 10
dft_spherical_points 1202
dft_radial_points 99
}

e = energy('b3lyp')

print_out('Grab this energy {0}'.format(e))
--------------------------------------------------------------------------

    Molecular point group: cs

    Geometry (in Bohr), charge = 0, multiplicity = 2:

       Center              X                  Y                   Z               Mass
    ------------   -----------------  -----------------  -----------------  -----------------
         C           -0.323340538286     0.000445694949     0.000000000000    12.000000000000
         C            0.062320105314    -1.401842146651    -2.425396598900    12.000000000000
         C            0.058661281914     2.802497150049     0.000000000000    12.000000000000
         C            0.062320105314    -1.401842146651     2.425396598900    12.000000000000
         H            2.086380288014    -1.645922466851    -2.846035840300     1.007825032230
         H           -0.768214124686    -0.385703036951    -4.027334847700     1.007825032230
         H           -0.763056939186    -3.289351690151    -2.349199816300     1.007825032230
         H            2.087913393914     3.288708289349     0.000000000000     1.007825032230
         H           -0.765355457886     3.681037198249     1.675792209700     1.007825032230
         H           -0.765355457886     3.681037198249    -1.675792209700     1.007825032230
         H            2.086380288014    -1.645922466851     2.846035840300     1.007825032230
         H           -0.763056939186    -3.289351690151     2.349199816300     1.007825032230
         H           -0.768214124686    -0.385703036951     4.027334847700     1.007825032230

  Charge       = 0
  Multiplicity = 2
  Basis Set: ANONYMOUSB7730141
    Blend: 6-31G_2DFP_
  Basis Set: (ANONYMOUSB7730141 AUX)
    Blend: DEF2-UNIVERSAL-JKFIT

    Orbital Energies [Eh]
    ---------------------

    Alpha Occupied:

       1Ap   -10.180342     2Ap   -10.167048     1App  -10.167017
       3Ap   -10.166979     4Ap    -0.797766     5Ap    -0.686281
       2App   -0.686096     6Ap    -0.530779     7Ap    -0.441132
       3App   -0.434960     8Ap    -0.434374     4App   -0.382774
       9Ap    -0.382426     5App   -0.363616    10Ap    -0.338246
       6App   -0.337747    11Ap    -0.168961

    Alpha Virtual:

      12Ap     0.076070     7App    0.134072    13Ap     0.134234
      14Ap     0.142354     8App    0.142896    15Ap     0.154885
      16Ap     0.178573     9App    0.178985    17Ap     0.203548
      10App    0.214804    18Ap     0.275931    11App    0.276040
      12App    0.398828    19Ap     0.399618    20Ap     0.403354
      13App    0.423887    21Ap     0.424306    22Ap     0.456593
      14App    0.495311    23Ap     0.495469    15App    0.512160
      24Ap     0.513979    25Ap     0.578669    16App    0.578964
      26Ap     0.591365    17App    0.591895    27Ap     0.602573
      28Ap     0.624700    18App    0.631772    29Ap     0.635926
      19App    0.636633    30Ap     0.663036    20App    0.663793
      21App    0.683521    31Ap     0.684205    32Ap     0.734995
      33Ap     0.825171    22App    0.825643    23App    0.853915
      24App    0.914830    34Ap     0.915221    25App    0.944126
      35Ap     0.944608    26App    0.961277    36Ap     0.961311
      37Ap     1.003454    27App    1.127942    38Ap     1.128281
      39Ap     1.142223    40Ap     1.163225    28App    1.163311
      41Ap     1.223325    42Ap     1.274087    29App    1.274878
      43Ap     1.279367    44Ap     1.323890    30App    1.324818
      45Ap     1.355988    31App    1.366041    46Ap     1.366063
      32App    1.392437    47Ap     1.403886    33App    1.404222
      34App    1.416701    48Ap     1.417511    35App    1.427905
      36App    1.491494    49Ap     1.499069    50Ap     1.542819
      37App    1.542857    51Ap     1.574388    38App    1.574511
      52Ap     1.669834    53Ap     1.738313    39App    1.740540
      54Ap     1.768311    40App    1.830387    55Ap     1.832365
      41App    1.971771    56Ap     2.017425    57Ap     2.018714
      42App    2.020253    58Ap     2.051757    43App    2.053541
      59Ap     2.738263    44App    2.738705    60Ap     2.790928
      45App    2.811425    46App    2.889836    61Ap     2.890074
      62Ap     2.894942    47App    2.929498    63Ap     2.929498
      48App    2.958968    64Ap     2.964209    49App    2.964573
      65Ap     3.034015    50App    3.070498    66Ap     3.071961
      51App    3.084483    67Ap     3.168231    52App    3.169323
      68Ap     3.180600    53App    3.285182    69Ap     3.285428
      70Ap     3.326631    54App    3.327714    71Ap     3.375625
      55App    3.489566    72Ap     3.490762    56App    3.514019
      73Ap     3.525333    57App    3.568052    74Ap     3.568725
      58App    3.575117    75Ap     3.665587    59App    3.667207
      76Ap     3.679657    60App    3.693879    77Ap     3.694395
      78Ap     3.776610    61App    3.776969    79Ap     3.789135
      62App    3.911556    80Ap     3.912880    81Ap     4.034437
      82Ap     4.110899    63App    4.111756    64App    4.147811
      83Ap     4.148410    84Ap     4.173316    65App    4.202371
      85Ap     4.202582    86Ap     4.203796    66App    4.210928
      67App    4.314883    87Ap     4.317058    68App    4.358962
      88Ap     4.424042    69App    4.424877    70App    4.443479
      89Ap     4.514736    71App    4.518939    72App    4.578062
      90Ap     4.578492    91Ap     4.617544    92Ap     4.709400
      93Ap     4.773159    73App    4.776076    74App    4.836934
      94Ap     4.962859    95Ap     5.002115    75App    5.003779
      96Ap     5.227558    76App    5.246702    97Ap     5.247380
      98Ap     5.354559    77App    5.356513    78App    5.479418

    Beta Occupied:

       1Ap   -10.167805     1App  -10.167769     2Ap   -10.167750
       3Ap   -10.166520     4Ap    -0.781092     5Ap    -0.684086
       2App   -0.683896     6Ap    -0.511751     3App   -0.431335
       7Ap    -0.430751     8Ap    -0.421818     4App   -0.376864
       9Ap    -0.376506     5App   -0.362599    10Ap    -0.333366
       6App   -0.332873

    Beta Virtual:

      11Ap    -0.025743    12Ap     0.077078     7App    0.134929
      13Ap     0.135158    14Ap     0.144205     8App    0.144789
      15Ap     0.163341    16Ap     0.182243     9App    0.182657
      10App    0.215033    17Ap     0.218930    18Ap     0.282278
      11App    0.282389    12App    0.399991    19Ap     0.400803
      20Ap     0.419791    13App    0.426695    21Ap     0.427120
      22Ap     0.468501    14App    0.497569    23Ap     0.497732
      15App    0.513895    24Ap     0.556324    25Ap     0.584226
      16App    0.584508    26Ap     0.597514    17App    0.598103
      27Ap     0.609999    28Ap     0.628078    18App    0.631928
      29Ap     0.639231    19App    0.639899    30Ap     0.666629
      20App    0.667327    21App    0.686175    31Ap     0.686820
      32Ap     0.757518    33Ap     0.830348    22App    0.830802
      23App    0.855268    24App    0.922819    34Ap     0.923175
      25App    0.945963    35Ap     0.953533    26App    0.966572
      36Ap     0.966631    37Ap     1.008694    27App    1.132011
      38Ap     1.132269    39Ap     1.155602    28App    1.168341
      40Ap     1.168342    41Ap     1.232297    42Ap     1.279662
      29App    1.280497    43Ap     1.285121    44Ap     1.328870
      30App    1.329815    45Ap     1.365404    31App    1.371220
      46Ap     1.371371    32App    1.393498    47Ap     1.407320
      33App    1.407718    34App    1.421783    48Ap     1.422528
      35App    1.428173    36App    1.492544    49Ap     1.509511
      37App    1.547170    50Ap     1.547326    51Ap     1.582205
      38App    1.582432    52Ap     1.674682    53Ap     1.744069
      39App    1.746308    54Ap     1.779091    40App    1.834236
      55Ap     1.836225    41App    1.972631    56Ap     2.024240
      42App    2.026650    57Ap     2.039669    58Ap     2.058496
      43App    2.060242    59Ap     2.746594    44App    2.747047
      45App    2.811837    60Ap     2.816063    46App    2.902574
      61Ap     2.902715    62Ap     2.924649    47App    2.931936
      63Ap     2.932020    48App    2.960041    64Ap     2.968751
      49App    2.969109    65Ap     3.041950    50App    3.080244
      66Ap     3.081865    51App    3.086470    67Ap     3.183998
      52App    3.185022    68Ap     3.188317    53App    3.289961
      69Ap     3.290248    70Ap     3.330387    54App    3.331565
      71Ap     3.383443    55App    3.492310    72Ap     3.493479
      56App    3.512383    73Ap     3.528378    57App    3.574977
      58App    3.581251    74Ap     3.582207    75Ap     3.670523
      59App    3.671765    76Ap     3.692956    77Ap     3.725678
      60App    3.725857    78Ap     3.781129    61App    3.781513
      79Ap     3.817669    62App    3.921290    80Ap     3.922778
      81Ap     4.045324    82Ap     4.117455    63App    4.118837
      64App    4.154739    83Ap     4.155905    84Ap     4.187359
      65App    4.208326    85Ap     4.209585    86Ap     4.210674
      66App    4.215412    67App    4.322342    87Ap     4.324483
      68App    4.362328    88Ap     4.432268    69App    4.433066
      70App    4.446372    89Ap     4.522522    71App    4.526731
      72App    4.588711    90Ap     4.589048    91Ap     4.624737
      92Ap     4.719743    93Ap     4.780160    73App    4.782982
      74App    4.839852    94Ap     4.967653    95Ap     5.006174
      75App    5.007798    96Ap     5.233157    76App    5.248502
      97Ap     5.249271    98Ap     5.361047    77App    5.362980
      78App    5.481740

    Final Occupation by Irrep:
             Ap   App
    DOCC [    10,    6 ]
    SOCC [     1,    0 ]

  @DF-UKS Final Energy:  -157.81305456193542

   => Energetics <=

    Nuclear Repulsion Energy =            125.3946664732821858
    One-Electron Energy =                -458.7489476095331611
    Two-Electron Energy =                 195.8483746509733692
    DFT Exchange-Correlation Energy =     -20.3071480766578354
    Empirical Dispersion Energy =           0.0000000000000000
    VV10 Nonlocal Energy =                  0.0000000000000000
    Total Energy =                       -157.8130545619354166

  UHF NO Occupations:
  HONO-2 :    9 Ap 1.9996009
  HONO-1 :   10 Ap 1.9989805
  HONO-0 :   11 Ap 1.0000000
  LUNO+0 :   12 Ap 0.0010195
  LUNO+1 :   13 Ap 0.0003991
  LUNO+2 :    7App 0.0001977
  LUNO+3 :   14 Ap 0.0001974

Computation Completed

Properties will be evaluated at   0.000000,   0.000000,   0.000000 [a0]

Properties computed using the SCF density matrix

  Nuclear Dipole Moment: [e a0]
     X:     0.8272      Y:     0.0044      Z:    -0.0000

  Electronic Dipole Moment: [e a0]
     X:    -0.7493      Y:    -0.0060      Z:     0.0000

  Dipole Moment: [e a0]
     X:     0.0779      Y:    -0.0016      Z:    -0.0000     Total:     0.0779

  Dipole Moment: [D]
     X:     0.1980      Y:    -0.0041      Z:    -0.0000     Total:     0.1981

*** tstop() called on n035 at Fri Nov  5 12:32:31 2021
Module time:
	user time   =     635.74 seconds =      10.60 minutes
	system time =      12.14 seconds =       0.20 minutes
	total time  =        163 seconds =       2.72 minutes
Total time:
	user time   =     635.74 seconds =      10.60 minutes
	system time =      12.14 seconds =       0.20 minutes
	total time  =        163 seconds =       2.72 minutes
Grab this energy -157.81305456193542
    Psi4 stopped on: Friday, 05 November 2021 12:32PM
    Psi4 wall time for execution: 0:02:42.89

*** Psi4 exiting successfully. Buy a developer a beer!
