                               Psi4 1.4a2.dev629

  ==> Input File <==

--------------------------------------------------------------------------
import os
memory 14 GB

molecule {
 C   -0.3233229067   -0.0103508660   -0.0000000000
 C    0.0607644915   -1.3990304433   -2.4320182216
 C    0.0617779433    2.7937851145    0.0000000000
 C    0.0607644915   -1.3990304433    2.4320182216
 H    2.0866610556   -1.6371200408   -2.8563676304
 H   -0.7675832980   -0.3792052949   -4.0280056269
 H   -0.7644046612   -3.2893014105   -2.3613218893
 H    2.0873438494    3.2795510520    0.0000000000
 H   -0.7646409693    3.6731523824    1.6759142955
 H   -0.7646409693    3.6731523824   -1.6759142955
 H    2.0866610556   -1.6371200408    2.8563676304
 H   -0.7644046612   -3.2893014105    2.3613218893
 H   -0.7675832980   -0.3792052949    4.0280056269
units bohr
0 2
}

basis {

assign 6-31g_2dfp_

[ 6-31g_2dfp_ ]

spherical

!----------------------------------------------------------------------
! Basis Set Exchange
! Version v0.8.13
! https://www.basissetexchange.org
!----------------------------------------------------------------------
!   Basis set: 6-31G(2df,p)
! Description: 6-31G(2df,p)
!        Role: orbital
!     Version: 0  (Data from the original Basis Set Exchange)
!----------------------------------------------------------------------

****
H     0
S    3   1.00
     18.7311370              0.03349460
      2.8253937              0.23472695
      0.6401217              0.81375733
S    1   1.00
      0.1612778              1.00000000
P    1   1.00
      1.5000000              1.0000000
P    1   1.00
      0.3750000              1.0000000
****
B     0
S    6   1.00
   2068.8823000              0.0018663
    310.6495700              0.0142515
     70.6830330              0.0695516
     19.8610800              0.2325729
      6.2993048              0.4670787
      2.1270270              0.3634314
SP   3   1.00
      4.7279710             -0.1303938              0.0745976
      1.1903377             -0.1307889              0.3078467
      0.3594117              1.1309444              0.7434568
SP   1   1.00
      0.1267512              1.0000000              1.0000000
D    1   1.00
      0.8020000              1.0000000
D    1   1.00
      0.2005000              1.0000000
F    1   1.00
      0.5000000              1.0000000
****
C     0
S    6   1.00
   3047.5249000              0.0018347
    457.3695100              0.0140373
    103.9486900              0.0688426
     29.2101550              0.2321844
      9.2866630              0.4679413
      3.1639270              0.3623120
SP   3   1.00
      7.8682724             -0.1193324              0.0689991
      1.8812885             -0.1608542              0.3164240
      0.5442493              1.1434564              0.7443083
SP   1   1.00
      0.1687144              1.0000000              1.0000000
D    1   1.00
      1.2520000              1.0000000
D    1   1.00
      0.3130000              1.0000000
F    1   1.00
      0.8000000              1.0000000
****
N     0
S    6   1.00
   4173.5110000              0.0018348
    627.4579000              0.0139950
    142.9021000              0.0685870
     40.2343300              0.2322410
     12.8202100              0.4690700
      4.3904370              0.3604550
SP   3   1.00
     11.6263580             -0.1149610              0.0675800
      2.7162800             -0.1691180              0.3239070
      0.7722180              1.1458520              0.7408950
SP   1   1.00
      0.2120313              1.0000000              1.0000000
D    1   1.00
      1.8260000              1.0000000
D    1   1.00
      0.4565000              1.0000000
F    1   1.00
      1.0000000              1.0000000
****
O     0
S    6   1.00
   5484.6717000              0.0018311
    825.2349500              0.0139501
    188.0469600              0.0684451
     52.9645000              0.2327143
     16.8975700              0.4701930
      5.7996353              0.3585209
SP   3   1.00
     15.5396160             -0.1107775              0.0708743
      3.5999336             -0.1480263              0.3397528
      1.0137618              1.1307670              0.7271586
SP   1   1.00
      0.2700058              1.0000000              1.0000000
D    1   1.00
      2.5840000              1.0000000
D    1   1.00
      0.6460000              1.0000000
F    1   1.00
      1.4000000              1.0000000
****
F     0
S    6   1.00
   7001.7130900              0.0018196169
   1051.3660900              0.0139160796
    239.2856900              0.0684053245
     67.3974453              0.233185760
     21.5199573              0.471267439
      7.40310130             0.356618546
SP   3   1.00
     20.8479528             -0.108506975            0.0716287243
      4.80830834            -0.146451658            0.3459121030
      1.34406986             1.128688580            0.7224699570
SP   1   1.00
      0.358151393            1.0000000              1.0000000
D    1   1.00
      3.5000000              1.0000000
D    1   1.00
      0.8750000              1.0000000
F    1   1.00
      1.8500000              1.0000000
****
Al     0
S    6   1.00
  13983.1000000              0.00194267
   2098.7500000              0.0148599
    477.7050000              0.0728494
    134.3600000              0.2468300
     42.8709000              0.4872580
     14.5189000              0.3234960
SP   6   1.00
    239.6680000             -0.00292619             0.00460285
     57.4419000             -0.0374080              0.0331990
     18.2859000             -0.1144870              0.1362820
      6.5991400              0.1156350              0.3304760
      2.4904900              0.6125950              0.4491460
      0.9445400              0.3937990              0.2657040
SP   3   1.00
      1.2779000             -0.2276060             -0.0175130
      0.3975900              0.00144583             0.2445330
      0.1600950              1.0927900              0.8049340
SP   1   1.00
      0.0556577              1.0000000              1.0000000
D    1   1.00
      0.6500000              1.0000000
D    1   1.00
      0.1625000              1.0000000
F    1   1.00
      0.2500000              1.0000000
****
Si     0
S    6   1.00
  16115.9000000              0.00195948
   2425.5800000              0.01492880
    553.8670000              0.07284780
    156.3400000              0.24613000
     50.0683000              0.48591400
     17.0178000              0.32500200
SP   6   1.00
    292.7180000             -0.00278094             0.00443826
     69.8731000             -0.03571460             0.03266790
     22.3363000             -0.11498500             0.13472100
      8.1503900              0.09356340             0.32867800
      3.1345800              0.60301700             0.44964000
      1.2254300              0.41895900             0.26137200
SP   3   1.00
      1.7273800             -0.24463000            -0.01779510
      0.5729220              0.00431572             0.25353900
      0.2221920              1.09818000             0.80066900
SP   1   1.00
      0.0778369              1.00000000             1.00000000
D    1   1.00
      0.9000000              1.0000000
D    1   1.00
      0.2250000              1.0000000
F    1   1.00
      0.3200000              1.0000000
****
P     0
S    6   1.00
  19413.3000000              0.0018516
   2909.4200000              0.0142062
    661.3640000              0.0699995
    185.7590000              0.2400790
     59.1943000              0.4847620
     20.0310000              0.3352000
SP   6   1.00
    339.4780000             -0.00278217             0.00456462
     81.0101000             -0.0360499              0.03369360
     25.8780000             -0.1166310              0.13975500
      9.4522100              0.0968328              0.33936200
      3.6656600              0.6144180              0.45092100
      1.4674600              0.4037980              0.23858600
SP   3   1.00
      2.1562300             -0.2529230             -0.01776530
      0.7489970              0.0328517              0.27405800
      0.2831450              1.0812500              0.78542100
SP   1   1.00
      0.0998317              1.0000000              1.00000000
D    1   1.00
      1.1000000              1.0000000
D    1   1.00
      0.2750000              1.0000000
F    1   1.00
      0.4500000              1.0000000
****
S     0
S    6   1.00
  21917.1000000              0.0018690
   3301.4900000              0.0142300
    754.1460000              0.0696960
    212.7110000              0.2384870
     67.9896000              0.4833070
     23.0515000              0.3380740
SP   6   1.00
    423.7350000             -0.0023767              0.0040610
    100.7100000             -0.0316930              0.0306810
     32.1599000             -0.1133170              0.1304520
     11.8079000              0.0560900              0.3272050
      4.6311000              0.5922550              0.4528510
      1.8702500              0.4550060              0.2560420
SP   3   1.00
      2.6158400             -0.2503740             -0.0145110
      0.9221670              0.0669570              0.3102630
      0.3412870              1.0545100              0.7544830
SP   1   1.00
      0.1171670              1.0000000              1.0000000
D    1   1.00
      1.3000000              1.0000000
D    1   1.00
      0.3250000              1.0000000
F    1   1.00
      0.5500000              1.0000000
****
Cl     0
S    6   1.00
  25180.1000000              0.0018330
   3780.3500000              0.0140340
    860.4740000              0.0690970
    242.1450000              0.2374520
     77.3349000              0.4830340
     26.2470000              0.3398560
SP   6   1.00
    491.7650000             -0.0022974              0.0039894
    116.9840000             -0.0307140              0.0303180
     37.4153000             -0.1125280              0.1298800
     13.7834000              0.0450160              0.3279510
      5.4521500              0.5893530              0.4535270
      2.2258800              0.4652060              0.2521540
SP   3   1.00
      3.1864900             -0.2518300             -0.0142990
      1.1442700              0.0615890              0.3235720
      0.4203770              1.0601800              0.7435070
SP   1   1.00
      0.1426570              1.0000000              1.0000000
D    1   1.00
      1.5000000              1.0000000
D    1   1.00
      0.3750000              1.0000000
F    1   1.00
      0.7000000              1.0000000
****
}

set {
reference uhf
freeze_core true
e_convergence 10
d_convergence 10
dft_spherical_points 1202
dft_radial_points 99
}

e = energy('b3lyp')

print_out('Grab this energy {0}'.format(e))
--------------------------------------------------------------------------

    Molecular point group: cs

    Geometry (in Bohr), charge = 0, multiplicity = 2:

       Center              X                  Y                   Z               Mass
    ------------   -----------------  -----------------  -----------------  -----------------
         C           -0.323327530127    -0.007533240788     0.000000000000    12.000000000000
         C            0.060759868073    -1.396212818088    -2.432018221600    12.000000000000
         C            0.061773319873     2.796602739712     0.000000000000    12.000000000000
         C            0.060759868073    -1.396212818088     2.432018221600    12.000000000000
         H            2.086656432173    -1.634302415588    -2.856367630400     1.007825032230
         H           -0.767587921427    -0.376387669688    -4.028005626900     1.007825032230
         H           -0.764409284627    -3.286483785288    -2.361321889300     1.007825032230
         H            2.087339225973     3.282368677212     0.000000000000     1.007825032230
         H           -0.764645592727     3.675970007612     1.675914295500     1.007825032230
         H           -0.764645592727     3.675970007612    -1.675914295500     1.007825032230
         H            2.086656432173    -1.634302415588     2.856367630400     1.007825032230
         H           -0.764409284627    -3.286483785288     2.361321889300     1.007825032230
         H           -0.767587921427    -0.376387669688     4.028005626900     1.007825032230

  Charge       = 0
  Multiplicity = 2
  Basis Set: ANONYMOUSBBE3CC43
    Blend: 6-31G_2DFP_
  Basis Set: (ANONYMOUSBBE3CC43 AUX)
    Blend: DEF2-UNIVERSAL-JKFIT

    Orbital Energies [Eh]
    ---------------------

    Alpha Occupied:

       1Ap   -10.180342     1App  -10.167169     2Ap   -10.167140
       3Ap   -10.166735     4Ap    -0.797768     2App   -0.686594
       5Ap    -0.685779     6Ap    -0.530776     7Ap    -0.441127
       3App   -0.434722     8Ap    -0.434619     4App   -0.382862
       9Ap    -0.382339     5App   -0.363608     6App   -0.338784
      10Ap    -0.337206    11Ap    -0.168961

    Alpha Virtual:

      12Ap     0.076071     7App    0.133903    13Ap     0.134409
      14Ap     0.142587     8App    0.142664    15Ap     0.154881
       9App    0.178564    16Ap     0.178996    17Ap     0.203547
      10App    0.214807    18Ap     0.275865    11App    0.276102
      19Ap     0.399192    12App    0.399223    20Ap     0.403403
      13App    0.423968    21Ap     0.424236    22Ap     0.456598
      14App    0.495037    23Ap     0.495738    15App    0.512169
      24Ap     0.513981    16App    0.578741    25Ap     0.578835
      17App    0.591639    26Ap     0.591684    27Ap     0.602568
      28Ap     0.624739    18App    0.631772    29Ap     0.635903
      19App    0.636617    20App    0.663131    30Ap     0.663698
      21App    0.683568    31Ap     0.684144    32Ap     0.734993
      22App    0.824688    33Ap     0.826114    23App    0.853917
      24App    0.914678    34Ap     0.915355    25App    0.944068
      35Ap     0.944536    36Ap     0.960957    26App    0.961814
      37Ap     1.003473    27App    1.127218    38Ap     1.128950
      39Ap     1.142285    28App    1.163177    40Ap     1.163352
      41Ap     1.223341    29App    1.273509    42Ap     1.275479
      43Ap     1.279379    44Ap     1.324197    30App    1.324526
      45Ap     1.355981    31App    1.365516    46Ap     1.366507
      32App    1.392359    33App    1.403396    47Ap     1.404842
      34App    1.416321    48Ap     1.417942    35App    1.427952
      36App    1.491410    49Ap     1.499067    37App    1.542529
      50Ap     1.543174    38App    1.572673    51Ap     1.576349
      52Ap     1.669818    39App    1.738555    53Ap     1.740255
      54Ap     1.768350    40App    1.831144    55Ap     1.831647
      41App    1.971739    42App    2.017069    56Ap     2.018287
      57Ap     2.021051    43App    2.050661    58Ap     2.054683
      44App    2.738461    59Ap     2.738515    60Ap     2.790921
      45App    2.811439    61Ap     2.889276    46App    2.890606
      62Ap     2.894938    63Ap     2.929273    47App    2.929716
      48App    2.959007    49App    2.963349    64Ap     2.965434
      65Ap     3.034004    50App    3.070759    66Ap     3.071786
      51App    3.084392    52App    3.167983    67Ap     3.169595
      68Ap     3.180593    69Ap     3.284302    53App    3.286310
      54App    3.325834    70Ap     3.328497    71Ap     3.375671
      72Ap     3.490051    55App    3.490198    56App    3.513953
      73Ap     3.525296    57App    3.566844    74Ap     3.569852
      58App    3.575425    59App    3.665981    75Ap     3.666783
      76Ap     3.679664    77Ap     3.693700    60App    3.694538
      78Ap     3.775020    61App    3.778396    79Ap     3.789401
      62App    3.911248    80Ap     3.913200    81Ap     4.034442
      63App    4.110322    82Ap     4.112430    64App    4.147402
      83Ap     4.148786    84Ap     4.173241    65App    4.201664
      85Ap     4.202592    86Ap     4.204433    66App    4.211067
      87Ap     4.315397    67App    4.316517    68App    4.359030
      69App    4.424346    88Ap     4.424504    70App    4.443461
      71App    4.516207    89Ap     4.517529    72App    4.577058
      90Ap     4.579166    91Ap     4.617806    92Ap     4.709440
      73App    4.773825    93Ap     4.775390    74App    4.836904
      94Ap     4.962840    75App    5.001723    95Ap     5.004231
      96Ap     5.228033    97Ap     5.246664    76App    5.247016
      77App    5.355353    98Ap     5.355642    78App    5.479299

    Beta Occupied:

       1App  -10.167923     1Ap   -10.167906     2Ap   -10.167496
       3Ap   -10.166519     4Ap    -0.781093     2App   -0.684389
       5Ap    -0.683589     6Ap    -0.511748     3App   -0.431105
       7Ap    -0.430983     8Ap    -0.421821     4App   -0.376917
       9Ap    -0.376455     5App   -0.362590     6App   -0.333922
      10Ap    -0.332315

    Beta Virtual:

      11Ap    -0.025743    12Ap     0.077080     7App    0.134798
      13Ap     0.135292    14Ap     0.144463     8App    0.144531
      15Ap     0.163340     9App    0.182238    16Ap     0.182665
      10App    0.215036    17Ap     0.218929    18Ap     0.282259
      11App    0.282404    19Ap     0.400393    12App    0.400412
      20Ap     0.419796    13App    0.426773    21Ap     0.427052
      22Ap     0.468508    14App    0.497296    23Ap     0.498001
      15App    0.513904    24Ap     0.556324    25Ap     0.584337
      16App    0.584346    17App    0.597812    26Ap     0.597861
      27Ap     0.609993    28Ap     0.628122    18App    0.631929
      29Ap     0.639154    19App    0.639934    20App    0.666674
      30Ap     0.667279    21App    0.686151    31Ap     0.686833
      32Ap     0.757516    22App    0.829842    33Ap     0.831297
      23App    0.855271    24App    0.922611    34Ap     0.923357
      25App    0.945923    35Ap     0.953467    36Ap     0.966215
      26App    0.967159    37Ap     1.008711    27App    1.131229
      38Ap     1.133038    39Ap     1.155615    28App    1.168210
      40Ap     1.168470    41Ap     1.232310    29App    1.279154
      42Ap     1.281040    43Ap     1.285121    44Ap     1.329183
      30App    1.329521    45Ap     1.365394    31App    1.370605
      46Ap     1.371903    32App    1.393428    33App    1.406940
      47Ap     1.408225    34App    1.421372    48Ap     1.422985
      35App    1.428223    36App    1.492463    49Ap     1.509511
      37App    1.546849    50Ap     1.547675    38App    1.580705
      51Ap     1.584051    52Ap     1.674665    39App    1.744324
      53Ap     1.746014    54Ap     1.779125    40App    1.834996
      55Ap     1.835505    41App    1.972601    42App    2.023423
      56Ap     2.027490    57Ap     2.039677    43App    2.057447
      58Ap     2.061317    44App    2.746781    59Ap     2.746867
      45App    2.811851    60Ap     2.816057    61Ap     2.902086
      46App    2.903164    62Ap     2.924647    63Ap     2.931615
      47App    2.932349    48App    2.960070    49App    2.967925
      64Ap     2.969943    65Ap     3.041939    50App    3.080384
      66Ap     3.081881    51App    3.086316    52App    3.183934
      67Ap     3.185062    68Ap     3.188346    69Ap     3.289214
      53App    3.291002    54App    3.329629    70Ap     3.332315
      71Ap     3.383482    72Ap     3.492764    55App    3.492942
      56App    3.512326    73Ap     3.528351    57App    3.574684
      58App    3.580830    74Ap     3.583145    59App    3.670774
      75Ap     3.671475    76Ap     3.692960    77Ap     3.725507
      60App    3.726003    78Ap     3.779698    61App    3.782931
      79Ap     3.817764    62App    3.921064    80Ap     3.923027
      81Ap     4.045332    63App    4.117097    82Ap     4.119282
      64App    4.154644    83Ap     4.155968    84Ap     4.187298
      65App    4.207525    85Ap     4.210070    86Ap     4.210899
      66App    4.215578    87Ap     4.322755    67App    4.324035
      68App    4.362395    69App    4.432567    88Ap     4.432700
      70App    4.446362    71App    4.524137    89Ap     4.525174
      72App    4.587583    90Ap     4.589821    91Ap     4.625016
      92Ap     4.719790    73App    4.780777    93Ap     4.782344
      74App    4.839822    94Ap     4.967634    75App    5.005777
      95Ap     5.008255    96Ap     5.233747    97Ap     5.248451
      76App    5.248799    77App    5.361842    98Ap     5.362114
      78App    5.481620

    Final Occupation by Irrep:
             Ap   App
    DOCC [    10,    6 ]
    SOCC [     1,    0 ]

  @DF-UKS Final Energy:  -157.81305896659541

   => Energetics <=

    Nuclear Repulsion Energy =            125.3949630532763280
    One-Electron Energy =                -458.7495745079477274
    Two-Electron Energy =                 195.8486985411201431
    DFT Exchange-Correlation Energy =     -20.3071460530441499
    Empirical Dispersion Energy =           0.0000000000000000
    VV10 Nonlocal Energy =                  0.0000000000000000
    Total Energy =                       -157.8130589665954062

  UHF NO Occupations:
  HONO-2 :    9 Ap 1.9996009
  HONO-1 :   10 Ap 1.9989804
  HONO-0 :   11 Ap 1.0000000
  LUNO+0 :   12 Ap 0.0010196
  LUNO+1 :   13 Ap 0.0003991
  LUNO+2 :   14 Ap 0.0001990
  LUNO+3 :    7App 0.0001962

Computation Completed

Properties will be evaluated at   0.000000,   0.000000,   0.000000 [a0]

Properties computed using the SCF density matrix

  Nuclear Dipole Moment: [e a0]
     X:     0.8272      Y:     0.0198      Z:     0.0000

  Electronic Dipole Moment: [e a0]
     X:    -0.7492      Y:    -0.0218      Z:     0.0000

  Dipole Moment: [e a0]
     X:     0.0779      Y:    -0.0020      Z:     0.0000     Total:     0.0779

  Dipole Moment: [D]
     X:     0.1980      Y:    -0.0050      Z:     0.0000     Total:     0.1981

*** tstop() called on n023 at Fri Nov  5 13:52:30 2021
Module time:
	user time   =     631.75 seconds =      10.53 minutes
	system time =      11.92 seconds =       0.20 minutes
	total time  =        162 seconds =       2.70 minutes
Total time:
	user time   =     631.75 seconds =      10.53 minutes
	system time =      11.92 seconds =       0.20 minutes
	total time  =        162 seconds =       2.70 minutes
Grab this energy -157.8130589665954
    Psi4 stopped on: Friday, 05 November 2021 01:52PM
    Psi4 wall time for execution: 0:02:41.88

*** Psi4 exiting successfully. Buy a developer a beer!
