                               Psi4 1.4a2.dev629

  ==> Input File <==

--------------------------------------------------------------------------
import os
memory 14 GB

molecule {
 C   -0.3223164793   -0.0002272201   -0.0000000000
 C    0.0621155931   -1.4005963665   -2.4250566919
 C    0.0622472343    2.8038750306   -0.0000000000
 C    0.0621155931   -1.4005963665    2.4250566919
 H    2.0835844021   -1.6439192115   -2.8474496513
 H   -0.7643311659   -0.3864707908   -4.0271560420
 H   -0.7646025865   -3.2941971410   -2.3484062877
 H    2.0835657095    3.2870044365    0.0000000000
 H   -0.7648184134    3.6798452295    1.6790039099
 H   -0.7648184134    3.6798452295   -1.6790039099
 H    2.0835844021   -1.6439192115    2.8474496513
 H   -0.7646025865   -3.2941971410    2.3484062877
 H   -0.7643311659   -0.3864707908    4.0271560420
units bohr
0 2
}

basis {

assign 6-31g_2dfp_

[ 6-31g_2dfp_ ]

spherical

!----------------------------------------------------------------------
! Basis Set Exchange
! Version v0.8.13
! https://www.basissetexchange.org
!----------------------------------------------------------------------
!   Basis set: 6-31G(2df,p)
! Description: 6-31G(2df,p)
!        Role: orbital
!     Version: 0  (Data from the original Basis Set Exchange)
!----------------------------------------------------------------------

****
H     0
S    3   1.00
     18.7311370              0.03349460
      2.8253937              0.23472695
      0.6401217              0.81375733
S    1   1.00
      0.1612778              1.00000000
P    1   1.00
      1.5000000              1.0000000
P    1   1.00
      0.3750000              1.0000000
****
B     0
S    6   1.00
   2068.8823000              0.0018663
    310.6495700              0.0142515
     70.6830330              0.0695516
     19.8610800              0.2325729
      6.2993048              0.4670787
      2.1270270              0.3634314
SP   3   1.00
      4.7279710             -0.1303938              0.0745976
      1.1903377             -0.1307889              0.3078467
      0.3594117              1.1309444              0.7434568
SP   1   1.00
      0.1267512              1.0000000              1.0000000
D    1   1.00
      0.8020000              1.0000000
D    1   1.00
      0.2005000              1.0000000
F    1   1.00
      0.5000000              1.0000000
****
C     0
S    6   1.00
   3047.5249000              0.0018347
    457.3695100              0.0140373
    103.9486900              0.0688426
     29.2101550              0.2321844
      9.2866630              0.4679413
      3.1639270              0.3623120
SP   3   1.00
      7.8682724             -0.1193324              0.0689991
      1.8812885             -0.1608542              0.3164240
      0.5442493              1.1434564              0.7443083
SP   1   1.00
      0.1687144              1.0000000              1.0000000
D    1   1.00
      1.2520000              1.0000000
D    1   1.00
      0.3130000              1.0000000
F    1   1.00
      0.8000000              1.0000000
****
N     0
S    6   1.00
   4173.5110000              0.0018348
    627.4579000              0.0139950
    142.9021000              0.0685870
     40.2343300              0.2322410
     12.8202100              0.4690700
      4.3904370              0.3604550
SP   3   1.00
     11.6263580             -0.1149610              0.0675800
      2.7162800             -0.1691180              0.3239070
      0.7722180              1.1458520              0.7408950
SP   1   1.00
      0.2120313              1.0000000              1.0000000
D    1   1.00
      1.8260000              1.0000000
D    1   1.00
      0.4565000              1.0000000
F    1   1.00
      1.0000000              1.0000000
****
O     0
S    6   1.00
   5484.6717000              0.0018311
    825.2349500              0.0139501
    188.0469600              0.0684451
     52.9645000              0.2327143
     16.8975700              0.4701930
      5.7996353              0.3585209
SP   3   1.00
     15.5396160             -0.1107775              0.0708743
      3.5999336             -0.1480263              0.3397528
      1.0137618              1.1307670              0.7271586
SP   1   1.00
      0.2700058              1.0000000              1.0000000
D    1   1.00
      2.5840000              1.0000000
D    1   1.00
      0.6460000              1.0000000
F    1   1.00
      1.4000000              1.0000000
****
F     0
S    6   1.00
   7001.7130900              0.0018196169
   1051.3660900              0.0139160796
    239.2856900              0.0684053245
     67.3974453              0.233185760
     21.5199573              0.471267439
      7.40310130             0.356618546
SP   3   1.00
     20.8479528             -0.108506975            0.0716287243
      4.80830834            -0.146451658            0.3459121030
      1.34406986             1.128688580            0.7224699570
SP   1   1.00
      0.358151393            1.0000000              1.0000000
D    1   1.00
      3.5000000              1.0000000
D    1   1.00
      0.8750000              1.0000000
F    1   1.00
      1.8500000              1.0000000
****
Al     0
S    6   1.00
  13983.1000000              0.00194267
   2098.7500000              0.0148599
    477.7050000              0.0728494
    134.3600000              0.2468300
     42.8709000              0.4872580
     14.5189000              0.3234960
SP   6   1.00
    239.6680000             -0.00292619             0.00460285
     57.4419000             -0.0374080              0.0331990
     18.2859000             -0.1144870              0.1362820
      6.5991400              0.1156350              0.3304760
      2.4904900              0.6125950              0.4491460
      0.9445400              0.3937990              0.2657040
SP   3   1.00
      1.2779000             -0.2276060             -0.0175130
      0.3975900              0.00144583             0.2445330
      0.1600950              1.0927900              0.8049340
SP   1   1.00
      0.0556577              1.0000000              1.0000000
D    1   1.00
      0.6500000              1.0000000
D    1   1.00
      0.1625000              1.0000000
F    1   1.00
      0.2500000              1.0000000
****
Si     0
S    6   1.00
  16115.9000000              0.00195948
   2425.5800000              0.01492880
    553.8670000              0.07284780
    156.3400000              0.24613000
     50.0683000              0.48591400
     17.0178000              0.32500200
SP   6   1.00
    292.7180000             -0.00278094             0.00443826
     69.8731000             -0.03571460             0.03266790
     22.3363000             -0.11498500             0.13472100
      8.1503900              0.09356340             0.32867800
      3.1345800              0.60301700             0.44964000
      1.2254300              0.41895900             0.26137200
SP   3   1.00
      1.7273800             -0.24463000            -0.01779510
      0.5729220              0.00431572             0.25353900
      0.2221920              1.09818000             0.80066900
SP   1   1.00
      0.0778369              1.00000000             1.00000000
D    1   1.00
      0.9000000              1.0000000
D    1   1.00
      0.2250000              1.0000000
F    1   1.00
      0.3200000              1.0000000
****
P     0
S    6   1.00
  19413.3000000              0.0018516
   2909.4200000              0.0142062
    661.3640000              0.0699995
    185.7590000              0.2400790
     59.1943000              0.4847620
     20.0310000              0.3352000
SP   6   1.00
    339.4780000             -0.00278217             0.00456462
     81.0101000             -0.0360499              0.03369360
     25.8780000             -0.1166310              0.13975500
      9.4522100              0.0968328              0.33936200
      3.6656600              0.6144180              0.45092100
      1.4674600              0.4037980              0.23858600
SP   3   1.00
      2.1562300             -0.2529230             -0.01776530
      0.7489970              0.0328517              0.27405800
      0.2831450              1.0812500              0.78542100
SP   1   1.00
      0.0998317              1.0000000              1.00000000
D    1   1.00
      1.1000000              1.0000000
D    1   1.00
      0.2750000              1.0000000
F    1   1.00
      0.4500000              1.0000000
****
S     0
S    6   1.00
  21917.1000000              0.0018690
   3301.4900000              0.0142300
    754.1460000              0.0696960
    212.7110000              0.2384870
     67.9896000              0.4833070
     23.0515000              0.3380740
SP   6   1.00
    423.7350000             -0.0023767              0.0040610
    100.7100000             -0.0316930              0.0306810
     32.1599000             -0.1133170              0.1304520
     11.8079000              0.0560900              0.3272050
      4.6311000              0.5922550              0.4528510
      1.8702500              0.4550060              0.2560420
SP   3   1.00
      2.6158400             -0.2503740             -0.0145110
      0.9221670              0.0669570              0.3102630
      0.3412870              1.0545100              0.7544830
SP   1   1.00
      0.1171670              1.0000000              1.0000000
D    1   1.00
      1.3000000              1.0000000
D    1   1.00
      0.3250000              1.0000000
F    1   1.00
      0.5500000              1.0000000
****
Cl     0
S    6   1.00
  25180.1000000              0.0018330
   3780.3500000              0.0140340
    860.4740000              0.0690970
    242.1450000              0.2374520
     77.3349000              0.4830340
     26.2470000              0.3398560
SP   6   1.00
    491.7650000             -0.0022974              0.0039894
    116.9840000             -0.0307140              0.0303180
     37.4153000             -0.1125280              0.1298800
     13.7834000              0.0450160              0.3279510
      5.4521500              0.5893530              0.4535270
      2.2258800              0.4652060              0.2521540
SP   3   1.00
      3.1864900             -0.2518300             -0.0142990
      1.1442700              0.0615890              0.3235720
      0.4203770              1.0601800              0.7435070
SP   1   1.00
      0.1426570              1.0000000              1.0000000
D    1   1.00
      1.5000000              1.0000000
D    1   1.00
      0.3750000              1.0000000
F    1   1.00
      0.7000000              1.0000000
****
}

set {
reference uhf
freeze_core true
e_convergence 10
d_convergence 10
dft_spherical_points 1202
dft_radial_points 99
}

e = energy('b3lyp')

print_out('Grab this energy {0}'.format(e))
--------------------------------------------------------------------------

    Molecular point group: cs

    Geometry (in Bohr), charge = 0, multiplicity = 2:

       Center              X                  Y                   Z               Mass
    ------------   -----------------  -----------------  -----------------  -----------------
         C           -0.323125800521    -0.000699656348     0.000000000000    12.000000000000
         C            0.061306271879    -1.401068802748    -2.425056691900    12.000000000000
         C            0.061437913079     2.803402594352     0.000000000000    12.000000000000
         C            0.061306271879    -1.401068802748     2.425056691900    12.000000000000
         H            2.082775080879    -1.644391647748    -2.847449651300     1.007825032230
         H           -0.765140487121    -0.386943227048    -4.027156042000     1.007825032230
         H           -0.765411907721    -3.294669577248    -2.348406287700     1.007825032230
         H            2.082756388279     3.286532000252     0.000000000000     1.007825032230
         H           -0.765627734621     3.679372793252     1.679003909900     1.007825032230
         H           -0.765627734621     3.679372793252    -1.679003909900     1.007825032230
         H            2.082775080879    -1.644391647748     2.847449651300     1.007825032230
         H           -0.765411907721    -3.294669577248     2.348406287700     1.007825032230
         H           -0.765140487121    -0.386943227048     4.027156042000     1.007825032230

  Charge       = 0
  Multiplicity = 2
  Basis Set: ANONYMOUS541BBF3A
    Blend: 6-31G_2DFP_
  Basis Set: (ANONYMOUS541BBF3A AUX)
    Blend: DEF2-UNIVERSAL-JKFIT

    Orbital Energies [Eh]
    ---------------------

    Alpha Occupied:

       1Ap   -10.180284     1App  -10.167048     2Ap   -10.167026
       3Ap   -10.166961     4Ap    -0.797804     5Ap    -0.686217
       2App   -0.686170     6Ap    -0.530787     7Ap    -0.441219
       3App   -0.434710     8Ap    -0.434546     9Ap    -0.382825
       4App   -0.382644     5App   -0.363434     6App   -0.338152
      10Ap    -0.337738    11Ap    -0.168924

    Alpha Virtual:

      12Ap     0.075987     7App    0.134134    13Ap     0.134159
      14Ap     0.142503     8App    0.142624    15Ap     0.155045
       9App    0.178874    16Ap     0.179039    17Ap     0.203587
      10App    0.214529    18Ap     0.275787    11App    0.276235
      19Ap     0.399334    12App    0.399360    20Ap     0.403429
      21Ap     0.423864    13App    0.423953    22Ap     0.456670
      23Ap     0.495188    14App    0.495233    15App    0.512279
      24Ap     0.514134    25Ap     0.578931    16App    0.579026
      17App    0.591839    26Ap     0.591971    27Ap     0.603325
      28Ap     0.624260    18App    0.631386    29Ap     0.635712
      19App    0.636041    30Ap     0.663848    20App    0.663967
      21App    0.683585    31Ap     0.683622    32Ap     0.734933
      22App    0.825383    33Ap     0.825496    23App    0.854195
      34Ap     0.915236    24App    0.915261    25App    0.943840
      35Ap     0.944469    26App    0.961352    36Ap     0.961435
      37Ap     1.003638    38Ap     1.127774    27App    1.127943
      39Ap     1.142947    40Ap     1.162712    28App    1.163292
      41Ap     1.222911    42Ap     1.274414    29App    1.275037
      43Ap     1.279533    44Ap     1.324503    30App    1.324629
      45Ap     1.355452    46Ap     1.365974    31App    1.366266
      32App    1.392497    33App    1.404917    47Ap     1.405214
      48Ap     1.416018    34App    1.416271    35App    1.428135
      36App    1.491510    49Ap     1.500033    50Ap     1.543128
      37App    1.543277    51Ap     1.573876    38App    1.574269
      52Ap     1.668556    39App    1.740134    53Ap     1.740409
      54Ap     1.770168    40App    1.829495    55Ap     1.830507
      41App    1.970710    56Ap     2.018161    57Ap     2.018638
      42App    2.019476    58Ap     2.053339    43App    2.054695
      44App    2.738046    59Ap     2.738289    60Ap     2.791317
      45App    2.810970    61Ap     2.890245    46App    2.890411
      62Ap     2.895280    63Ap     2.929225    47App    2.929353
      48App    2.959132    64Ap     2.964716    49App    2.964889
      65Ap     3.034709    50App    3.071175    66Ap     3.071458
      51App    3.082956    67Ap     3.168697    52App    3.169099
      68Ap     3.180661    69Ap     3.285408    53App    3.285418
      70Ap     3.326335    54App    3.326727    71Ap     3.375435
      72Ap     3.490067    55App    3.490714    56App    3.515229
      73Ap     3.524144    74Ap     3.568721    57App    3.568865
      58App    3.575975    59App    3.666095    75Ap     3.667403
      76Ap     3.679057    60App    3.693805    77Ap     3.694086
      78Ap     3.776192    61App    3.776575    79Ap     3.789908
      80Ap     3.910916    62App    3.912425    81Ap     4.033982
      82Ap     4.111247    63App    4.111562    83Ap     4.148380
      64App    4.149004    84Ap     4.174918    85Ap     4.201709
      65App    4.202618    86Ap     4.202958    66App    4.211991
      87Ap     4.315693    67App    4.317147    68App    4.357769
      88Ap     4.424250    69App    4.426023    70App    4.443312
      89Ap     4.516857    71App    4.518146    90Ap     4.577569
      72App    4.577606    91Ap     4.617633    92Ap     4.710007
      73App    4.774147    93Ap     4.774786    74App    4.835554
      94Ap     4.962527    75App    5.003537    95Ap     5.005014
      96Ap     5.230794    97Ap     5.243616    76App    5.244006
      98Ap     5.357426    77App    5.357566    78App    5.477399

    Beta Occupied:

       1App  -10.167801     1Ap   -10.167786     2Ap   -10.167722
       3Ap   -10.166455     4Ap    -0.781122     5Ap    -0.684013
       2App   -0.683955     6Ap    -0.511710     3App   -0.431058
       7Ap    -0.430891     8Ap    -0.421976     9Ap    -0.376955
       4App   -0.376735     5App   -0.362409     6App   -0.333280
      10Ap    -0.332863

    Beta Virtual:

      11Ap    -0.025615    12Ap     0.076980    13Ap     0.134963
       7App    0.134977    14Ap     0.144412     8App    0.144500
      15Ap     0.163485     9App    0.182586    16Ap     0.182726
      10App    0.214765    17Ap     0.218971    18Ap     0.282139
      11App    0.282569    19Ap     0.400506    12App    0.400524
      20Ap     0.419779    21Ap     0.426675    13App    0.426766
      22Ap     0.468677    23Ap     0.497434    14App    0.497491
      15App    0.514006    24Ap     0.556517    25Ap     0.584449
      16App    0.584553    17App    0.598028    26Ap     0.598159
      27Ap     0.610611    28Ap     0.627776    18App    0.631544
      29Ap     0.639041    19App    0.639360    30Ap     0.667376
      20App    0.667506    21App    0.686246    31Ap     0.686257
      32Ap     0.757459    22App    0.830525    33Ap     0.830647
      23App    0.855540    34Ap     0.923187    24App    0.923216
      25App    0.945684    35Ap     0.953348    26App    0.966696
      36Ap     0.966772    37Ap     1.008918    38Ap     1.131775
      27App    1.131930    39Ap     1.156239    40Ap     1.167794
      28App    1.168408    41Ap     1.231900    42Ap     1.280030
      29App    1.280661    43Ap     1.285343    44Ap     1.329459
      30App    1.329558    45Ap     1.364888    46Ap     1.371177
      31App    1.371413    32App    1.393539    33App    1.408482
      47Ap     1.408678    48Ap     1.421125    34App    1.421337
      35App    1.428401    36App    1.492585    49Ap     1.510468
      50Ap     1.547494    37App    1.547661    51Ap     1.581762
      38App    1.582163    52Ap     1.673353    39App    1.745897
      53Ap     1.746179    54Ap     1.780961    40App    1.833358
      55Ap     1.834351    41App    1.971583    56Ap     2.024942
      42App    2.026025    57Ap     2.039767    58Ap     2.059936
      43App    2.061290    44App    2.746395    59Ap     2.746594
      45App    2.811379    60Ap     2.816490    61Ap     2.902987
      46App    2.903103    62Ap     2.925178    63Ap     2.931723
      47App    2.931815    48App    2.960198    64Ap     2.969282
      49App    2.969482    65Ap     3.042433    50App    3.081099
      66Ap     3.081374    51App    3.084778    67Ap     3.184372
      52App    3.184848    68Ap     3.188400    53App    3.290159
      69Ap     3.290202    70Ap     3.330184    54App    3.330559
      71Ap     3.383279    72Ap     3.492816    55App    3.493506
      56App    3.513595    73Ap     3.527203    57App    3.575836
      74Ap     3.581870    58App    3.582052    59App    3.670907
      75Ap     3.672292    76Ap     3.692376    60App    3.725429
      77Ap     3.725712    78Ap     3.780740    61App    3.781212
      79Ap     3.818427    80Ap     3.920726    62App    3.922133
      81Ap     4.044808    82Ap     4.117958    63App    4.118474
      83Ap     4.155694    64App    4.156125    84Ap     4.188948
      85Ap     4.207626    65App    4.208450    86Ap     4.210893
      66App    4.216344    87Ap     4.323166    67App    4.324674
      68App    4.361176    88Ap     4.432498    69App    4.434169
      70App    4.446282    89Ap     4.524619    71App    4.525893
      90Ap     4.588195    72App    4.588268    91Ap     4.624920
      92Ap     4.720234    73App    4.781168    93Ap     4.781770
      74App    4.838484    94Ap     4.967312    75App    5.007566
      95Ap     5.009012    96Ap     5.236544    97Ap     5.245423
      76App    5.245797    98Ap     5.363912    77App    5.364095
      78App    5.479733

    Final Occupation by Irrep:
             Ap   App
    DOCC [    10,    6 ]
    SOCC [     1,    0 ]

  @DF-UKS Final Energy:  -157.81305782533676

   => Energetics <=

    Nuclear Repulsion Energy =            125.3999937927733868
    One-Electron Energy =                -458.7596386687241079
    Two-Electron Energy =                 195.8538443681046033
    DFT Exchange-Correlation Energy =     -20.3072573174906310
    Empirical Dispersion Energy =           0.0000000000000000
    VV10 Nonlocal Energy =                  0.0000000000000000
    Total Energy =                       -157.8130578253367560

  UHF NO Occupations:
  HONO-2 :    9 Ap 1.9996032
  HONO-1 :   10 Ap 1.9989813
  HONO-0 :   11 Ap 1.0000000
  LUNO+0 :   12 Ap 0.0010187
  LUNO+1 :   13 Ap 0.0003968
  LUNO+2 :   14 Ap 0.0001979
  LUNO+3 :    7App 0.0001972

Computation Completed

Properties will be evaluated at   0.000000,   0.000000,   0.000000 [a0]

Properties computed using the SCF density matrix

  Nuclear Dipole Moment: [e a0]
     X:     0.8215      Y:    -0.0033      Z:     0.0000

  Electronic Dipole Moment: [e a0]
     X:    -0.7404      Y:     0.0034      Z:     0.0000

  Dipole Moment: [e a0]
     X:     0.0811      Y:     0.0001      Z:     0.0000     Total:     0.0811

  Dipole Moment: [D]
     X:     0.2061      Y:     0.0002      Z:     0.0000     Total:     0.2061

*** tstop() called on n040 at Fri Nov  5 12:59:47 2021
Module time:
	user time   =     638.84 seconds =      10.65 minutes
	system time =      12.18 seconds =       0.20 minutes
	total time  =        164 seconds =       2.73 minutes
Total time:
	user time   =     638.84 seconds =      10.65 minutes
	system time =      12.18 seconds =       0.20 minutes
	total time  =        164 seconds =       2.73 minutes
Grab this energy -157.81305782533676
    Psi4 stopped on: Friday, 05 November 2021 12:59PM
    Psi4 wall time for execution: 0:02:43.70

*** Psi4 exiting successfully. Buy a developer a beer!
