                               Psi4 1.4a2.dev629

  ==> Input File <==

--------------------------------------------------------------------------
import os
memory 14 GB

molecule {
 C   -0.3265326405   -0.0000020979    0.0000000000
 C    0.0597197456   -1.4006379987   -2.4259656987
 C    0.0595999654    2.8012802461    0.0000000000
 C    0.0597197456   -1.4006379987    2.4259656987
 H    2.0904225900   -1.6440482355   -2.8473550138
 H   -0.7659056923   -0.3854338134   -4.0270378153
 H   -0.7660692672   -3.2947410640   -2.3473518825
 H    2.0902833913    3.2880039922    0.0000000000
 H   -0.7661466727    3.6802078845    1.6796920120
 H   -0.7661466727    3.6802078845   -1.6796920120
 H    2.0904225900   -1.6440482355    2.8473550138
 H   -0.7660692672   -3.2947410640    2.3473518825
 H   -0.7659056923   -0.3854338134    4.0270378153
units bohr
0 2
}

basis {

assign 6-31g_2dfp_

[ 6-31g_2dfp_ ]

spherical

!----------------------------------------------------------------------
! Basis Set Exchange
! Version v0.8.13
! https://www.basissetexchange.org
!----------------------------------------------------------------------
!   Basis set: 6-31G(2df,p)
! Description: 6-31G(2df,p)
!        Role: orbital
!     Version: 0  (Data from the original Basis Set Exchange)
!----------------------------------------------------------------------

****
H     0
S    3   1.00
     18.7311370              0.03349460
      2.8253937              0.23472695
      0.6401217              0.81375733
S    1   1.00
      0.1612778              1.00000000
P    1   1.00
      1.5000000              1.0000000
P    1   1.00
      0.3750000              1.0000000
****
B     0
S    6   1.00
   2068.8823000              0.0018663
    310.6495700              0.0142515
     70.6830330              0.0695516
     19.8610800              0.2325729
      6.2993048              0.4670787
      2.1270270              0.3634314
SP   3   1.00
      4.7279710             -0.1303938              0.0745976
      1.1903377             -0.1307889              0.3078467
      0.3594117              1.1309444              0.7434568
SP   1   1.00
      0.1267512              1.0000000              1.0000000
D    1   1.00
      0.8020000              1.0000000
D    1   1.00
      0.2005000              1.0000000
F    1   1.00
      0.5000000              1.0000000
****
C     0
S    6   1.00
   3047.5249000              0.0018347
    457.3695100              0.0140373
    103.9486900              0.0688426
     29.2101550              0.2321844
      9.2866630              0.4679413
      3.1639270              0.3623120
SP   3   1.00
      7.8682724             -0.1193324              0.0689991
      1.8812885             -0.1608542              0.3164240
      0.5442493              1.1434564              0.7443083
SP   1   1.00
      0.1687144              1.0000000              1.0000000
D    1   1.00
      1.2520000              1.0000000
D    1   1.00
      0.3130000              1.0000000
F    1   1.00
      0.8000000              1.0000000
****
N     0
S    6   1.00
   4173.5110000              0.0018348
    627.4579000              0.0139950
    142.9021000              0.0685870
     40.2343300              0.2322410
     12.8202100              0.4690700
      4.3904370              0.3604550
SP   3   1.00
     11.6263580             -0.1149610              0.0675800
      2.7162800             -0.1691180              0.3239070
      0.7722180              1.1458520              0.7408950
SP   1   1.00
      0.2120313              1.0000000              1.0000000
D    1   1.00
      1.8260000              1.0000000
D    1   1.00
      0.4565000              1.0000000
F    1   1.00
      1.0000000              1.0000000
****
O     0
S    6   1.00
   5484.6717000              0.0018311
    825.2349500              0.0139501
    188.0469600              0.0684451
     52.9645000              0.2327143
     16.8975700              0.4701930
      5.7996353              0.3585209
SP   3   1.00
     15.5396160             -0.1107775              0.0708743
      3.5999336             -0.1480263              0.3397528
      1.0137618              1.1307670              0.7271586
SP   1   1.00
      0.2700058              1.0000000              1.0000000
D    1   1.00
      2.5840000              1.0000000
D    1   1.00
      0.6460000              1.0000000
F    1   1.00
      1.4000000              1.0000000
****
F     0
S    6   1.00
   7001.7130900              0.0018196169
   1051.3660900              0.0139160796
    239.2856900              0.0684053245
     67.3974453              0.233185760
     21.5199573              0.471267439
      7.40310130             0.356618546
SP   3   1.00
     20.8479528             -0.108506975            0.0716287243
      4.80830834            -0.146451658            0.3459121030
      1.34406986             1.128688580            0.7224699570
SP   1   1.00
      0.358151393            1.0000000              1.0000000
D    1   1.00
      3.5000000              1.0000000
D    1   1.00
      0.8750000              1.0000000
F    1   1.00
      1.8500000              1.0000000
****
Al     0
S    6   1.00
  13983.1000000              0.00194267
   2098.7500000              0.0148599
    477.7050000              0.0728494
    134.3600000              0.2468300
     42.8709000              0.4872580
     14.5189000              0.3234960
SP   6   1.00
    239.6680000             -0.00292619             0.00460285
     57.4419000             -0.0374080              0.0331990
     18.2859000             -0.1144870              0.1362820
      6.5991400              0.1156350              0.3304760
      2.4904900              0.6125950              0.4491460
      0.9445400              0.3937990              0.2657040
SP   3   1.00
      1.2779000             -0.2276060             -0.0175130
      0.3975900              0.00144583             0.2445330
      0.1600950              1.0927900              0.8049340
SP   1   1.00
      0.0556577              1.0000000              1.0000000
D    1   1.00
      0.6500000              1.0000000
D    1   1.00
      0.1625000              1.0000000
F    1   1.00
      0.2500000              1.0000000
****
Si     0
S    6   1.00
  16115.9000000              0.00195948
   2425.5800000              0.01492880
    553.8670000              0.07284780
    156.3400000              0.24613000
     50.0683000              0.48591400
     17.0178000              0.32500200
SP   6   1.00
    292.7180000             -0.00278094             0.00443826
     69.8731000             -0.03571460             0.03266790
     22.3363000             -0.11498500             0.13472100
      8.1503900              0.09356340             0.32867800
      3.1345800              0.60301700             0.44964000
      1.2254300              0.41895900             0.26137200
SP   3   1.00
      1.7273800             -0.24463000            -0.01779510
      0.5729220              0.00431572             0.25353900
      0.2221920              1.09818000             0.80066900
SP   1   1.00
      0.0778369              1.00000000             1.00000000
D    1   1.00
      0.9000000              1.0000000
D    1   1.00
      0.2250000              1.0000000
F    1   1.00
      0.3200000              1.0000000
****
P     0
S    6   1.00
  19413.3000000              0.0018516
   2909.4200000              0.0142062
    661.3640000              0.0699995
    185.7590000              0.2400790
     59.1943000              0.4847620
     20.0310000              0.3352000
SP   6   1.00
    339.4780000             -0.00278217             0.00456462
     81.0101000             -0.0360499              0.03369360
     25.8780000             -0.1166310              0.13975500
      9.4522100              0.0968328              0.33936200
      3.6656600              0.6144180              0.45092100
      1.4674600              0.4037980              0.23858600
SP   3   1.00
      2.1562300             -0.2529230             -0.01776530
      0.7489970              0.0328517              0.27405800
      0.2831450              1.0812500              0.78542100
SP   1   1.00
      0.0998317              1.0000000              1.00000000
D    1   1.00
      1.1000000              1.0000000
D    1   1.00
      0.2750000              1.0000000
F    1   1.00
      0.4500000              1.0000000
****
S     0
S    6   1.00
  21917.1000000              0.0018690
   3301.4900000              0.0142300
    754.1460000              0.0696960
    212.7110000              0.2384870
     67.9896000              0.4833070
     23.0515000              0.3380740
SP   6   1.00
    423.7350000             -0.0023767              0.0040610
    100.7100000             -0.0316930              0.0306810
     32.1599000             -0.1133170              0.1304520
     11.8079000              0.0560900              0.3272050
      4.6311000              0.5922550              0.4528510
      1.8702500              0.4550060              0.2560420
SP   3   1.00
      2.6158400             -0.2503740             -0.0145110
      0.9221670              0.0669570              0.3102630
      0.3412870              1.0545100              0.7544830
SP   1   1.00
      0.1171670              1.0000000              1.0000000
D    1   1.00
      1.3000000              1.0000000
D    1   1.00
      0.3250000              1.0000000
F    1   1.00
      0.5500000              1.0000000
****
Cl     0
S    6   1.00
  25180.1000000              0.0018330
   3780.3500000              0.0140340
    860.4740000              0.0690970
    242.1450000              0.2374520
     77.3349000              0.4830340
     26.2470000              0.3398560
SP   6   1.00
    491.7650000             -0.0022974              0.0039894
    116.9840000             -0.0307140              0.0303180
     37.4153000             -0.1125280              0.1298800
     13.7834000              0.0450160              0.3279510
      5.4521500              0.5893530              0.4535270
      2.2258800              0.4652060              0.2521540
SP   3   1.00
      3.1864900             -0.2518300             -0.0142990
      1.1442700              0.0615890              0.3235720
      0.4203770              1.0601800              0.7435070
SP   1   1.00
      0.1426570              1.0000000              1.0000000
D    1   1.00
      1.5000000              1.0000000
D    1   1.00
      0.3750000              1.0000000
F    1   1.00
      0.7000000              1.0000000
****
}

set {
reference uhf
freeze_core true
e_convergence 10
d_convergence 10
dft_spherical_points 1202
dft_radial_points 99
}

e = energy('b3lyp')

print_out('Grab this energy {0}'.format(e))
--------------------------------------------------------------------------

    Molecular point group: cs

    Geometry (in Bohr), charge = 0, multiplicity = 2:

       Center              X                  Y                   Z               Mass
    ------------   -----------------  -----------------  -----------------  -----------------
         C           -0.325097100674    -0.000002082794     0.000000000000    12.000000000000
         C            0.061155285426    -1.400637983594    -2.425965698700    12.000000000000
         C            0.061035505226     2.801280261206     0.000000000000    12.000000000000
         C            0.061155285426    -1.400637983594     2.425965698700    12.000000000000
         H            2.091858129826    -1.644048220394    -2.847355013800     1.007825032230
         H           -0.764470152474    -0.385433798294    -4.027037815300     1.007825032230
         H           -0.764633727374    -3.294741048894    -2.347351882500     1.007825032230
         H            2.091718931126     3.288004007306     0.000000000000     1.007825032230
         H           -0.764711132874     3.680207899606     1.679692012000     1.007825032230
         H           -0.764711132874     3.680207899606    -1.679692012000     1.007825032230
         H            2.091858129826    -1.644048220394     2.847355013800     1.007825032230
         H           -0.764633727374    -3.294741048894     2.347351882500     1.007825032230
         H           -0.764470152474    -0.385433798294     4.027037815300     1.007825032230

  Charge       = 0
  Multiplicity = 2
  Basis Set: ANONYMOUSE20DDBC9
    Blend: 6-31G_2DFP_
  Basis Set: (ANONYMOUSE20DDBC9 AUX)
    Blend: DEF2-UNIVERSAL-JKFIT

    Orbital Energies [Eh]
    ---------------------

    Alpha Occupied:

       1Ap   -10.180523     2Ap   -10.167589     1App  -10.167589
       3Ap   -10.167543     4Ap    -0.797752     5Ap    -0.685815
       2App   -0.685815     6Ap    -0.530486     7Ap    -0.440788
       3App   -0.434677     8Ap    -0.434677     9Ap    -0.382094
       4App   -0.382092     5App   -0.363577     6App   -0.338043
      10Ap    -0.338043    11Ap    -0.169139

    Alpha Virtual:

      12Ap     0.075757    13Ap     0.133795     7App    0.133796
      14Ap     0.142299     8App    0.142299    15Ap     0.154515
      16Ap     0.178168     9App    0.178168    17Ap     0.203611
      10App    0.214480    11App    0.275823    18Ap     0.275824
      19Ap     0.399264    12App    0.399268    20Ap     0.403093
      13App    0.423816    21Ap     0.423817    22Ap     0.456455
      23Ap     0.495218    14App    0.495219    15App    0.511787
      24Ap     0.513850    25Ap     0.578567    16App    0.578575
      17App    0.590728    26Ap     0.590730    27Ap     0.601615
      28Ap     0.623932    18App    0.631217    19App    0.635813
      29Ap     0.635816    30Ap     0.662910    20App    0.662911
      31Ap     0.683327    21App    0.683328    32Ap     0.734555
      22App    0.824415    33Ap     0.824418    23App    0.853447
      24App    0.914146    34Ap     0.914152    25App    0.943399
      35Ap     0.943803    26App    0.960722    36Ap     0.960738
      37Ap     1.004236    38Ap     1.127911    27App    1.127924
      39Ap     1.140975    40Ap     1.162863    28App    1.162876
      41Ap     1.222460    42Ap     1.273670    29App    1.273673
      43Ap     1.279650    30App    1.323756    44Ap     1.323759
      45Ap     1.354115    31App    1.365897    46Ap     1.365901
      32App    1.391945    47Ap     1.402399    33App    1.402401
      34App    1.415566    48Ap     1.415572    35App    1.426988
      36App    1.491064    49Ap     1.497218    37App    1.542665
      50Ap     1.542668    51Ap     1.574401    38App    1.574405
      52Ap     1.668190    53Ap     1.737769    39App    1.737781
      54Ap     1.766597    40App    1.829244    55Ap     1.829244
      41App    1.970654    56Ap     2.016947    57Ap     2.017538
      42App    2.017542    58Ap     2.051189    43App    2.051190
      44App    2.737181    59Ap     2.737182    60Ap     2.790497
      45App    2.811188    61Ap     2.889213    46App    2.889219
      62Ap     2.894903    63Ap     2.929258    47App    2.929266
      48App    2.958545    64Ap     2.963690    49App    2.963704
      65Ap     3.033073    50App    3.069713    66Ap     3.069727
      51App    3.083493    67Ap     3.169427    52App    3.169434
      68Ap     3.180476    53App    3.285710    69Ap     3.285710
      70Ap     3.328602    54App    3.328608    71Ap     3.376012
      55App    3.490959    72Ap     3.490979    56App    3.513845
      73Ap     3.526117    57App    3.567759    74Ap     3.567778
      58App    3.576367    75Ap     3.665631    59App    3.665640
      76Ap     3.678852    60App    3.693026    77Ap     3.693043
      78Ap     3.775372    61App    3.775398    79Ap     3.787240
      80Ap     3.911383    62App    3.911389    81Ap     4.030942
      82Ap     4.109278    63App    4.109282    83Ap     4.145029
      64App    4.145037    84Ap     4.170147    85Ap     4.200875
      65App    4.201343    86Ap     4.201347    66App    4.207056
      87Ap     4.313515    67App    4.313535    68App    4.356656
      88Ap     4.421242    69App    4.421245    70App    4.442292
      71App    4.514559    89Ap     4.514560    72App    4.576885
      90Ap     4.576898    91Ap     4.615992    92Ap     4.707005
      93Ap     4.772570    73App    4.772578    74App    4.834318
      94Ap     4.962145    75App    5.001144    95Ap     5.001156
      96Ap     5.222689    97Ap     5.241522    76App    5.241522
      98Ap     5.351372    77App    5.351384    78App    5.475611

    Beta Occupied:

       1Ap   -10.168345     1App  -10.168344     2Ap   -10.168315
       3Ap   -10.166718     4Ap    -0.781066     5Ap    -0.683624
       2App   -0.683623     6Ap    -0.511520     3App   -0.431050
       7Ap    -0.431050     8Ap    -0.421444     9Ap    -0.376158
       4App   -0.376157     5App   -0.362560     6App   -0.333173
      10Ap    -0.333172

    Beta Virtual:

      11Ap    -0.026125    12Ap     0.076771    13Ap     0.134710
       7App    0.134710    14Ap     0.144187     8App    0.144188
      15Ap     0.163069    16Ap     0.181837     9App    0.181838
      10App    0.214707    17Ap     0.218952    11App    0.282173
      18Ap     0.282175    19Ap     0.400442    12App    0.400446
      20Ap     0.419586    13App    0.426622    21Ap     0.426623
      22Ap     0.468318    23Ap     0.497480    14App    0.497480
      15App    0.513533    24Ap     0.556090    25Ap     0.584091
      16App    0.584099    17App    0.596904    26Ap     0.596905
      27Ap     0.609077    28Ap     0.627286    18App    0.631377
      19App    0.639104    29Ap     0.639108    30Ap     0.666496
      20App    0.666497    31Ap     0.685995    21App    0.685996
      32Ap     0.757060    22App    0.829606    33Ap     0.829608
      23App    0.854826    24App    0.922136    34Ap     0.922143
      25App    0.945236    35Ap     0.952676    26App    0.966018
      36Ap     0.966034    37Ap     1.009511    38Ap     1.131848
      27App    1.131860    39Ap     1.154377    40Ap     1.167968
      28App    1.167980    41Ap     1.231443    42Ap     1.279296
      29App    1.279300    43Ap     1.285408    30App    1.328778
      44Ap     1.328780    45Ap     1.363490    31App    1.371146
      46Ap     1.371150    32App    1.393017    47Ap     1.405848
      33App    1.405851    34App    1.420602    48Ap     1.420608
      35App    1.427248    36App    1.492110    49Ap     1.507640
      37App    1.547317    50Ap     1.547317    51Ap     1.582059
      38App    1.582060    52Ap     1.672949    53Ap     1.743533
      39App    1.743544    54Ap     1.777440    40App    1.833122
      55Ap     1.833123    41App    1.971515    56Ap     2.023922
      42App    2.023925    57Ap     2.038366    58Ap     2.057927
      43App    2.057928    44App    2.745507    59Ap     2.745508
      45App    2.811596    60Ap     2.815556    61Ap     2.901871
      46App    2.901877    62Ap     2.924490    63Ap     2.931761
      47App    2.931770    48App    2.959602    64Ap     2.968208
      49App    2.968223    65Ap     3.041128    50App    3.079590
      66Ap     3.079602    51App    3.085309    67Ap     3.185152
      52App    3.185156    68Ap     3.188158    69Ap     3.290521
      53App    3.290521    70Ap     3.332414    54App    3.332419
      71Ap     3.383769    55App    3.493653    72Ap     3.493673
      56App    3.512205    73Ap     3.529111    57App    3.576225
      58App    3.581140    74Ap     3.581161    75Ap     3.670065
      59App    3.670075    76Ap     3.692065    60App    3.724815
      77Ap     3.724831    78Ap     3.779954    61App    3.779980
      79Ap     3.815785    80Ap     3.921216    62App    3.921223
      81Ap     4.041718    82Ap     4.115993    63App    4.115994
      83Ap     4.152294    64App    4.152303    84Ap     4.184379
      65App    4.207279    85Ap     4.207283    86Ap     4.208904
      66App    4.211589    87Ap     4.321024    67App    4.321044
      68App    4.360040    88Ap     4.429545    69App    4.429548
      70App    4.445160    71App    4.522364    89Ap     4.522365
      72App    4.587496    90Ap     4.587509    91Ap     4.623118
      92Ap     4.717445    93Ap     4.779503    73App    4.779511
      74App    4.837227    94Ap     4.966983    75App    5.005215
      95Ap     5.005228    96Ap     5.228398    97Ap     5.243303
      76App    5.243303    98Ap     5.357862    77App    5.357875
      78App    5.477944

    Final Occupation by Irrep:
             Ap   App
    DOCC [    10,    6 ]
    SOCC [     1,    0 ]

  @DF-UKS Final Energy:  -157.81308672573979

   => Energetics <=

    Nuclear Repulsion Energy =            125.3485411389538910
    One-Electron Energy =                -458.6605130974033955
    Two-Electron Energy =                 195.8017525242532884
    DFT Exchange-Correlation Energy =     -20.3028672915436097
    Empirical Dispersion Energy =           0.0000000000000000
    VV10 Nonlocal Energy =                  0.0000000000000000
    Total Energy =                       -157.8130867257397938

  UHF NO Occupations:
  HONO-2 :    9 Ap 1.9995974
  HONO-1 :   10 Ap 1.9989820
  HONO-0 :   11 Ap 1.0000000
  LUNO+0 :   12 Ap 0.0010180
  LUNO+1 :   13 Ap 0.0004026
  LUNO+2 :    7App 0.0001973
  LUNO+3 :   14 Ap 0.0001973

Computation Completed

Properties will be evaluated at   0.000000,   0.000000,   0.000000 [a0]

Properties computed using the SCF density matrix

  Nuclear Dipole Moment: [e a0]
     X:     0.8373      Y:    -0.0000      Z:     0.0000

  Electronic Dipole Moment: [e a0]
     X:    -0.7602      Y:     0.0000      Z:     0.0000

  Dipole Moment: [e a0]
     X:     0.0771      Y:     0.0000      Z:     0.0000     Total:     0.0771

  Dipole Moment: [D]
     X:     0.1961      Y:     0.0000      Z:     0.0000     Total:     0.1961

*** tstop() called on n023 at Fri Nov  5 13:35:31 2021
Module time:
	user time   =     636.24 seconds =      10.60 minutes
	system time =      12.05 seconds =       0.20 minutes
	total time  =        163 seconds =       2.72 minutes
Total time:
	user time   =     636.24 seconds =      10.60 minutes
	system time =      12.05 seconds =       0.20 minutes
	total time  =        163 seconds =       2.72 minutes
Grab this energy -157.8130867257398
    Psi4 stopped on: Friday, 05 November 2021 01:35PM
    Psi4 wall time for execution: 0:02:43.01

*** Psi4 exiting successfully. Buy a developer a beer!
