                               Psi4 1.4a2.dev629

  ==> Input File <==

--------------------------------------------------------------------------
import os
memory 14 GB

molecule {
 C   -0.3233381057   -0.0014566220   -0.0000000000
 C    0.0616701379   -1.4004434186   -2.4263424559
 C    0.0599636865    2.8022594053    0.0000000000
 C    0.0616701379   -1.4004434186    2.4263424559
 H    2.0864383545   -1.6472669509   -2.8456700545
 H   -0.7682435546   -0.3866965365   -4.0273120851
 H   -0.7625962390   -3.2903269839   -2.3489182143
 H    2.0877932118    3.2879954480    0.0000000000
 H   -0.7657820334    3.6803226174    1.6756783835
 H   -0.7657820334    3.6803226174   -1.6756783835
 H    2.0864383545   -1.6472669509    2.8456700545
 H   -0.7625962390   -3.2903269839    2.3489182143
 H   -0.7682435546   -0.3866965365    4.0273120851
units bohr
0 2
}

basis {

assign 6-31g_2dfp_

[ 6-31g_2dfp_ ]

spherical

!----------------------------------------------------------------------
! Basis Set Exchange
! Version v0.8.13
! https://www.basissetexchange.org
!----------------------------------------------------------------------
!   Basis set: 6-31G(2df,p)
! Description: 6-31G(2df,p)
!        Role: orbital
!     Version: 0  (Data from the original Basis Set Exchange)
!----------------------------------------------------------------------

****
H     0
S    3   1.00
     18.7311370              0.03349460
      2.8253937              0.23472695
      0.6401217              0.81375733
S    1   1.00
      0.1612778              1.00000000
P    1   1.00
      1.5000000              1.0000000
P    1   1.00
      0.3750000              1.0000000
****
B     0
S    6   1.00
   2068.8823000              0.0018663
    310.6495700              0.0142515
     70.6830330              0.0695516
     19.8610800              0.2325729
      6.2993048              0.4670787
      2.1270270              0.3634314
SP   3   1.00
      4.7279710             -0.1303938              0.0745976
      1.1903377             -0.1307889              0.3078467
      0.3594117              1.1309444              0.7434568
SP   1   1.00
      0.1267512              1.0000000              1.0000000
D    1   1.00
      0.8020000              1.0000000
D    1   1.00
      0.2005000              1.0000000
F    1   1.00
      0.5000000              1.0000000
****
C     0
S    6   1.00
   3047.5249000              0.0018347
    457.3695100              0.0140373
    103.9486900              0.0688426
     29.2101550              0.2321844
      9.2866630              0.4679413
      3.1639270              0.3623120
SP   3   1.00
      7.8682724             -0.1193324              0.0689991
      1.8812885             -0.1608542              0.3164240
      0.5442493              1.1434564              0.7443083
SP   1   1.00
      0.1687144              1.0000000              1.0000000
D    1   1.00
      1.2520000              1.0000000
D    1   1.00
      0.3130000              1.0000000
F    1   1.00
      0.8000000              1.0000000
****
N     0
S    6   1.00
   4173.5110000              0.0018348
    627.4579000              0.0139950
    142.9021000              0.0685870
     40.2343300              0.2322410
     12.8202100              0.4690700
      4.3904370              0.3604550
SP   3   1.00
     11.6263580             -0.1149610              0.0675800
      2.7162800             -0.1691180              0.3239070
      0.7722180              1.1458520              0.7408950
SP   1   1.00
      0.2120313              1.0000000              1.0000000
D    1   1.00
      1.8260000              1.0000000
D    1   1.00
      0.4565000              1.0000000
F    1   1.00
      1.0000000              1.0000000
****
O     0
S    6   1.00
   5484.6717000              0.0018311
    825.2349500              0.0139501
    188.0469600              0.0684451
     52.9645000              0.2327143
     16.8975700              0.4701930
      5.7996353              0.3585209
SP   3   1.00
     15.5396160             -0.1107775              0.0708743
      3.5999336             -0.1480263              0.3397528
      1.0137618              1.1307670              0.7271586
SP   1   1.00
      0.2700058              1.0000000              1.0000000
D    1   1.00
      2.5840000              1.0000000
D    1   1.00
      0.6460000              1.0000000
F    1   1.00
      1.4000000              1.0000000
****
F     0
S    6   1.00
   7001.7130900              0.0018196169
   1051.3660900              0.0139160796
    239.2856900              0.0684053245
     67.3974453              0.233185760
     21.5199573              0.471267439
      7.40310130             0.356618546
SP   3   1.00
     20.8479528             -0.108506975            0.0716287243
      4.80830834            -0.146451658            0.3459121030
      1.34406986             1.128688580            0.7224699570
SP   1   1.00
      0.358151393            1.0000000              1.0000000
D    1   1.00
      3.5000000              1.0000000
D    1   1.00
      0.8750000              1.0000000
F    1   1.00
      1.8500000              1.0000000
****
Al     0
S    6   1.00
  13983.1000000              0.00194267
   2098.7500000              0.0148599
    477.7050000              0.0728494
    134.3600000              0.2468300
     42.8709000              0.4872580
     14.5189000              0.3234960
SP   6   1.00
    239.6680000             -0.00292619             0.00460285
     57.4419000             -0.0374080              0.0331990
     18.2859000             -0.1144870              0.1362820
      6.5991400              0.1156350              0.3304760
      2.4904900              0.6125950              0.4491460
      0.9445400              0.3937990              0.2657040
SP   3   1.00
      1.2779000             -0.2276060             -0.0175130
      0.3975900              0.00144583             0.2445330
      0.1600950              1.0927900              0.8049340
SP   1   1.00
      0.0556577              1.0000000              1.0000000
D    1   1.00
      0.6500000              1.0000000
D    1   1.00
      0.1625000              1.0000000
F    1   1.00
      0.2500000              1.0000000
****
Si     0
S    6   1.00
  16115.9000000              0.00195948
   2425.5800000              0.01492880
    553.8670000              0.07284780
    156.3400000              0.24613000
     50.0683000              0.48591400
     17.0178000              0.32500200
SP   6   1.00
    292.7180000             -0.00278094             0.00443826
     69.8731000             -0.03571460             0.03266790
     22.3363000             -0.11498500             0.13472100
      8.1503900              0.09356340             0.32867800
      3.1345800              0.60301700             0.44964000
      1.2254300              0.41895900             0.26137200
SP   3   1.00
      1.7273800             -0.24463000            -0.01779510
      0.5729220              0.00431572             0.25353900
      0.2221920              1.09818000             0.80066900
SP   1   1.00
      0.0778369              1.00000000             1.00000000
D    1   1.00
      0.9000000              1.0000000
D    1   1.00
      0.2250000              1.0000000
F    1   1.00
      0.3200000              1.0000000
****
P     0
S    6   1.00
  19413.3000000              0.0018516
   2909.4200000              0.0142062
    661.3640000              0.0699995
    185.7590000              0.2400790
     59.1943000              0.4847620
     20.0310000              0.3352000
SP   6   1.00
    339.4780000             -0.00278217             0.00456462
     81.0101000             -0.0360499              0.03369360
     25.8780000             -0.1166310              0.13975500
      9.4522100              0.0968328              0.33936200
      3.6656600              0.6144180              0.45092100
      1.4674600              0.4037980              0.23858600
SP   3   1.00
      2.1562300             -0.2529230             -0.01776530
      0.7489970              0.0328517              0.27405800
      0.2831450              1.0812500              0.78542100
SP   1   1.00
      0.0998317              1.0000000              1.00000000
D    1   1.00
      1.1000000              1.0000000
D    1   1.00
      0.2750000              1.0000000
F    1   1.00
      0.4500000              1.0000000
****
S     0
S    6   1.00
  21917.1000000              0.0018690
   3301.4900000              0.0142300
    754.1460000              0.0696960
    212.7110000              0.2384870
     67.9896000              0.4833070
     23.0515000              0.3380740
SP   6   1.00
    423.7350000             -0.0023767              0.0040610
    100.7100000             -0.0316930              0.0306810
     32.1599000             -0.1133170              0.1304520
     11.8079000              0.0560900              0.3272050
      4.6311000              0.5922550              0.4528510
      1.8702500              0.4550060              0.2560420
SP   3   1.00
      2.6158400             -0.2503740             -0.0145110
      0.9221670              0.0669570              0.3102630
      0.3412870              1.0545100              0.7544830
SP   1   1.00
      0.1171670              1.0000000              1.0000000
D    1   1.00
      1.3000000              1.0000000
D    1   1.00
      0.3250000              1.0000000
F    1   1.00
      0.5500000              1.0000000
****
Cl     0
S    6   1.00
  25180.1000000              0.0018330
   3780.3500000              0.0140340
    860.4740000              0.0690970
    242.1450000              0.2374520
     77.3349000              0.4830340
     26.2470000              0.3398560
SP   6   1.00
    491.7650000             -0.0022974              0.0039894
    116.9840000             -0.0307140              0.0303180
     37.4153000             -0.1125280              0.1298800
     13.7834000              0.0450160              0.3279510
      5.4521500              0.5893530              0.4535270
      2.2258800              0.4652060              0.2521540
SP   3   1.00
      3.1864900             -0.2518300             -0.0142990
      1.1442700              0.0615890              0.3235720
      0.4203770              1.0601800              0.7435070
SP   1   1.00
      0.1426570              1.0000000              1.0000000
D    1   1.00
      1.5000000              1.0000000
D    1   1.00
      0.3750000              1.0000000
F    1   1.00
      0.7000000              1.0000000
****
}

set {
reference uhf
freeze_core true
e_convergence 10
d_convergence 10
dft_spherical_points 1202
dft_radial_points 99
}

e = energy('b3lyp')

print_out('Grab this energy {0}'.format(e))
--------------------------------------------------------------------------

    Molecular point group: cs

    Geometry (in Bohr), charge = 0, multiplicity = 2:

       Center              X                  Y                   Z               Mass
    ------------   -----------------  -----------------  -----------------  -----------------
         C           -0.323339230806    -0.001440003250     0.000000000000    12.000000000000
         C            0.061669012794    -1.400426799850    -2.426342455900    12.000000000000
         C            0.059962561394     2.802276024050     0.000000000000    12.000000000000
         C            0.061669012794    -1.400426799850     2.426342455900    12.000000000000
         H            2.086437229394    -1.647250332150    -2.845670054500     1.007825032230
         H           -0.768244679706    -0.386679917750    -4.027312085100     1.007825032230
         H           -0.762597364106    -3.290310365150    -2.348918214300     1.007825032230
         H            2.087792086694     3.288012066750     0.000000000000     1.007825032230
         H           -0.765783158506     3.680339236150     1.675678383500     1.007825032230
         H           -0.765783158506     3.680339236150    -1.675678383500     1.007825032230
         H            2.086437229394    -1.647250332150     2.845670054500     1.007825032230
         H           -0.762597364106    -3.290310365150     2.348918214300     1.007825032230
         H           -0.768244679706    -0.386679917750     4.027312085100     1.007825032230

  Charge       = 0
  Multiplicity = 2
  Basis Set: ANONYMOUSECA10758
    Blend: 6-31G_2DFP_
  Basis Set: (ANONYMOUSECA10758 AUX)
    Blend: DEF2-UNIVERSAL-JKFIT

    Orbital Energies [Eh]
    ---------------------

    Alpha Occupied:

       1Ap   -10.180342     1App  -10.167049     2Ap   -10.167028
       3Ap   -10.166968     4Ap    -0.797766     2App   -0.686207
       5Ap    -0.686167     6Ap    -0.530777     7Ap    -0.441124
       3App   -0.434850     8Ap    -0.434492     4App   -0.382659
       9Ap    -0.382538     5App   -0.363612     6App   -0.338130
      10Ap    -0.337868    11Ap    -0.168960

    Alpha Virtual:

      12Ap     0.076071     7App    0.134079    13Ap     0.134230
      14Ap     0.142359     8App    0.142897    15Ap     0.154880
      16Ap     0.178736     9App    0.178822    17Ap     0.203546
      10App    0.214803    18Ap     0.275751    11App    0.276220
      12App    0.399094    19Ap     0.399362    20Ap     0.403345
      13App    0.423929    21Ap     0.424264    22Ap     0.456593
      14App    0.495304    23Ap     0.495476    15App    0.512160
      24Ap     0.513980    25Ap     0.578714    16App    0.578923
      26Ap     0.591469    17App    0.591796    27Ap     0.602573
      28Ap     0.624733    18App    0.631773    29Ap     0.635996
      19App    0.636528    30Ap     0.663113    20App    0.663712
      21App    0.683648    31Ap     0.684064    32Ap     0.734994
      33Ap     0.825162    22App    0.825653    23App    0.853915
      24App    0.914705    34Ap     0.915345    25App    0.944126
      35Ap     0.944609    26App    0.961261    36Ap     0.961323
      37Ap     1.003456    27App    1.127820    38Ap     1.128407
      39Ap     1.142206    28App    1.163193    40Ap     1.163356
      41Ap     1.223317    42Ap     1.274055    29App    1.274910
      43Ap     1.279365    44Ap     1.324082    30App    1.324616
      45Ap     1.355992    46Ap     1.366002    31App    1.366105
      32App    1.392456    47Ap     1.403769    33App    1.404346
      34App    1.416652    48Ap     1.417542    35App    1.427905
      36App    1.491501    49Ap     1.499074    50Ap     1.542685
      37App    1.542998    38App    1.574352    51Ap     1.574555
      52Ap     1.669834    53Ap     1.738537    39App    1.740241
      54Ap     1.768369    40App    1.830536    55Ap     1.832250
      41App    1.971744    56Ap     2.017975    57Ap     2.019200
      42App    2.019209    43App    2.052562    58Ap     2.052721
      59Ap     2.738257    44App    2.738714    60Ap     2.790923
      45App    2.811428    61Ap     2.889134    46App    2.890771
      62Ap     2.894936    63Ap     2.929304    47App    2.929690
      48App    2.958932    49App    2.964215    64Ap     2.964601
      65Ap     3.034013    50App    3.070794    66Ap     3.071714
      51App    3.084433    67Ap     3.168446    52App    3.169086
      68Ap     3.180620    69Ap     3.285249    53App    3.285368
      70Ap     3.326824    54App    3.327504    71Ap     3.375620
      55App    3.489910    72Ap     3.490406    56App    3.514009
      73Ap     3.525330    57App    3.567845    74Ap     3.568940
      58App    3.575127    75Ap     3.665692    59App    3.667131
      76Ap     3.679658    60App    3.693885    77Ap     3.694352
      78Ap     3.776669    61App    3.776920    79Ap     3.789132
      62App    3.912001    80Ap     3.912450    81Ap     4.034452
      82Ap     4.111042    63App    4.111635    64App    4.148029
      83Ap     4.148160    84Ap     4.173281    65App    4.202201
      85Ap     4.202617    86Ap     4.203933    66App    4.210949
      87Ap     4.315838    67App    4.316114    68App    4.358981
      69App    4.424442    88Ap     4.424467    70App    4.443430
      89Ap     4.515604    71App    4.518077    90Ap     4.577972
      72App    4.578569    91Ap     4.617565    92Ap     4.709430
      93Ap     4.773775    73App    4.775423    74App    4.836889
      94Ap     4.962870    95Ap     5.002867    75App    5.003052
      96Ap     5.227694    76App    5.246926    97Ap     5.246979
      98Ap     5.354242    77App    5.356775    78App    5.479395

    Beta Occupied:

       1App  -10.167802     1Ap   -10.167788     2Ap   -10.167733
       3Ap   -10.166519     4Ap    -0.781091     2App   -0.684005
       5Ap    -0.683975     6Ap    -0.511748     3App   -0.431214
       7Ap    -0.430869     8Ap    -0.421822     4App   -0.376747
       9Ap    -0.376619     5App   -0.362596     6App   -0.333256
      10Ap    -0.332987

    Beta Virtual:

      11Ap    -0.025742    12Ap     0.077080     7App    0.134956
      13Ap     0.135133    14Ap     0.144220     8App    0.144776
      15Ap     0.163339    16Ap     0.182396     9App    0.182504
      10App    0.215032    17Ap     0.218929    18Ap     0.282114
      11App    0.282553    12App    0.400259    19Ap     0.400538
      20Ap     0.419790    13App    0.426739    21Ap     0.427077
      22Ap     0.468501    14App    0.497562    23Ap     0.497739
      15App    0.513895    24Ap     0.556326    25Ap     0.584266
      16App    0.584471    26Ap     0.597615    17App    0.598008
      27Ap     0.609998    28Ap     0.628105    18App    0.631929
      29Ap     0.639308    19App    0.639790    30Ap     0.666687
      20App    0.667266    21App    0.686303    31Ap     0.686678
      32Ap     0.757518    33Ap     0.830338    22App    0.830813
      23App    0.855268    24App    0.922696    34Ap     0.923297
      25App    0.945963    35Ap     0.953536    26App    0.966540
      36Ap     0.966657    37Ap     1.008696    27App    1.131863
      38Ap     1.132420    39Ap     1.155573    28App    1.168259
      40Ap     1.168448    41Ap     1.232290    42Ap     1.279603
      29App    1.280551    43Ap     1.285124    44Ap     1.329061
      30App    1.329614    45Ap     1.365408    31App    1.371261
      46Ap     1.371334    32App    1.393514    47Ap     1.407207
      33App    1.407834    34App    1.421730    48Ap     1.422564
      35App    1.428178    36App    1.492551    49Ap     1.509518
      50Ap     1.547108    37App    1.547393    38App    1.582228
      51Ap     1.582419    52Ap     1.674681    53Ap     1.744296
      39App    1.746014    54Ap     1.779138    40App    1.834388
      55Ap     1.836108    41App    1.972603    56Ap     2.025281
      42App    2.025602    57Ap     2.039677    43App    2.059268
      58Ap     2.059450    59Ap     2.746587    44App    2.747054
      45App    2.811839    60Ap     2.816059    61Ap     2.901794
      46App    2.903488    62Ap     2.924642    63Ap     2.931799
      47App    2.932157    48App    2.960021    49App    2.968752
      64Ap     2.969126    65Ap     3.041948    50App    3.080594
      66Ap     3.081614    51App    3.086370    67Ap     3.184172
      52App    3.184784    68Ap     3.188379    69Ap     3.290090
      53App    3.290126    70Ap     3.330606    54App    3.331329
      71Ap     3.383439    55App    3.492668    72Ap     3.493108
      56App    3.512373    73Ap     3.528376    57App    3.574973
      58App    3.581166    74Ap     3.582315    75Ap     3.670475
      59App    3.671836    76Ap     3.692947    60App    3.725521
      77Ap     3.725988    78Ap     3.781115    61App    3.781536
      79Ap     3.817668    62App    3.921772    80Ap     3.922311
      81Ap     4.045339    82Ap     4.117649    63App    4.118662
      64App    4.154968    83Ap     4.155646    84Ap     4.187328
      65App    4.208165    85Ap     4.209737    86Ap     4.210685
      66App    4.215434    87Ap     4.323204    67App    4.323631
      68App    4.362342    69App    4.432639    88Ap     4.432702
      70App    4.446311    89Ap     4.523401    71App    4.525860
      90Ap     4.588563    72App    4.589182    91Ap     4.624757
      92Ap     4.719775    93Ap     4.780737    73App    4.782369
      74App    4.839805    94Ap     4.967664    95Ap     5.006909
      75App    5.007088    96Ap     5.233324    76App    5.248716
      97Ap     5.248846    98Ap     5.360712    77App    5.363261
      78App    5.481718

    Final Occupation by Irrep:
             Ap   App
    DOCC [    10,    6 ]
    SOCC [     1,    0 ]

  @DF-UKS Final Energy:  -157.81306477700844

   => Energetics <=

    Nuclear Repulsion Energy =            125.3946177633100802
    One-Electron Energy =                -458.7488919006916603
    Two-Electron Energy =                 195.8483530423952743
    DFT Exchange-Correlation Energy =     -20.3071436820221152
    Empirical Dispersion Energy =           0.0000000000000000
    VV10 Nonlocal Energy =                  0.0000000000000000
    Total Energy =                       -157.8130647770084352

  UHF NO Occupations:
  HONO-2 :    9 Ap 1.9996009
  HONO-1 :   10 Ap 1.9989805
  HONO-0 :   11 Ap 1.0000000
  LUNO+0 :   12 Ap 0.0010195
  LUNO+1 :   13 Ap 0.0003991
  LUNO+2 :   14 Ap 0.0001979
  LUNO+3 :    7App 0.0001971

Computation Completed

Properties will be evaluated at   0.000000,   0.000000,   0.000000 [a0]

Properties computed using the SCF density matrix

  Nuclear Dipole Moment: [e a0]
     X:     0.8272      Y:     0.0001      Z:     0.0000

  Electronic Dipole Moment: [e a0]
     X:    -0.7493      Y:    -0.0019      Z:     0.0000

  Dipole Moment: [e a0]
     X:     0.0779      Y:    -0.0018      Z:     0.0000     Total:     0.0779

  Dipole Moment: [D]
     X:     0.1980      Y:    -0.0046      Z:     0.0000     Total:     0.1981

*** tstop() called on n083 at Fri Nov  5 11:49:37 2021
Module time:
	user time   =     494.89 seconds =       8.25 minutes
	system time =       4.43 seconds =       0.07 minutes
	total time  =        125 seconds =       2.08 minutes
Total time:
	user time   =     494.89 seconds =       8.25 minutes
	system time =       4.43 seconds =       0.07 minutes
	total time  =        125 seconds =       2.08 minutes
Grab this energy -157.81306477700844
    Psi4 stopped on: Friday, 05 November 2021 11:49AM
    Psi4 wall time for execution: 0:02:05.58

*** Psi4 exiting successfully. Buy a developer a beer!
