                               Psi4 1.4a2.dev629

  ==> Input File <==

--------------------------------------------------------------------------
import os
memory 14 GB

molecule {
 C   -0.3254224982   -0.0000022425   -0.0000000000
 C    0.0607208152   -1.4037288158   -2.4313189844
 C    0.0606008227    2.8074618772   -0.0000000000
 C    0.0607208152   -1.4037288158    2.4313189844
 H    2.0875493735   -1.6443775380   -2.8479254848
 H   -0.7651549087   -0.3929904648   -4.0333863736
 H   -0.7653176906   -3.2964615323   -2.3570711353
 H    2.0874105890    3.2886625862    0.0000000000
 H   -0.7653959845    3.6894850836    1.6763224664
 H   -0.7653959845    3.6894850836   -1.6763224664
 H    2.0875493735   -1.6443775380    2.8479254848
 H   -0.7653176906   -3.2964615323    2.3570711353
 H   -0.7651549087   -0.3929904648    4.0333863736
units bohr
0 2
}

basis {

assign 6-31g_2dfp_

[ 6-31g_2dfp_ ]

spherical

!----------------------------------------------------------------------
! Basis Set Exchange
! Version v0.8.13
! https://www.basissetexchange.org
!----------------------------------------------------------------------
!   Basis set: 6-31G(2df,p)
! Description: 6-31G(2df,p)
!        Role: orbital
!     Version: 0  (Data from the original Basis Set Exchange)
!----------------------------------------------------------------------

****
H     0
S    3   1.00
     18.7311370              0.03349460
      2.8253937              0.23472695
      0.6401217              0.81375733
S    1   1.00
      0.1612778              1.00000000
P    1   1.00
      1.5000000              1.0000000
P    1   1.00
      0.3750000              1.0000000
****
B     0
S    6   1.00
   2068.8823000              0.0018663
    310.6495700              0.0142515
     70.6830330              0.0695516
     19.8610800              0.2325729
      6.2993048              0.4670787
      2.1270270              0.3634314
SP   3   1.00
      4.7279710             -0.1303938              0.0745976
      1.1903377             -0.1307889              0.3078467
      0.3594117              1.1309444              0.7434568
SP   1   1.00
      0.1267512              1.0000000              1.0000000
D    1   1.00
      0.8020000              1.0000000
D    1   1.00
      0.2005000              1.0000000
F    1   1.00
      0.5000000              1.0000000
****
C     0
S    6   1.00
   3047.5249000              0.0018347
    457.3695100              0.0140373
    103.9486900              0.0688426
     29.2101550              0.2321844
      9.2866630              0.4679413
      3.1639270              0.3623120
SP   3   1.00
      7.8682724             -0.1193324              0.0689991
      1.8812885             -0.1608542              0.3164240
      0.5442493              1.1434564              0.7443083
SP   1   1.00
      0.1687144              1.0000000              1.0000000
D    1   1.00
      1.2520000              1.0000000
D    1   1.00
      0.3130000              1.0000000
F    1   1.00
      0.8000000              1.0000000
****
N     0
S    6   1.00
   4173.5110000              0.0018348
    627.4579000              0.0139950
    142.9021000              0.0685870
     40.2343300              0.2322410
     12.8202100              0.4690700
      4.3904370              0.3604550
SP   3   1.00
     11.6263580             -0.1149610              0.0675800
      2.7162800             -0.1691180              0.3239070
      0.7722180              1.1458520              0.7408950
SP   1   1.00
      0.2120313              1.0000000              1.0000000
D    1   1.00
      1.8260000              1.0000000
D    1   1.00
      0.4565000              1.0000000
F    1   1.00
      1.0000000              1.0000000
****
O     0
S    6   1.00
   5484.6717000              0.0018311
    825.2349500              0.0139501
    188.0469600              0.0684451
     52.9645000              0.2327143
     16.8975700              0.4701930
      5.7996353              0.3585209
SP   3   1.00
     15.5396160             -0.1107775              0.0708743
      3.5999336             -0.1480263              0.3397528
      1.0137618              1.1307670              0.7271586
SP   1   1.00
      0.2700058              1.0000000              1.0000000
D    1   1.00
      2.5840000              1.0000000
D    1   1.00
      0.6460000              1.0000000
F    1   1.00
      1.4000000              1.0000000
****
F     0
S    6   1.00
   7001.7130900              0.0018196169
   1051.3660900              0.0139160796
    239.2856900              0.0684053245
     67.3974453              0.233185760
     21.5199573              0.471267439
      7.40310130             0.356618546
SP   3   1.00
     20.8479528             -0.108506975            0.0716287243
      4.80830834            -0.146451658            0.3459121030
      1.34406986             1.128688580            0.7224699570
SP   1   1.00
      0.358151393            1.0000000              1.0000000
D    1   1.00
      3.5000000              1.0000000
D    1   1.00
      0.8750000              1.0000000
F    1   1.00
      1.8500000              1.0000000
****
Al     0
S    6   1.00
  13983.1000000              0.00194267
   2098.7500000              0.0148599
    477.7050000              0.0728494
    134.3600000              0.2468300
     42.8709000              0.4872580
     14.5189000              0.3234960
SP   6   1.00
    239.6680000             -0.00292619             0.00460285
     57.4419000             -0.0374080              0.0331990
     18.2859000             -0.1144870              0.1362820
      6.5991400              0.1156350              0.3304760
      2.4904900              0.6125950              0.4491460
      0.9445400              0.3937990              0.2657040
SP   3   1.00
      1.2779000             -0.2276060             -0.0175130
      0.3975900              0.00144583             0.2445330
      0.1600950              1.0927900              0.8049340
SP   1   1.00
      0.0556577              1.0000000              1.0000000
D    1   1.00
      0.6500000              1.0000000
D    1   1.00
      0.1625000              1.0000000
F    1   1.00
      0.2500000              1.0000000
****
Si     0
S    6   1.00
  16115.9000000              0.00195948
   2425.5800000              0.01492880
    553.8670000              0.07284780
    156.3400000              0.24613000
     50.0683000              0.48591400
     17.0178000              0.32500200
SP   6   1.00
    292.7180000             -0.00278094             0.00443826
     69.8731000             -0.03571460             0.03266790
     22.3363000             -0.11498500             0.13472100
      8.1503900              0.09356340             0.32867800
      3.1345800              0.60301700             0.44964000
      1.2254300              0.41895900             0.26137200
SP   3   1.00
      1.7273800             -0.24463000            -0.01779510
      0.5729220              0.00431572             0.25353900
      0.2221920              1.09818000             0.80066900
SP   1   1.00
      0.0778369              1.00000000             1.00000000
D    1   1.00
      0.9000000              1.0000000
D    1   1.00
      0.2250000              1.0000000
F    1   1.00
      0.3200000              1.0000000
****
P     0
S    6   1.00
  19413.3000000              0.0018516
   2909.4200000              0.0142062
    661.3640000              0.0699995
    185.7590000              0.2400790
     59.1943000              0.4847620
     20.0310000              0.3352000
SP   6   1.00
    339.4780000             -0.00278217             0.00456462
     81.0101000             -0.0360499              0.03369360
     25.8780000             -0.1166310              0.13975500
      9.4522100              0.0968328              0.33936200
      3.6656600              0.6144180              0.45092100
      1.4674600              0.4037980              0.23858600
SP   3   1.00
      2.1562300             -0.2529230             -0.01776530
      0.7489970              0.0328517              0.27405800
      0.2831450              1.0812500              0.78542100
SP   1   1.00
      0.0998317              1.0000000              1.00000000
D    1   1.00
      1.1000000              1.0000000
D    1   1.00
      0.2750000              1.0000000
F    1   1.00
      0.4500000              1.0000000
****
S     0
S    6   1.00
  21917.1000000              0.0018690
   3301.4900000              0.0142300
    754.1460000              0.0696960
    212.7110000              0.2384870
     67.9896000              0.4833070
     23.0515000              0.3380740
SP   6   1.00
    423.7350000             -0.0023767              0.0040610
    100.7100000             -0.0316930              0.0306810
     32.1599000             -0.1133170              0.1304520
     11.8079000              0.0560900              0.3272050
      4.6311000              0.5922550              0.4528510
      1.8702500              0.4550060              0.2560420
SP   3   1.00
      2.6158400             -0.2503740             -0.0145110
      0.9221670              0.0669570              0.3102630
      0.3412870              1.0545100              0.7544830
SP   1   1.00
      0.1171670              1.0000000              1.0000000
D    1   1.00
      1.3000000              1.0000000
D    1   1.00
      0.3250000              1.0000000
F    1   1.00
      0.5500000              1.0000000
****
Cl     0
S    6   1.00
  25180.1000000              0.0018330
   3780.3500000              0.0140340
    860.4740000              0.0690970
    242.1450000              0.2374520
     77.3349000              0.4830340
     26.2470000              0.3398560
SP   6   1.00
    491.7650000             -0.0022974              0.0039894
    116.9840000             -0.0307140              0.0303180
     37.4153000             -0.1125280              0.1298800
     13.7834000              0.0450160              0.3279510
      5.4521500              0.5893530              0.4535270
      2.2258800              0.4652060              0.2521540
SP   3   1.00
      3.1864900             -0.2518300             -0.0142990
      1.1442700              0.0615890              0.3235720
      0.4203770              1.0601800              0.7435070
SP   1   1.00
      0.1426570              1.0000000              1.0000000
D    1   1.00
      1.5000000              1.0000000
D    1   1.00
      0.3750000              1.0000000
F    1   1.00
      0.7000000              1.0000000
****
}

set {
reference uhf
freeze_core true
e_convergence 10
d_convergence 10
dft_spherical_points 1202
dft_radial_points 99
}

e = energy('b3lyp')

print_out('Grab this energy {0}'.format(e))
--------------------------------------------------------------------------

    Molecular point group: cs

    Geometry (in Bohr), charge = 0, multiplicity = 2:

       Center              X                  Y                   Z               Mass
    ------------   -----------------  -----------------  -----------------  -----------------
         C           -0.324779178538    -0.000002198948     0.000000000000    12.000000000000
         C            0.061364134862    -1.403728772248    -2.431318984400    12.000000000000
         C            0.061244142362     2.807461920752     0.000000000000    12.000000000000
         C            0.061364134862    -1.403728772248     2.431318984400    12.000000000000
         H            2.088192693162    -1.644377494448    -2.847925484800     1.007825032230
         H           -0.764511589038    -0.392990421248    -4.033386373600     1.007825032230
         H           -0.764674370938    -3.296461488748    -2.357071135300     1.007825032230
         H            2.088053908662     3.288662629752     0.000000000000     1.007825032230
         H           -0.764752664838     3.689485127152     1.676322466400     1.007825032230
         H           -0.764752664838     3.689485127152    -1.676322466400     1.007825032230
         H            2.088192693162    -1.644377494448     2.847925484800     1.007825032230
         H           -0.764674370938    -3.296461488748     2.357071135300     1.007825032230
         H           -0.764511589038    -0.392990421248     4.033386373600     1.007825032230

  Charge       = 0
  Multiplicity = 2
  Basis Set: ANONYMOUSC42C5483
    Blend: 6-31G_2DFP_
  Basis Set: (ANONYMOUSC42C5483 AUX)
    Blend: DEF2-UNIVERSAL-JKFIT

    Orbital Energies [Eh]
    ---------------------

    Alpha Occupied:

       1Ap   -10.181125     2Ap   -10.167438     1App  -10.167438
       3Ap   -10.167392     4Ap    -0.796657     5Ap    -0.685850
       2App   -0.685850     6Ap    -0.530766     7Ap    -0.440700
       3App   -0.433981     8Ap    -0.433980     9Ap    -0.382678
       4App   -0.382677     5App   -0.363590     6App   -0.337788
      10Ap    -0.337788    11Ap    -0.169196

    Alpha Virtual:

      12Ap     0.076066    13Ap     0.134165     7App    0.134166
      14Ap     0.142355     8App    0.142355    15Ap     0.154613
      16Ap     0.178641     9App    0.178642    17Ap     0.202302
      10App    0.214237    11App    0.275413    18Ap     0.275414
      19Ap     0.399022    12App    0.399026    20Ap     0.403623
      13App    0.424537    21Ap     0.424537    22Ap     0.455796
      23Ap     0.495186    14App    0.495187    15App    0.512015
      24Ap     0.513515    25Ap     0.577939    16App    0.577948
      17App    0.591302    26Ap     0.591303    27Ap     0.602351
      28Ap     0.624292    18App    0.631170    19App    0.635358
      29Ap     0.635362    30Ap     0.662655    20App    0.662655
      31Ap     0.683495    21App    0.683496    32Ap     0.735108
      22App    0.825659    33Ap     0.825662    23App    0.852567
      24App    0.914152    34Ap     0.914158    25App    0.942586
      35Ap     0.945979    26App    0.960603    36Ap     0.960619
      37Ap     1.001609    38Ap     1.126767    27App    1.126779
      39Ap     1.142447    40Ap     1.161931    28App    1.161944
      41Ap     1.222537    42Ap     1.273606    29App    1.273609
      43Ap     1.278626    30App    1.323738    44Ap     1.323740
      45Ap     1.356229    31App    1.363912    46Ap     1.363916
      32App    1.391134    47Ap     1.404609    33App    1.404611
      34App    1.416889    48Ap     1.416896    35App    1.425862
      36App    1.489708    49Ap     1.498826    37App    1.542017
      50Ap     1.542020    51Ap     1.573899    38App    1.573902
      52Ap     1.669835    53Ap     1.738913    39App    1.738924
      54Ap     1.766946    40App    1.829916    55Ap     1.829917
      41App    1.970253    56Ap     2.016231    57Ap     2.017095
      42App    2.017099    58Ap     2.047714    43App    2.047715
      44App    2.738302    59Ap     2.738302    60Ap     2.789541
      45App    2.808188    61Ap     2.888614    46App    2.888620
      62Ap     2.893165    63Ap     2.928881    47App    2.928889
      48App    2.958697    64Ap     2.964616    49App    2.964630
      65Ap     3.033565    50App    3.070806    66Ap     3.070819
      51App    3.083139    67Ap     3.167993    52App    3.168000
      68Ap     3.178575    53App    3.285198    69Ap     3.285199
      70Ap     3.325620    54App    3.325626    71Ap     3.377276
      55App    3.488864    72Ap     3.488884    56App    3.512979
      73Ap     3.522786    57App    3.567907    74Ap     3.567927
      58App    3.572199    75Ap     3.666471    59App    3.666479
      76Ap     3.676639    60App    3.693222    77Ap     3.693237
      78Ap     3.771174    61App    3.771200    79Ap     3.789733
      80Ap     3.910035    62App    3.910041    81Ap     4.033745
      82Ap     4.108389    63App    4.108394    83Ap     4.147625
      64App    4.147633    84Ap     4.172083    65App    4.199949
      85Ap     4.199952    86Ap     4.201610    66App    4.208723
      87Ap     4.314114    67App    4.314133    68App    4.355282
      88Ap     4.422910    69App    4.422912    70App    4.440043
      71App    4.513052    89Ap     4.513053    72App    4.573743
      90Ap     4.573755    91Ap     4.609700    92Ap     4.704405
      93Ap     4.767785    73App    4.767792    74App    4.833980
      94Ap     4.959330    75App    5.001443    95Ap     5.001455
      96Ap     5.226675    76App    5.245455    97Ap     5.245455
      98Ap     5.352330    77App    5.352343    78App    5.473380

    Beta Occupied:

       1Ap   -10.168188     1App  -10.168187     2Ap   -10.168168
       3Ap   -10.167267     4Ap    -0.780001     5Ap    -0.683675
       2App   -0.683674     6Ap    -0.511640     3App   -0.430379
       7Ap    -0.430379     8Ap    -0.421489     9Ap    -0.376811
       4App   -0.376809     5App   -0.362592     6App   -0.332903
      10Ap    -0.332902

    Beta Virtual:

      11Ap    -0.025608    12Ap     0.077067    13Ap     0.135046
       7App    0.135047    14Ap     0.144187     8App    0.144187
      15Ap     0.162979    16Ap     0.182292     9App    0.182293
      10App    0.214457    17Ap     0.217904    11App    0.281841
      18Ap     0.281843    19Ap     0.400154    12App    0.400158
      20Ap     0.420145    13App    0.427362    21Ap     0.427363
      22Ap     0.467272    23Ap     0.497418    14App    0.497419
      15App    0.513729    24Ap     0.556016    25Ap     0.583467
      16App    0.583475    17App    0.597562    26Ap     0.597563
      27Ap     0.609720    28Ap     0.627605    18App    0.631311
      19App    0.638580    29Ap     0.638584    30Ap     0.666234
      20App    0.666234    31Ap     0.686072    21App    0.686073
      32Ap     0.757845    22App    0.830795    33Ap     0.830798
      23App    0.853881    24App    0.922065    34Ap     0.922071
      25App    0.944420    35Ap     0.954914    26App    0.965911
      36Ap     0.965927    37Ap     1.006900    38Ap     1.130794
      27App    1.130806    39Ap     1.156037    40Ap     1.167008
      28App    1.167020    41Ap     1.231262    42Ap     1.279145
      29App    1.279149    43Ap     1.284379    30App    1.328692
      44Ap     1.328694    45Ap     1.365675    31App    1.369168
      46Ap     1.369173    32App    1.392166    47Ap     1.408090
      33App    1.408093    34App    1.421939    48Ap     1.421945
      35App    1.426094    36App    1.490768    49Ap     1.509230
      50Ap     1.546486    37App    1.546487    38App    1.581695
      51Ap     1.581695    52Ap     1.674671    53Ap     1.744670
      39App    1.744681    54Ap     1.777690    40App    1.833755
      55Ap     1.833756    41App    1.971101    56Ap     2.023459
      42App    2.023463    57Ap     2.037523    58Ap     2.054415
      43App    2.054415    44App    2.746721    59Ap     2.746723
      45App    2.808590    60Ap     2.814693    61Ap     2.901584
      46App    2.901590    62Ap     2.922823    63Ap     2.931188
      47App    2.931196    48App    2.959744    64Ap     2.969066
      49App    2.969080    65Ap     3.041423    50App    3.080644
      66Ap     3.080655    51App    3.084935    67Ap     3.183865
      52App    3.183869    68Ap     3.186283    53App    3.289841
      69Ap     3.289841    70Ap     3.329527    54App    3.329532
      71Ap     3.385138    55App    3.491544    72Ap     3.491563
      56App    3.511344    73Ap     3.525922    57App    3.572051
      58App    3.581290    74Ap     3.581312    75Ap     3.671427
      59App    3.671438    76Ap     3.690003    60App    3.724857
      77Ap     3.724872    78Ap     3.775597    61App    3.775623
      79Ap     3.818389    80Ap     3.919891    62App    3.919899
      81Ap     4.044649    82Ap     4.115393    63App    4.115395
      83Ap     4.154727    64App    4.154736    84Ap     4.186067
      65App    4.205919    85Ap     4.205923    86Ap     4.209471
      66App    4.213089    87Ap     4.321508    67App    4.321528
      68App    4.358642    88Ap     4.431014    69App    4.431017
      70App    4.442930    71App    4.520728    89Ap     4.520730
      72App    4.584304    90Ap     4.584316    91Ap     4.616983
      92Ap     4.714562    93Ap     4.774749    73App    4.774756
      74App    4.836895    94Ap     4.964106    75App    5.005427
      95Ap     5.005439    96Ap     5.232367    76App    5.247223
      97Ap     5.247224    98Ap     5.358754    77App    5.358768
      78App    5.475673

    Final Occupation by Irrep:
             Ap   App
    DOCC [    10,    6 ]
    SOCC [     1,    0 ]

  @DF-UKS Final Energy:  -157.81306075973507

   => Energetics <=

    Nuclear Repulsion Energy =            125.2020953152497214
    One-Electron Energy =                -458.3700051391328429
    Two-Electron Energy =                 195.6578561645224283
    DFT Exchange-Correlation Energy =     -20.3030071003743764
    Empirical Dispersion Energy =           0.0000000000000000
    VV10 Nonlocal Energy =                  0.0000000000000000
    Total Energy =                       -157.8130607597350661

  UHF NO Occupations:
  HONO-2 :    9 Ap 1.9996040
  HONO-1 :   10 Ap 1.9989714
  HONO-0 :   11 Ap 1.0000000
  LUNO+0 :   12 Ap 0.0010286
  LUNO+1 :   13 Ap 0.0003960
  LUNO+2 :    7App 0.0002000
  LUNO+3 :   14 Ap 0.0002000

Computation Completed

Properties will be evaluated at   0.000000,   0.000000,   0.000000 [a0]

Properties computed using the SCF density matrix

  Nuclear Dipole Moment: [e a0]
     X:     0.8317      Y:    -0.0000      Z:     0.0000

  Electronic Dipole Moment: [e a0]
     X:    -0.7525      Y:     0.0000      Z:     0.0000

  Dipole Moment: [e a0]
     X:     0.0792      Y:     0.0000      Z:     0.0000     Total:     0.0792

  Dipole Moment: [D]
     X:     0.2013      Y:     0.0000      Z:     0.0000     Total:     0.2013

*** tstop() called on n091 at Fri Nov  5 15:40:22 2021
Module time:
	user time   =     492.96 seconds =       8.22 minutes
	system time =       4.65 seconds =       0.08 minutes
	total time  =        125 seconds =       2.08 minutes
Total time:
	user time   =     492.96 seconds =       8.22 minutes
	system time =       4.65 seconds =       0.08 minutes
	total time  =        125 seconds =       2.08 minutes
Grab this energy -157.81306075973507
    Psi4 stopped on: Friday, 05 November 2021 03:40PM
    Psi4 wall time for execution: 0:02:05.14

*** Psi4 exiting successfully. Buy a developer a beer!
