                               Psi4 1.4a2.dev629

  ==> Input File <==

--------------------------------------------------------------------------
import os
memory 14 GB

molecule {
 C   -0.3247924881   -0.0004973902   -0.0000000000
 C    0.0613076790   -1.4011408747   -2.4261734092
 C    0.0632527208    2.8015671449   -0.0000000000
 C    0.0613076790   -1.4011408747    2.4261734092
 H    2.0889500604   -1.6441309053   -2.8471851893
 H   -0.7675601651   -0.3896104373   -4.0251694028
 H   -0.7656460054   -3.2901796195   -2.3495967756
 H    2.0826258938    3.2886279751   -0.0000000000
 H   -0.7638985705    3.6802008152    1.6795717464
 H   -0.7638985705    3.6802008152   -1.6795717464
 H    2.0889500604   -1.6441309053    2.8471851893
 H   -0.7656460054   -3.2901796195    2.3495967756
 H   -0.7675601651   -0.3896104373    4.0251694028
units bohr
0 2
}

basis {

assign 6-31g_2dfp_

[ 6-31g_2dfp_ ]

spherical

!----------------------------------------------------------------------
! Basis Set Exchange
! Version v0.8.13
! https://www.basissetexchange.org
!----------------------------------------------------------------------
!   Basis set: 6-31G(2df,p)
! Description: 6-31G(2df,p)
!        Role: orbital
!     Version: 0  (Data from the original Basis Set Exchange)
!----------------------------------------------------------------------

****
H     0
S    3   1.00
     18.7311370              0.03349460
      2.8253937              0.23472695
      0.6401217              0.81375733
S    1   1.00
      0.1612778              1.00000000
P    1   1.00
      1.5000000              1.0000000
P    1   1.00
      0.3750000              1.0000000
****
B     0
S    6   1.00
   2068.8823000              0.0018663
    310.6495700              0.0142515
     70.6830330              0.0695516
     19.8610800              0.2325729
      6.2993048              0.4670787
      2.1270270              0.3634314
SP   3   1.00
      4.7279710             -0.1303938              0.0745976
      1.1903377             -0.1307889              0.3078467
      0.3594117              1.1309444              0.7434568
SP   1   1.00
      0.1267512              1.0000000              1.0000000
D    1   1.00
      0.8020000              1.0000000
D    1   1.00
      0.2005000              1.0000000
F    1   1.00
      0.5000000              1.0000000
****
C     0
S    6   1.00
   3047.5249000              0.0018347
    457.3695100              0.0140373
    103.9486900              0.0688426
     29.2101550              0.2321844
      9.2866630              0.4679413
      3.1639270              0.3623120
SP   3   1.00
      7.8682724             -0.1193324              0.0689991
      1.8812885             -0.1608542              0.3164240
      0.5442493              1.1434564              0.7443083
SP   1   1.00
      0.1687144              1.0000000              1.0000000
D    1   1.00
      1.2520000              1.0000000
D    1   1.00
      0.3130000              1.0000000
F    1   1.00
      0.8000000              1.0000000
****
N     0
S    6   1.00
   4173.5110000              0.0018348
    627.4579000              0.0139950
    142.9021000              0.0685870
     40.2343300              0.2322410
     12.8202100              0.4690700
      4.3904370              0.3604550
SP   3   1.00
     11.6263580             -0.1149610              0.0675800
      2.7162800             -0.1691180              0.3239070
      0.7722180              1.1458520              0.7408950
SP   1   1.00
      0.2120313              1.0000000              1.0000000
D    1   1.00
      1.8260000              1.0000000
D    1   1.00
      0.4565000              1.0000000
F    1   1.00
      1.0000000              1.0000000
****
O     0
S    6   1.00
   5484.6717000              0.0018311
    825.2349500              0.0139501
    188.0469600              0.0684451
     52.9645000              0.2327143
     16.8975700              0.4701930
      5.7996353              0.3585209
SP   3   1.00
     15.5396160             -0.1107775              0.0708743
      3.5999336             -0.1480263              0.3397528
      1.0137618              1.1307670              0.7271586
SP   1   1.00
      0.2700058              1.0000000              1.0000000
D    1   1.00
      2.5840000              1.0000000
D    1   1.00
      0.6460000              1.0000000
F    1   1.00
      1.4000000              1.0000000
****
F     0
S    6   1.00
   7001.7130900              0.0018196169
   1051.3660900              0.0139160796
    239.2856900              0.0684053245
     67.3974453              0.233185760
     21.5199573              0.471267439
      7.40310130             0.356618546
SP   3   1.00
     20.8479528             -0.108506975            0.0716287243
      4.80830834            -0.146451658            0.3459121030
      1.34406986             1.128688580            0.7224699570
SP   1   1.00
      0.358151393            1.0000000              1.0000000
D    1   1.00
      3.5000000              1.0000000
D    1   1.00
      0.8750000              1.0000000
F    1   1.00
      1.8500000              1.0000000
****
Al     0
S    6   1.00
  13983.1000000              0.00194267
   2098.7500000              0.0148599
    477.7050000              0.0728494
    134.3600000              0.2468300
     42.8709000              0.4872580
     14.5189000              0.3234960
SP   6   1.00
    239.6680000             -0.00292619             0.00460285
     57.4419000             -0.0374080              0.0331990
     18.2859000             -0.1144870              0.1362820
      6.5991400              0.1156350              0.3304760
      2.4904900              0.6125950              0.4491460
      0.9445400              0.3937990              0.2657040
SP   3   1.00
      1.2779000             -0.2276060             -0.0175130
      0.3975900              0.00144583             0.2445330
      0.1600950              1.0927900              0.8049340
SP   1   1.00
      0.0556577              1.0000000              1.0000000
D    1   1.00
      0.6500000              1.0000000
D    1   1.00
      0.1625000              1.0000000
F    1   1.00
      0.2500000              1.0000000
****
Si     0
S    6   1.00
  16115.9000000              0.00195948
   2425.5800000              0.01492880
    553.8670000              0.07284780
    156.3400000              0.24613000
     50.0683000              0.48591400
     17.0178000              0.32500200
SP   6   1.00
    292.7180000             -0.00278094             0.00443826
     69.8731000             -0.03571460             0.03266790
     22.3363000             -0.11498500             0.13472100
      8.1503900              0.09356340             0.32867800
      3.1345800              0.60301700             0.44964000
      1.2254300              0.41895900             0.26137200
SP   3   1.00
      1.7273800             -0.24463000            -0.01779510
      0.5729220              0.00431572             0.25353900
      0.2221920              1.09818000             0.80066900
SP   1   1.00
      0.0778369              1.00000000             1.00000000
D    1   1.00
      0.9000000              1.0000000
D    1   1.00
      0.2250000              1.0000000
F    1   1.00
      0.3200000              1.0000000
****
P     0
S    6   1.00
  19413.3000000              0.0018516
   2909.4200000              0.0142062
    661.3640000              0.0699995
    185.7590000              0.2400790
     59.1943000              0.4847620
     20.0310000              0.3352000
SP   6   1.00
    339.4780000             -0.00278217             0.00456462
     81.0101000             -0.0360499              0.03369360
     25.8780000             -0.1166310              0.13975500
      9.4522100              0.0968328              0.33936200
      3.6656600              0.6144180              0.45092100
      1.4674600              0.4037980              0.23858600
SP   3   1.00
      2.1562300             -0.2529230             -0.01776530
      0.7489970              0.0328517              0.27405800
      0.2831450              1.0812500              0.78542100
SP   1   1.00
      0.0998317              1.0000000              1.00000000
D    1   1.00
      1.1000000              1.0000000
D    1   1.00
      0.2750000              1.0000000
F    1   1.00
      0.4500000              1.0000000
****
S     0
S    6   1.00
  21917.1000000              0.0018690
   3301.4900000              0.0142300
    754.1460000              0.0696960
    212.7110000              0.2384870
     67.9896000              0.4833070
     23.0515000              0.3380740
SP   6   1.00
    423.7350000             -0.0023767              0.0040610
    100.7100000             -0.0316930              0.0306810
     32.1599000             -0.1133170              0.1304520
     11.8079000              0.0560900              0.3272050
      4.6311000              0.5922550              0.4528510
      1.8702500              0.4550060              0.2560420
SP   3   1.00
      2.6158400             -0.2503740             -0.0145110
      0.9221670              0.0669570              0.3102630
      0.3412870              1.0545100              0.7544830
SP   1   1.00
      0.1171670              1.0000000              1.0000000
D    1   1.00
      1.3000000              1.0000000
D    1   1.00
      0.3250000              1.0000000
F    1   1.00
      0.5500000              1.0000000
****
Cl     0
S    6   1.00
  25180.1000000              0.0018330
   3780.3500000              0.0140340
    860.4740000              0.0690970
    242.1450000              0.2374520
     77.3349000              0.4830340
     26.2470000              0.3398560
SP   6   1.00
    491.7650000             -0.0022974              0.0039894
    116.9840000             -0.0307140              0.0303180
     37.4153000             -0.1125280              0.1298800
     13.7834000              0.0450160              0.3279510
      5.4521500              0.5893530              0.4535270
      2.2258800              0.4652060              0.2521540
SP   3   1.00
      3.1864900             -0.2518300             -0.0142990
      1.1442700              0.0615890              0.3235720
      0.4203770              1.0601800              0.7435070
SP   1   1.00
      0.1426570              1.0000000              1.0000000
D    1   1.00
      1.5000000              1.0000000
D    1   1.00
      0.3750000              1.0000000
F    1   1.00
      0.7000000              1.0000000
****
}

set {
reference uhf
freeze_core true
e_convergence 10
d_convergence 10
dft_spherical_points 1202
dft_radial_points 99
}

e = energy('b3lyp')

print_out('Grab this energy {0}'.format(e))
--------------------------------------------------------------------------

    Molecular point group: cs

    Geometry (in Bohr), charge = 0, multiplicity = 2:

       Center              X                  Y                   Z               Mass
    ------------   -----------------  -----------------  -----------------  -----------------
         C           -0.325007355985    -0.000263521933     0.000000000000    12.000000000000
         C            0.061092811115    -1.400907006433    -2.426173409200    12.000000000000
         C            0.063037852915     2.801801013167     0.000000000000    12.000000000000
         C            0.061092811115    -1.400907006433     2.426173409200    12.000000000000
         H            2.088735192515    -1.643897037033    -2.847185189300     1.007825032230
         H           -0.767775032985    -0.389376569033    -4.025169402800     1.007825032230
         H           -0.765860873285    -3.289945751233    -2.349596775600     1.007825032230
         H            2.082411025915     3.288861843367     0.000000000000     1.007825032230
         H           -0.764113438385     3.680434683467     1.679571746400     1.007825032230
         H           -0.764113438385     3.680434683467    -1.679571746400     1.007825032230
         H            2.088735192515    -1.643897037033     2.847185189300     1.007825032230
         H           -0.765860873285    -3.289945751233     2.349596775600     1.007825032230
         H           -0.767775032985    -0.389376569033     4.025169402800     1.007825032230

  Charge       = 0
  Multiplicity = 2
  Basis Set: ANONYMOUS84C39AC4
    Blend: 6-31G_2DFP_
  Basis Set: (ANONYMOUS84C39AC4 AUX)
    Blend: DEF2-UNIVERSAL-JKFIT

    Orbital Energies [Eh]
    ---------------------

    Alpha Occupied:

       1Ap   -10.180407     1App  -10.167035     2Ap   -10.167017
       3Ap   -10.166968     4Ap    -0.797751     5Ap    -0.686172
       2App   -0.686168     6Ap    -0.530783     7Ap    -0.441183
       8Ap    -0.434628     3App   -0.434586     9Ap    -0.382729
       4App   -0.382682     5App   -0.363485     6App   -0.337940
      10Ap    -0.337874    11Ap    -0.169145

    Alpha Virtual:

      12Ap     0.076074     7App    0.133986    13Ap     0.134316
       8App    0.142543    14Ap     0.142664    15Ap     0.154960
       9App    0.178762    16Ap     0.178933    17Ap     0.203574
      10App    0.214755    18Ap     0.275739    11App    0.275888
      19Ap     0.399174    12App    0.399244    20Ap     0.403263
      13App    0.423984    21Ap     0.424154    22Ap     0.456686
      23Ap     0.495217    14App    0.495509    15App    0.512206
      24Ap     0.513882    16App    0.578775    25Ap     0.579113
      17App    0.591513    26Ap     0.591800    27Ap     0.602799
      28Ap     0.624681    18App    0.631695    19App    0.636002
      29Ap     0.636194    20App    0.663200    30Ap     0.663954
      31Ap     0.683571    21App    0.683918    32Ap     0.734798
      33Ap     0.825333    22App    0.825363    23App    0.853923
      24App    0.914745    34Ap     0.915177    25App    0.944174
      35Ap     0.944659    26App    0.961175    36Ap     0.961450
      37Ap     1.003453    27App    1.128165    38Ap     1.128248
      39Ap     1.142229    28App    1.163582    40Ap     1.163825
      41Ap     1.223164    29App    1.274280    42Ap     1.274557
      43Ap     1.279611    30App    1.324060    44Ap     1.324156
      45Ap     1.356198    31App    1.365647    46Ap     1.365703
      32App    1.392462    33App    1.403635    47Ap     1.404574
      48Ap     1.416826    34App    1.417878    35App    1.427961
      36App    1.491307    49Ap     1.499470    37App    1.542420
      50Ap     1.543358    51Ap     1.573999    38App    1.574322
      52Ap     1.669550    39App    1.739038    53Ap     1.739274
      54Ap     1.768405    55Ap     1.830214    40App    1.831807
      41App    1.971450    56Ap     2.017225    42App    2.018913
      57Ap     2.019850    43App    2.052093    58Ap     2.053991
      44App    2.737881    59Ap     2.738697    60Ap     2.791122
      45App    2.811394    61Ap     2.889674    46App    2.889716
      62Ap     2.895281    47App    2.929512    63Ap     2.929520
      48App    2.958930    49App    2.963944    64Ap     2.964587
      65Ap     3.034365    50App    3.070406    66Ap     3.070465
      51App    3.084292    67Ap     3.168673    52App    3.169128
      68Ap     3.180569    69Ap     3.285783    53App    3.286435
      70Ap     3.327306    54App    3.327733    71Ap     3.375792
      72Ap     3.489779    55App    3.490081    56App    3.513836
      73Ap     3.525789    74Ap     3.568005    57App    3.568200
      58App    3.575770    59App    3.665100    75Ap     3.666522
      76Ap     3.679426    77Ap     3.694047    60App    3.694328
      78Ap     3.776495    61App    3.776563    79Ap     3.787858
      80Ap     3.912103    62App    3.912306    81Ap     4.034127
      63App    4.110687    82Ap     4.111564    83Ap     4.147495
      64App    4.148639    84Ap     4.173176    85Ap     4.201680
      86Ap     4.203238    65App    4.204024    66App    4.210977
      67App    4.315336    87Ap     4.317038    68App    4.359461
      88Ap     4.423978    69App    4.424638    70App    4.443165
      71App    4.516436    89Ap     4.517857    90Ap     4.578257
      72App    4.578519    91Ap     4.617059    92Ap     4.709776
      73App    4.773984    93Ap     4.774896    74App    4.835700
      94Ap     4.962965    75App    5.002349    95Ap     5.003831
      96Ap     5.227902    76App    5.244619    97Ap     5.248771
      77App    5.354013    98Ap     5.356508    78App    5.479009

    Beta Occupied:

       1App  -10.167786     1Ap   -10.167774     2Ap   -10.167733
       3Ap   -10.166581     4Ap    -0.781080     2App   -0.683974
       5Ap    -0.683967     6Ap    -0.511746     7Ap    -0.430987
       3App   -0.430953     8Ap    -0.421907     9Ap    -0.376846
       4App   -0.376756     5App   -0.362468     6App   -0.333059
      10Ap    -0.333008

    Beta Virtual:

      11Ap    -0.025844    12Ap     0.077079     7App    0.134876
      13Ap     0.135187     8App    0.144442    14Ap     0.144511
      15Ap     0.163406     9App    0.182416    16Ap     0.182624
      10App    0.214985    17Ap     0.218934    18Ap     0.282096
      11App    0.282251    19Ap     0.400343    12App    0.400411
      20Ap     0.419684    13App    0.426798    21Ap     0.426968
      22Ap     0.468607    23Ap     0.497476    14App    0.497781
      15App    0.513937    24Ap     0.556226    16App    0.584327
      25Ap     0.584634    17App    0.597676    26Ap     0.598011
      27Ap     0.610193    28Ap     0.628080    18App    0.631861
      19App    0.639282    29Ap     0.639485    20App    0.666798
      30Ap     0.667491    31Ap     0.686218    21App    0.686529
      32Ap     0.757342    33Ap     0.830503    22App    0.830537
      23App    0.855273    24App    0.922739    34Ap     0.923145
      25App    0.946007    35Ap     0.953582    26App    0.966419
      36Ap     0.966751    37Ap     1.008713    38Ap     1.132224
      27App    1.132259    39Ap     1.155575    28App    1.168616
      40Ap     1.168935    41Ap     1.232133    29App    1.279881
      42Ap     1.280179    43Ap     1.285375    30App    1.329060
      44Ap     1.329152    45Ap     1.365583    46Ap     1.370897
      31App    1.370933    32App    1.393513    33App    1.407057
      47Ap     1.408084    48Ap     1.421838    34App    1.422925
      35App    1.428234    36App    1.492354    49Ap     1.509920
      37App    1.546841    50Ap     1.547747    51Ap     1.581889
      38App    1.582179    52Ap     1.674412    39App    1.744797
      53Ap     1.745041    54Ap     1.779158    55Ap     1.834054
      40App    1.835662    41App    1.972309    42App    2.025272
      56Ap     2.026209    57Ap     2.038676    43App    2.058872
      58Ap     2.060687    44App    2.746225    59Ap     2.747024
      45App    2.811815    60Ap     2.816239    61Ap     2.902375
      46App    2.902500    62Ap     2.924952    47App    2.931948
      63Ap     2.932018    48App    2.959992    49App    2.968486
      64Ap     2.969160    65Ap     3.042257    50App    3.080246
      66Ap     3.080507    51App    3.086121    67Ap     3.184207
      52App    3.184888    68Ap     3.188308    69Ap     3.290532
      53App    3.291204    70Ap     3.331096    54App    3.331569
      71Ap     3.383619    72Ap     3.492567    55App    3.492791
      56App    3.512206    73Ap     3.528843    57App    3.575611
      74Ap     3.581345    58App    3.581646    59App    3.669780
      75Ap     3.671302    76Ap     3.692718    77Ap     3.725665
      60App    3.725978    61App    3.781064    78Ap     3.781138
      79Ap     3.816391    80Ap     3.921860    62App    3.922108
      81Ap     4.045042    63App    4.117507    82Ap     4.118345
      83Ap     4.154777    64App    4.155808    84Ap     4.187187
      85Ap     4.208230    65App    4.210017    86Ap     4.210560
      66App    4.215432    67App    4.322797    87Ap     4.324497
      68App    4.362823    88Ap     4.432152    69App    4.432811
      70App    4.446049    71App    4.524208    89Ap     4.525631
      90Ap     4.588879    72App    4.589167    91Ap     4.624245
      92Ap     4.720146    73App    4.780951    93Ap     4.781865
      74App    4.838628    94Ap     4.967758    75App    5.006393
      95Ap     5.007839    96Ap     5.233618    76App    5.246414
      97Ap     5.250545    77App    5.360492    98Ap     5.363006
      78App    5.481337

    Final Occupation by Irrep:
             Ap   App
    DOCC [    10,    6 ]
    SOCC [     1,    0 ]

  @DF-UKS Final Energy:  -157.81305410736670

   => Energetics <=

    Nuclear Repulsion Energy =            125.3922171120417630
    One-Electron Energy =                -458.7442442729701497
    Two-Electron Energy =                 195.8460494333778570
    DFT Exchange-Correlation Energy =     -20.3070763798161558
    Empirical Dispersion Energy =           0.0000000000000000
    VV10 Nonlocal Energy =                  0.0000000000000000
    Total Energy =                       -157.8130541073666961

  UHF NO Occupations:
  HONO-2 :    9 Ap 1.9996023
  HONO-1 :   10 Ap 1.9989820
  HONO-0 :   11 Ap 1.0000000
  LUNO+0 :   12 Ap 0.0010180
  LUNO+1 :   13 Ap 0.0003977
  LUNO+2 :    7App 0.0001977
  LUNO+3 :   14 Ap 0.0001976

Computation Completed

Properties will be evaluated at   0.000000,   0.000000,   0.000000 [a0]

Properties computed using the SCF density matrix

  Nuclear Dipole Moment: [e a0]
     X:     0.8257      Y:     0.0016      Z:     0.0000

  Electronic Dipole Moment: [e a0]
     X:    -0.7470      Y:    -0.0023      Z:     0.0000

  Dipole Moment: [e a0]
     X:     0.0787      Y:    -0.0007      Z:     0.0000     Total:     0.0787

  Dipole Moment: [D]
     X:     0.2000      Y:    -0.0017      Z:     0.0000     Total:     0.2000

*** tstop() called on n056 at Fri Nov  5 11:34:37 2021
Module time:
	user time   =     546.01 seconds =       9.10 minutes
	system time =      11.88 seconds =       0.20 minutes
	total time  =        140 seconds =       2.33 minutes
Total time:
	user time   =     546.01 seconds =       9.10 minutes
	system time =      11.88 seconds =       0.20 minutes
	total time  =        140 seconds =       2.33 minutes
Grab this energy -157.8130541073667
    Psi4 stopped on: Friday, 05 November 2021 11:34AM
    Psi4 wall time for execution: 0:02:20.42

*** Psi4 exiting successfully. Buy a developer a beer!
