                               Psi4 1.4a2.dev629

  ==> Input File <==

--------------------------------------------------------------------------
import os
memory 14 GB

molecule {
 C   -0.3247916577   -0.0000020908    0.0000017722
 C    0.0619971421   -1.4007868980   -2.4263232655
 C    0.0618768565    2.8016635990    0.0000511610
 C    0.0619961515   -1.4008723486    2.4262721047
 H    2.0868851430   -1.6400865043   -2.8498049956
 H   -0.7695757794   -0.3901152743   -4.0246495035
 H   -0.7617155405   -3.2935603214   -2.3478219067
 H    2.0867443996    3.2881451632    0.0046522755
 H   -0.7698128397    3.6804815540    1.6744474835
 H   -0.7617987681    3.6800198024   -1.6784310001
 H    2.0868814766   -1.6481511646    2.8451499596
 H   -0.7697405656   -3.2903301799    2.3502088520
 H   -0.7615538948   -0.3864296505    4.0262470631
units bohr
0 2
}

basis {

assign 6-31g_2dfp_

[ 6-31g_2dfp_ ]

spherical

!----------------------------------------------------------------------
! Basis Set Exchange
! Version v0.8.13
! https://www.basissetexchange.org
!----------------------------------------------------------------------
!   Basis set: 6-31G(2df,p)
! Description: 6-31G(2df,p)
!        Role: orbital
!     Version: 0  (Data from the original Basis Set Exchange)
!----------------------------------------------------------------------

****
H     0
S    3   1.00
     18.7311370              0.03349460
      2.8253937              0.23472695
      0.6401217              0.81375733
S    1   1.00
      0.1612778              1.00000000
P    1   1.00
      1.5000000              1.0000000
P    1   1.00
      0.3750000              1.0000000
****
B     0
S    6   1.00
   2068.8823000              0.0018663
    310.6495700              0.0142515
     70.6830330              0.0695516
     19.8610800              0.2325729
      6.2993048              0.4670787
      2.1270270              0.3634314
SP   3   1.00
      4.7279710             -0.1303938              0.0745976
      1.1903377             -0.1307889              0.3078467
      0.3594117              1.1309444              0.7434568
SP   1   1.00
      0.1267512              1.0000000              1.0000000
D    1   1.00
      0.8020000              1.0000000
D    1   1.00
      0.2005000              1.0000000
F    1   1.00
      0.5000000              1.0000000
****
C     0
S    6   1.00
   3047.5249000              0.0018347
    457.3695100              0.0140373
    103.9486900              0.0688426
     29.2101550              0.2321844
      9.2866630              0.4679413
      3.1639270              0.3623120
SP   3   1.00
      7.8682724             -0.1193324              0.0689991
      1.8812885             -0.1608542              0.3164240
      0.5442493              1.1434564              0.7443083
SP   1   1.00
      0.1687144              1.0000000              1.0000000
D    1   1.00
      1.2520000              1.0000000
D    1   1.00
      0.3130000              1.0000000
F    1   1.00
      0.8000000              1.0000000
****
N     0
S    6   1.00
   4173.5110000              0.0018348
    627.4579000              0.0139950
    142.9021000              0.0685870
     40.2343300              0.2322410
     12.8202100              0.4690700
      4.3904370              0.3604550
SP   3   1.00
     11.6263580             -0.1149610              0.0675800
      2.7162800             -0.1691180              0.3239070
      0.7722180              1.1458520              0.7408950
SP   1   1.00
      0.2120313              1.0000000              1.0000000
D    1   1.00
      1.8260000              1.0000000
D    1   1.00
      0.4565000              1.0000000
F    1   1.00
      1.0000000              1.0000000
****
O     0
S    6   1.00
   5484.6717000              0.0018311
    825.2349500              0.0139501
    188.0469600              0.0684451
     52.9645000              0.2327143
     16.8975700              0.4701930
      5.7996353              0.3585209
SP   3   1.00
     15.5396160             -0.1107775              0.0708743
      3.5999336             -0.1480263              0.3397528
      1.0137618              1.1307670              0.7271586
SP   1   1.00
      0.2700058              1.0000000              1.0000000
D    1   1.00
      2.5840000              1.0000000
D    1   1.00
      0.6460000              1.0000000
F    1   1.00
      1.4000000              1.0000000
****
F     0
S    6   1.00
   7001.7130900              0.0018196169
   1051.3660900              0.0139160796
    239.2856900              0.0684053245
     67.3974453              0.233185760
     21.5199573              0.471267439
      7.40310130             0.356618546
SP   3   1.00
     20.8479528             -0.108506975            0.0716287243
      4.80830834            -0.146451658            0.3459121030
      1.34406986             1.128688580            0.7224699570
SP   1   1.00
      0.358151393            1.0000000              1.0000000
D    1   1.00
      3.5000000              1.0000000
D    1   1.00
      0.8750000              1.0000000
F    1   1.00
      1.8500000              1.0000000
****
Al     0
S    6   1.00
  13983.1000000              0.00194267
   2098.7500000              0.0148599
    477.7050000              0.0728494
    134.3600000              0.2468300
     42.8709000              0.4872580
     14.5189000              0.3234960
SP   6   1.00
    239.6680000             -0.00292619             0.00460285
     57.4419000             -0.0374080              0.0331990
     18.2859000             -0.1144870              0.1362820
      6.5991400              0.1156350              0.3304760
      2.4904900              0.6125950              0.4491460
      0.9445400              0.3937990              0.2657040
SP   3   1.00
      1.2779000             -0.2276060             -0.0175130
      0.3975900              0.00144583             0.2445330
      0.1600950              1.0927900              0.8049340
SP   1   1.00
      0.0556577              1.0000000              1.0000000
D    1   1.00
      0.6500000              1.0000000
D    1   1.00
      0.1625000              1.0000000
F    1   1.00
      0.2500000              1.0000000
****
Si     0
S    6   1.00
  16115.9000000              0.00195948
   2425.5800000              0.01492880
    553.8670000              0.07284780
    156.3400000              0.24613000
     50.0683000              0.48591400
     17.0178000              0.32500200
SP   6   1.00
    292.7180000             -0.00278094             0.00443826
     69.8731000             -0.03571460             0.03266790
     22.3363000             -0.11498500             0.13472100
      8.1503900              0.09356340             0.32867800
      3.1345800              0.60301700             0.44964000
      1.2254300              0.41895900             0.26137200
SP   3   1.00
      1.7273800             -0.24463000            -0.01779510
      0.5729220              0.00431572             0.25353900
      0.2221920              1.09818000             0.80066900
SP   1   1.00
      0.0778369              1.00000000             1.00000000
D    1   1.00
      0.9000000              1.0000000
D    1   1.00
      0.2250000              1.0000000
F    1   1.00
      0.3200000              1.0000000
****
P     0
S    6   1.00
  19413.3000000              0.0018516
   2909.4200000              0.0142062
    661.3640000              0.0699995
    185.7590000              0.2400790
     59.1943000              0.4847620
     20.0310000              0.3352000
SP   6   1.00
    339.4780000             -0.00278217             0.00456462
     81.0101000             -0.0360499              0.03369360
     25.8780000             -0.1166310              0.13975500
      9.4522100              0.0968328              0.33936200
      3.6656600              0.6144180              0.45092100
      1.4674600              0.4037980              0.23858600
SP   3   1.00
      2.1562300             -0.2529230             -0.01776530
      0.7489970              0.0328517              0.27405800
      0.2831450              1.0812500              0.78542100
SP   1   1.00
      0.0998317              1.0000000              1.00000000
D    1   1.00
      1.1000000              1.0000000
D    1   1.00
      0.2750000              1.0000000
F    1   1.00
      0.4500000              1.0000000
****
S     0
S    6   1.00
  21917.1000000              0.0018690
   3301.4900000              0.0142300
    754.1460000              0.0696960
    212.7110000              0.2384870
     67.9896000              0.4833070
     23.0515000              0.3380740
SP   6   1.00
    423.7350000             -0.0023767              0.0040610
    100.7100000             -0.0316930              0.0306810
     32.1599000             -0.1133170              0.1304520
     11.8079000              0.0560900              0.3272050
      4.6311000              0.5922550              0.4528510
      1.8702500              0.4550060              0.2560420
SP   3   1.00
      2.6158400             -0.2503740             -0.0145110
      0.9221670              0.0669570              0.3102630
      0.3412870              1.0545100              0.7544830
SP   1   1.00
      0.1171670              1.0000000              1.0000000
D    1   1.00
      1.3000000              1.0000000
D    1   1.00
      0.3250000              1.0000000
F    1   1.00
      0.5500000              1.0000000
****
Cl     0
S    6   1.00
  25180.1000000              0.0018330
   3780.3500000              0.0140340
    860.4740000              0.0690970
    242.1450000              0.2374520
     77.3349000              0.4830340
     26.2470000              0.3398560
SP   6   1.00
    491.7650000             -0.0022974              0.0039894
    116.9840000             -0.0307140              0.0303180
     37.4153000             -0.1125280              0.1298800
     13.7834000              0.0450160              0.3279510
      5.4521500              0.5893530              0.4535270
      2.2258800              0.4652060              0.2521540
SP   3   1.00
      3.1864900             -0.2518300             -0.0142990
      1.1442700              0.0615890              0.3235720
      0.4203770              1.0601800              0.7435070
SP   1   1.00
      0.1426570              1.0000000              1.0000000
D    1   1.00
      1.5000000              1.0000000
D    1   1.00
      0.3750000              1.0000000
F    1   1.00
      0.7000000              1.0000000
****
}

set {
reference uhf
freeze_core true
e_convergence 10
d_convergence 10
dft_spherical_points 1202
dft_radial_points 99
}

e = energy('b3lyp')

print_out('Grab this energy {0}'.format(e))
--------------------------------------------------------------------------

    Molecular point group: c1

    Geometry (in Bohr), charge = 0, multiplicity = 2:

       Center              X                  Y                   Z               Mass
    ------------   -----------------  -----------------  -----------------  -----------------
         C           -0.325007084477    -0.000002097035     0.000001430819    12.000000000000
         C            0.061781715323    -1.400786904235    -2.426323606881    12.000000000000
         C            0.061661429723     2.801663592765     0.000050819619    12.000000000000
         C            0.061780724723    -1.400872354835     2.426271763319    12.000000000000
         H            2.086669716223    -1.640086510535    -2.849805336981     1.007825032230
         H           -0.769791206177    -0.390115280535    -4.024649844881     1.007825032230
         H           -0.761930967277    -3.293560327635    -2.347822248081     1.007825032230
         H            2.086528972823     3.288145156965     0.004651934119     1.007825032230
         H           -0.770028266477     3.680481547765     1.674447142119     1.007825032230
         H           -0.762014194877     3.680019796165    -1.678431341481     1.007825032230
         H            2.086666049823    -1.648151170835     2.845149618219     1.007825032230
         H           -0.769955992377    -3.290330186135     2.350208510619     1.007825032230
         H           -0.761769321577    -0.386429656735     4.026246721719     1.007825032230

  Charge       = 0
  Multiplicity = 2
  Basis Set: ANONYMOUS62F477EE
    Blend: 6-31G_2DFP_
  Basis Set: (ANONYMOUS62F477EE AUX)
    Blend: DEF2-UNIVERSAL-JKFIT

    Orbital Energies [Eh]
    ---------------------

    Alpha Occupied:

       1A    -10.180407     2A    -10.167022     3A    -10.167022
       4A    -10.166976     5A     -0.797750     6A     -0.686169
       7A     -0.686168     8A     -0.530781     9A     -0.441180
      10A     -0.434608    11A     -0.434607    12A     -0.382707
      13A     -0.382705    14A     -0.363485    15A     -0.337907
      16A     -0.337907    17A     -0.169144

    Alpha Virtual:

      18A      0.076076    19A      0.134153    20A      0.134154
      21A      0.142605    22A      0.142606    23A      0.154959
      24A      0.178846    25A      0.178846    26A      0.203572
      27A      0.214754    28A      0.275812    29A      0.275814
      30A      0.399207    31A      0.399211    32A      0.403264
      33A      0.424069    34A      0.424069    35A      0.456686
      36A      0.495364    37A      0.495365    38A      0.512191
      39A      0.513895    40A      0.578941    41A      0.578950
      42A      0.591660    43A      0.591662    44A      0.602787
      45A      0.624681    46A      0.631718    47A      0.636085
      48A      0.636089    49A      0.663570    50A      0.663571
      51A      0.683741    52A      0.683742    53A      0.734798
      54A      0.825351    55A      0.825354    56A      0.853916
      57A      0.914957    58A      0.914963    59A      0.944062
      60A      0.944765    61A      0.961305    62A      0.961322
      63A      1.003466    64A      1.128202    65A      1.128215
      66A      1.142240    67A      1.163694    68A      1.163706
      69A      1.223162    70A      1.274422    71A      1.274425
      72A      1.279593    73A      1.324108    74A      1.324111
      75A      1.356215    76A      1.365674    77A      1.365678
      78A      1.392479    79A      1.404097    80A      1.404099
      81A      1.417347    82A      1.417353    83A      1.427956
      84A      1.491286    85A      1.499494    86A      1.542877
      87A      1.542879    88A      1.574157    89A      1.574160
      90A      1.669556    91A      1.739170    92A      1.739182
      93A      1.768369    94A      1.831008    95A      1.831009
      96A      1.971461    97A      2.017294    98A      2.019342
      99A      2.019345   100A      2.053024   101A      2.053026
     102A      2.738290   103A      2.738290   104A      2.791114
     105A      2.811396   106A      2.889705   107A      2.889711
     108A      2.895261   109A      2.929511   110A      2.929519
     111A      2.958926   112A      2.964257   113A      2.964271
     114A      3.034356   115A      3.070433   116A      3.070446
     117A      3.084278   118A      3.168898   119A      3.168905
     120A      3.180553   121A      3.286108   122A      3.286108
     123A      3.327518   124A      3.327524   125A      3.375787
     126A      3.489927   127A      3.489947   128A      3.513821
     129A      3.525798   130A      3.568092   131A      3.568112
     132A      3.575766   133A      3.665808   134A      3.665817
     135A      3.679431   136A      3.694172   137A      3.694188
     138A      3.776516   139A      3.776541   140A      3.787850
     141A      3.912196   142A      3.912202   143A      4.034147
     144A      4.111140   145A      4.111144   146A      4.148093
     147A      4.148101   148A      4.173191   149A      4.202297
     150A      4.203341   151A      4.203344   152A      4.210901
     153A      4.316151   154A      4.316170   155A      4.359455
     156A      4.424297   157A      4.424300   158A      4.443165
     159A      4.517136   160A      4.517138   161A      4.578392
     162A      4.578404   163A      4.617033   164A      4.709767
     165A      4.774429   166A      4.774437   167A      4.835703
     168A      4.962961   169A      5.003088   170A      5.003100
     171A      5.227938   172A      5.246699   173A      5.246700
     174A      5.355218   175A      5.355231   176A      5.478980

    Beta Occupied:

       1A    -10.167772     2A    -10.167772     3A    -10.167748
       4A    -10.166580     5A     -0.781079     6A     -0.683969
       7A     -0.683969     8A     -0.511744     9A     -0.430968
      10A     -0.430968    11A     -0.421909    12A     -0.376802
      13A     -0.376801    14A     -0.362468    15A     -0.333034
      16A     -0.333034

    Beta Virtual:

      17A     -0.025843    18A      0.077080    19A      0.135032
      20A      0.135033    21A      0.144478    22A      0.144479
      23A      0.163407    24A      0.182518    25A      0.182518
      26A      0.214983    27A      0.218934    28A      0.282172
      29A      0.282175    30A      0.400376    31A      0.400380
      32A      0.419686    33A      0.426882    34A      0.426883
      35A      0.468608    36A      0.497629    37A      0.497630
      38A      0.513936    39A      0.556227    40A      0.584478
      41A      0.584486    42A      0.597846    43A      0.597847
      44A      0.610184    45A      0.628079    46A      0.631875
      47A      0.639376    48A      0.639381    49A      0.667137
      50A      0.667137    51A      0.686370    52A      0.686371
      53A      0.757341    54A      0.830524    55A      0.830526
      56A      0.855265    57A      0.922938    58A      0.922945
      59A      0.945989    60A      0.953594    61A      0.966578
      62A      0.966594    63A      1.008725    64A      1.132237
      65A      1.132249    66A      1.155589    67A      1.168764
      68A      1.168776    69A      1.232131    70A      1.280034
      71A      1.280038    72A      1.285354    73A      1.329106
      74A      1.329108    75A      1.365600    76A      1.370912
      77A      1.370917    78A      1.393536    79A      1.407562
      80A      1.407564    81A      1.422375    82A      1.422382
      83A      1.428230    84A      1.492344    85A      1.509932
      86A      1.547284    87A      1.547284    88A      1.582031
      89A      1.582032    90A      1.674418    91A      1.744930
      92A      1.744941    93A      1.779130    94A      1.834855
      95A      1.834856    96A      1.972319    97A      2.025739
      98A      2.025743    99A      2.038676   100A      2.059758
     101A      2.059760   102A      2.746625   103A      2.746626
     104A      2.811772   105A      2.816276   106A      2.902437
     107A      2.902443   108A      2.924955   109A      2.931977
     110A      2.931986   111A      2.959988   112A      2.968812
     113A      2.968826   114A      3.042250   115A      3.080383
     116A      3.080394   117A      3.086090   118A      3.184555
     119A      3.184559   120A      3.188277   121A      3.290867
     122A      3.290867   123A      3.331331   124A      3.331337
     125A      3.383615   126A      3.492676   127A      3.492696
     128A      3.512193   129A      3.528847   130A      3.575630
     131A      3.581474   132A      3.581496   133A      3.670532
     134A      3.670544   135A      3.692722   136A      3.725811
     137A      3.725827   138A      3.781084   139A      3.781110
     140A      3.816388   141A      3.921975   142A      3.921982
     143A      4.045063   144A      4.117941   145A      4.117943
     146A      4.155314   147A      4.155323   148A      4.187212
     149A      4.209280   150A      4.209284   151A      4.210276
     152A      4.215351   153A      4.323613   154A      4.323633
     155A      4.362817   156A      4.432472   157A      4.432474
     158A      4.446048   159A      4.524910   160A      4.524912
     161A      4.589028   162A      4.589040   163A      4.624217
     164A      4.720137   165A      4.781397   166A      4.781405
     167A      4.838630   168A      4.967753   169A      5.007113
     170A      5.007125   171A      5.233655   172A      5.248483
     173A      5.248484   174A      5.361706   175A      5.361720
     176A      5.481308

    Final Occupation by Irrep:
              A
    DOCC [    16 ]
    SOCC [     1 ]

  @DF-UKS Final Energy:  -157.81306512462268

   => Energetics <=

    Nuclear Repulsion Energy =            125.3921662486724387
    One-Electron Energy =                -458.7441777729206933
    Two-Electron Energy =                 195.8460190495718223
    DFT Exchange-Correlation Energy =     -20.3070726499462459
    Empirical Dispersion Energy =           0.0000000000000000
    VV10 Nonlocal Energy =                  0.0000000000000000
    Total Energy =                       -157.8130651246226819

  UHF NO Occupations:
  HONO-2 :   15  A 1.9996024
  HONO-1 :   16  A 1.9989820
  HONO-0 :   17  A 1.0000000
  LUNO+0 :   18  A 0.0010180
  LUNO+1 :   19  A 0.0003976
  LUNO+2 :   20  A 0.0001976
  LUNO+3 :   21  A 0.0001976

Computation Completed

Properties will be evaluated at   0.000000,   0.000000,   0.000000 [a0]

Properties computed using the SCF density matrix

  Nuclear Dipole Moment: [e a0]
     X:     0.8257      Y:    -0.0000      Z:    -0.0000

  Electronic Dipole Moment: [e a0]
     X:    -0.7470      Y:     0.0000      Z:     0.0000

  Dipole Moment: [e a0]
     X:     0.0787      Y:     0.0000      Z:    -0.0000     Total:     0.0787

  Dipole Moment: [D]
     X:     0.2000      Y:     0.0000      Z:    -0.0000     Total:     0.2000

*** tstop() called on n083 at Fri Nov  5 11:40:22 2021
Module time:
	user time   =     492.26 seconds =       8.20 minutes
	system time =       4.60 seconds =       0.08 minutes
	total time  =        125 seconds =       2.08 minutes
Total time:
	user time   =     492.26 seconds =       8.20 minutes
	system time =       4.60 seconds =       0.08 minutes
	total time  =        125 seconds =       2.08 minutes
Grab this energy -157.81306512462268
    Psi4 stopped on: Friday, 05 November 2021 11:40AM
    Psi4 wall time for execution: 0:02:04.94

*** Psi4 exiting successfully. Buy a developer a beer!
