                               Psi4 1.4a2.dev629

  ==> Input File <==

--------------------------------------------------------------------------
import os
memory 14 GB

molecule {
 C   -0.3251192275    0.0002554595    0.0000000000
 C    0.0616079020   -1.4015781632   -2.4262673394
 C    0.0584145707    2.8020261513   -0.0000000000
 C    0.0616079020   -1.4015781632    2.4262673394
 H    2.0871539593   -1.6409052879   -2.8423216017
 H   -0.7651925257   -0.3902631198   -4.0279766026
 H   -0.7655908662   -3.2929260333   -2.3522188244
 H    2.0873196481    3.2820587922    0.0000000000
 H   -0.7645899034    3.6834902459    1.6761468108
 H   -0.7645899034    3.6834902459   -1.6761468108
 H    2.0871539593   -1.6409052879    2.8423216017
 H   -0.7655908662   -3.2929260333    2.3522188244
 H   -0.7651925257   -0.3902631198    4.0279766026
units bohr
0 2
}

basis {

assign 6-31g_2dfp_

[ 6-31g_2dfp_ ]

spherical

!----------------------------------------------------------------------
! Basis Set Exchange
! Version v0.8.13
! https://www.basissetexchange.org
!----------------------------------------------------------------------
!   Basis set: 6-31G(2df,p)
! Description: 6-31G(2df,p)
!        Role: orbital
!     Version: 0  (Data from the original Basis Set Exchange)
!----------------------------------------------------------------------

****
H     0
S    3   1.00
     18.7311370              0.03349460
      2.8253937              0.23472695
      0.6401217              0.81375733
S    1   1.00
      0.1612778              1.00000000
P    1   1.00
      1.5000000              1.0000000
P    1   1.00
      0.3750000              1.0000000
****
B     0
S    6   1.00
   2068.8823000              0.0018663
    310.6495700              0.0142515
     70.6830330              0.0695516
     19.8610800              0.2325729
      6.2993048              0.4670787
      2.1270270              0.3634314
SP   3   1.00
      4.7279710             -0.1303938              0.0745976
      1.1903377             -0.1307889              0.3078467
      0.3594117              1.1309444              0.7434568
SP   1   1.00
      0.1267512              1.0000000              1.0000000
D    1   1.00
      0.8020000              1.0000000
D    1   1.00
      0.2005000              1.0000000
F    1   1.00
      0.5000000              1.0000000
****
C     0
S    6   1.00
   3047.5249000              0.0018347
    457.3695100              0.0140373
    103.9486900              0.0688426
     29.2101550              0.2321844
      9.2866630              0.4679413
      3.1639270              0.3623120
SP   3   1.00
      7.8682724             -0.1193324              0.0689991
      1.8812885             -0.1608542              0.3164240
      0.5442493              1.1434564              0.7443083
SP   1   1.00
      0.1687144              1.0000000              1.0000000
D    1   1.00
      1.2520000              1.0000000
D    1   1.00
      0.3130000              1.0000000
F    1   1.00
      0.8000000              1.0000000
****
N     0
S    6   1.00
   4173.5110000              0.0018348
    627.4579000              0.0139950
    142.9021000              0.0685870
     40.2343300              0.2322410
     12.8202100              0.4690700
      4.3904370              0.3604550
SP   3   1.00
     11.6263580             -0.1149610              0.0675800
      2.7162800             -0.1691180              0.3239070
      0.7722180              1.1458520              0.7408950
SP   1   1.00
      0.2120313              1.0000000              1.0000000
D    1   1.00
      1.8260000              1.0000000
D    1   1.00
      0.4565000              1.0000000
F    1   1.00
      1.0000000              1.0000000
****
O     0
S    6   1.00
   5484.6717000              0.0018311
    825.2349500              0.0139501
    188.0469600              0.0684451
     52.9645000              0.2327143
     16.8975700              0.4701930
      5.7996353              0.3585209
SP   3   1.00
     15.5396160             -0.1107775              0.0708743
      3.5999336             -0.1480263              0.3397528
      1.0137618              1.1307670              0.7271586
SP   1   1.00
      0.2700058              1.0000000              1.0000000
D    1   1.00
      2.5840000              1.0000000
D    1   1.00
      0.6460000              1.0000000
F    1   1.00
      1.4000000              1.0000000
****
F     0
S    6   1.00
   7001.7130900              0.0018196169
   1051.3660900              0.0139160796
    239.2856900              0.0684053245
     67.3974453              0.233185760
     21.5199573              0.471267439
      7.40310130             0.356618546
SP   3   1.00
     20.8479528             -0.108506975            0.0716287243
      4.80830834            -0.146451658            0.3459121030
      1.34406986             1.128688580            0.7224699570
SP   1   1.00
      0.358151393            1.0000000              1.0000000
D    1   1.00
      3.5000000              1.0000000
D    1   1.00
      0.8750000              1.0000000
F    1   1.00
      1.8500000              1.0000000
****
Al     0
S    6   1.00
  13983.1000000              0.00194267
   2098.7500000              0.0148599
    477.7050000              0.0728494
    134.3600000              0.2468300
     42.8709000              0.4872580
     14.5189000              0.3234960
SP   6   1.00
    239.6680000             -0.00292619             0.00460285
     57.4419000             -0.0374080              0.0331990
     18.2859000             -0.1144870              0.1362820
      6.5991400              0.1156350              0.3304760
      2.4904900              0.6125950              0.4491460
      0.9445400              0.3937990              0.2657040
SP   3   1.00
      1.2779000             -0.2276060             -0.0175130
      0.3975900              0.00144583             0.2445330
      0.1600950              1.0927900              0.8049340
SP   1   1.00
      0.0556577              1.0000000              1.0000000
D    1   1.00
      0.6500000              1.0000000
D    1   1.00
      0.1625000              1.0000000
F    1   1.00
      0.2500000              1.0000000
****
Si     0
S    6   1.00
  16115.9000000              0.00195948
   2425.5800000              0.01492880
    553.8670000              0.07284780
    156.3400000              0.24613000
     50.0683000              0.48591400
     17.0178000              0.32500200
SP   6   1.00
    292.7180000             -0.00278094             0.00443826
     69.8731000             -0.03571460             0.03266790
     22.3363000             -0.11498500             0.13472100
      8.1503900              0.09356340             0.32867800
      3.1345800              0.60301700             0.44964000
      1.2254300              0.41895900             0.26137200
SP   3   1.00
      1.7273800             -0.24463000            -0.01779510
      0.5729220              0.00431572             0.25353900
      0.2221920              1.09818000             0.80066900
SP   1   1.00
      0.0778369              1.00000000             1.00000000
D    1   1.00
      0.9000000              1.0000000
D    1   1.00
      0.2250000              1.0000000
F    1   1.00
      0.3200000              1.0000000
****
P     0
S    6   1.00
  19413.3000000              0.0018516
   2909.4200000              0.0142062
    661.3640000              0.0699995
    185.7590000              0.2400790
     59.1943000              0.4847620
     20.0310000              0.3352000
SP   6   1.00
    339.4780000             -0.00278217             0.00456462
     81.0101000             -0.0360499              0.03369360
     25.8780000             -0.1166310              0.13975500
      9.4522100              0.0968328              0.33936200
      3.6656600              0.6144180              0.45092100
      1.4674600              0.4037980              0.23858600
SP   3   1.00
      2.1562300             -0.2529230             -0.01776530
      0.7489970              0.0328517              0.27405800
      0.2831450              1.0812500              0.78542100
SP   1   1.00
      0.0998317              1.0000000              1.00000000
D    1   1.00
      1.1000000              1.0000000
D    1   1.00
      0.2750000              1.0000000
F    1   1.00
      0.4500000              1.0000000
****
S     0
S    6   1.00
  21917.1000000              0.0018690
   3301.4900000              0.0142300
    754.1460000              0.0696960
    212.7110000              0.2384870
     67.9896000              0.4833070
     23.0515000              0.3380740
SP   6   1.00
    423.7350000             -0.0023767              0.0040610
    100.7100000             -0.0316930              0.0306810
     32.1599000             -0.1133170              0.1304520
     11.8079000              0.0560900              0.3272050
      4.6311000              0.5922550              0.4528510
      1.8702500              0.4550060              0.2560420
SP   3   1.00
      2.6158400             -0.2503740             -0.0145110
      0.9221670              0.0669570              0.3102630
      0.3412870              1.0545100              0.7544830
SP   1   1.00
      0.1171670              1.0000000              1.0000000
D    1   1.00
      1.3000000              1.0000000
D    1   1.00
      0.3250000              1.0000000
F    1   1.00
      0.5500000              1.0000000
****
Cl     0
S    6   1.00
  25180.1000000              0.0018330
   3780.3500000              0.0140340
    860.4740000              0.0690970
    242.1450000              0.2374520
     77.3349000              0.4830340
     26.2470000              0.3398560
SP   6   1.00
    491.7650000             -0.0022974              0.0039894
    116.9840000             -0.0307140              0.0303180
     37.4153000             -0.1125280              0.1298800
     13.7834000              0.0450160              0.3279510
      5.4521500              0.5893530              0.4535270
      2.2258800              0.4652060              0.2521540
SP   3   1.00
      3.1864900             -0.2518300             -0.0142990
      1.1442700              0.0615890              0.3235720
      0.4203770              1.0601800              0.7435070
SP   1   1.00
      0.1426570              1.0000000              1.0000000
D    1   1.00
      1.5000000              1.0000000
D    1   1.00
      0.3750000              1.0000000
F    1   1.00
      0.7000000              1.0000000
****
}

set {
reference uhf
freeze_core true
e_convergence 10
d_convergence 10
dft_spherical_points 1202
dft_radial_points 99
}

e = energy('b3lyp')

print_out('Grab this energy {0}'.format(e))
--------------------------------------------------------------------------

    Molecular point group: cs

    Geometry (in Bohr), charge = 0, multiplicity = 2:

       Center              X                  Y                   Z               Mass
    ------------   -----------------  -----------------  -----------------  -----------------
         C           -0.324454950691     0.000424365387     0.000000000000    12.000000000000
         C            0.062272178809    -1.401409257313    -2.426267339400    12.000000000000
         C            0.059078847509     2.802195057187     0.000000000000    12.000000000000
         C            0.062272178809    -1.401409257313     2.426267339400    12.000000000000
         H            2.087818236109    -1.640736382013    -2.842321601700     1.007825032230
         H           -0.764528248891    -0.390094213913    -4.027976602600     1.007825032230
         H           -0.764926589391    -3.292757127413    -2.352218824400     1.007825032230
         H            2.087983924909     3.282227698087     0.000000000000     1.007825032230
         H           -0.763925626591     3.683659151787     1.676146810800     1.007825032230
         H           -0.763925626591     3.683659151787    -1.676146810800     1.007825032230
         H            2.087818236109    -1.640736382013     2.842321601700     1.007825032230
         H           -0.764926589391    -3.292757127413     2.352218824400     1.007825032230
         H           -0.764528248891    -0.390094213913     4.027976602600     1.007825032230

  Charge       = 0
  Multiplicity = 2
  Basis Set: ANONYMOUS58C989EF
    Blend: 6-31G_2DFP_
  Basis Set: (ANONYMOUS58C989EF AUX)
    Blend: DEF2-UNIVERSAL-JKFIT

    Orbital Energies [Eh]
    ---------------------

    Alpha Occupied:

       1Ap   -10.180355     2Ap   -10.167101     1App  -10.167060
       3Ap   -10.167023     4Ap    -0.797702     5Ap    -0.686182
       2App   -0.686116     6Ap    -0.530764     7Ap    -0.441295
       3App   -0.434561     8Ap    -0.434357     4App   -0.382901
       9Ap    -0.382603     5App   -0.363473    10Ap    -0.338059
       6App   -0.337891    11Ap    -0.168871

    Alpha Virtual:

      12Ap     0.076036    13Ap     0.134172     7App    0.134239
      14Ap     0.142496     8App    0.142621    15Ap     0.154673
      16Ap     0.178702     9App    0.178930    17Ap     0.203415
      10App    0.214581    11App    0.275890    18Ap     0.276002
      12App    0.398848    19Ap     0.399154    20Ap     0.403421
      13App    0.424201    21Ap     0.424298    22Ap     0.456357
      14App    0.495384    23Ap     0.495440    15App    0.512350
      24Ap     0.513923    25Ap     0.578568    16App    0.578740
      26Ap     0.591711    17App    0.591958    27Ap     0.602803
      28Ap     0.624699    18App    0.631524    29Ap     0.636050
      19App    0.636259    30Ap     0.662968    20App    0.663306
      21App    0.683788    31Ap     0.684085    32Ap     0.734910
      22App    0.825490    33Ap     0.825521    23App    0.853575
      34Ap     0.914866    24App    0.914902    25App    0.943905
      35Ap     0.945409    36Ap     0.961501    26App    0.961638
      37Ap     1.002724    38Ap     1.127549    27App    1.127767
      39Ap     1.142808    40Ap     1.162614    28App    1.162824
      41Ap     1.223404    42Ap     1.274367    29App    1.274657
      43Ap     1.279144    44Ap     1.323823    30App    1.324330
      45Ap     1.356401    31App    1.365425    46Ap     1.366046
      32App    1.392641    47Ap     1.404193    33App    1.404452
      48Ap     1.416988    34App    1.417544    35App    1.427296
      36App    1.490895    49Ap     1.499395    50Ap     1.542719
      37App    1.542805    38App    1.574919    51Ap     1.575225
      52Ap     1.669764    53Ap     1.739137    39App    1.739969
      54Ap     1.768473    40App    1.830920    55Ap     1.831310
      41App    1.971634    56Ap     2.017518    57Ap     2.018579
      42App    2.018819    58Ap     2.051788    43App    2.052534
      59Ap     2.738863    44App    2.738941    60Ap     2.790700
      45App    2.810911    46App    2.889526    61Ap     2.890060
      62Ap     2.894694    47App    2.929014    63Ap     2.929067
      48App    2.958936    64Ap     2.964211    49App    2.964435
      65Ap     3.033529    50App    3.071627    66Ap     3.071884
      51App    3.084715    67Ap     3.168724    52App    3.168976
      68Ap     3.180429    69Ap     3.285687    53App    3.285751
      70Ap     3.325900    54App    3.326206    71Ap     3.375905
      55App    3.490336    72Ap     3.490970    56App    3.513740
      73Ap     3.525152    74Ap     3.567752    57App    3.567950
      58App    3.574332    75Ap     3.666143    59App    3.666745
      76Ap     3.678554    60App    3.694615    77Ap     3.694670
      78Ap     3.775589    61App    3.775707    79Ap     3.790433
      62App    3.912046    80Ap     3.912205    81Ap     4.035573
      63App    4.111177    82Ap     4.111327    64App    4.148296
      83Ap     4.148419    84Ap     4.173297    85Ap     4.201983
      65App    4.202447    86Ap     4.203144    66App    4.210350
      67App    4.315219    87Ap     4.316092    68App    4.357807
      69App    4.424844    88Ap     4.425077    70App    4.442431
      89Ap     4.514956    71App    4.517076    72App    4.577095
      90Ap     4.577534    91Ap     4.616994    92Ap     4.709163
      93Ap     4.773707    73App    4.774724    74App    4.837927
      94Ap     4.962344    95Ap     5.002608    75App    5.003508
      96Ap     5.227698    97Ap     5.246844    76App    5.246889
      77App    5.354674    98Ap     5.355185    78App    5.479084

    Beta Occupied:

       1Ap   -10.167857     1App  -10.167811     2Ap   -10.167792
       3Ap   -10.166527     4Ap    -0.781023     5Ap    -0.683987
       2App   -0.683920     6Ap    -0.511739     3App   -0.430945
       7Ap    -0.430734     8Ap    -0.421985     4App   -0.377006
       9Ap    -0.376689     5App   -0.362464    10Ap    -0.333180
       6App   -0.333009

    Beta Virtual:

      11Ap    -0.025576    12Ap     0.077049    13Ap     0.135055
       7App    0.135105    14Ap     0.144360     8App    0.144477
      15Ap     0.163083    16Ap     0.182378     9App    0.182611
      10App    0.214809    17Ap     0.218837    11App    0.282251
      18Ap     0.282359    12App    0.400011    19Ap     0.400322
      20Ap     0.419844    13App    0.427015    21Ap     0.427118
      22Ap     0.468187    14App    0.497634    23Ap     0.497683
      15App    0.514080    24Ap     0.556353    25Ap     0.584103
      16App    0.584266    26Ap     0.597910    17App    0.598167
      27Ap     0.610207    28Ap     0.628072    18App    0.631674
      29Ap     0.639343    19App    0.639553    30Ap     0.666523
      20App    0.666831    21App    0.686440    31Ap     0.686741
      32Ap     0.757469    22App    0.830646    33Ap     0.830671
      23App    0.854925    34Ap     0.922793    24App    0.922826
      25App    0.945742    35Ap     0.954256    36Ap     0.966826
      26App    0.966978    37Ap     1.007935    38Ap     1.131538
      27App    1.131831    39Ap     1.156407    40Ap     1.167742
      28App    1.167855    41Ap     1.232272    42Ap     1.279942
      29App    1.280240    43Ap     1.284830    44Ap     1.328763
      30App    1.329292    45Ap     1.365876    31App    1.370674
      46Ap     1.371297    32App    1.393683    47Ap     1.407631
      33App    1.407915    48Ap     1.422108    34App    1.422631
      35App    1.427561    36App    1.491954    49Ap     1.509861
      37App    1.547151    50Ap     1.547199    38App    1.582831
      51Ap     1.583036    52Ap     1.674608    53Ap     1.744905
      39App    1.745722    54Ap     1.779238    40App    1.834777
      55Ap     1.835167    41App    1.972486    56Ap     2.023931
      42App    2.025213    57Ap     2.039878    58Ap     2.058542
      43App    2.059237    59Ap     2.747193    44App    2.747261
      45App    2.811318    60Ap     2.815831    46App    2.902289
      61Ap     2.902809    62Ap     2.924416    47App    2.931482
      63Ap     2.931528    48App    2.959994    64Ap     2.968722
      49App    2.968937    65Ap     3.041473    50App    3.081547
      66Ap     3.081800    51App    3.086540    67Ap     3.184499
      52App    3.184716    68Ap     3.188095    69Ap     3.290519
      53App    3.290562    70Ap     3.329714    54App    3.330049
      71Ap     3.383750    55App    3.493000    72Ap     3.493632
      56App    3.512096    73Ap     3.528235    57App    3.574202
      74Ap     3.581212    58App    3.581288    75Ap     3.671042
      59App    3.671525    76Ap     3.691907    77Ap     3.725983
      60App    3.726247    78Ap     3.780063    61App    3.780158
      79Ap     3.818953    62App    3.921894    80Ap     3.922084
      81Ap     4.046407    63App    4.117954    82Ap     4.118002
      64App    4.155539    83Ap     4.155748    84Ap     4.187394
      85Ap     4.208027    65App    4.208422    86Ap     4.210996
      66App    4.214790    67App    4.322618    87Ap     4.323542
      68App    4.361149    69App    4.433062    88Ap     4.433276
      70App    4.445335    89Ap     4.522764    71App    4.524875
      72App    4.587689    90Ap     4.588100    91Ap     4.624263
      92Ap     4.719401    93Ap     4.780693    73App    4.781672
      74App    4.840840    94Ap     4.967142    95Ap     5.006649
      75App    5.007513    96Ap     5.233428    97Ap     5.248624
      76App    5.248669    77App    5.361154    98Ap     5.361663
      78App    5.481400

    Final Occupation by Irrep:
             Ap   App
    DOCC [    10,    6 ]
    SOCC [     1,    0 ]

  @DF-UKS Final Energy:  -157.81306095677201

   => Energetics <=

    Nuclear Repulsion Energy =            125.3830124298996367
    One-Electron Energy =                -458.7262332347809206
    Two-Electron Energy =                 195.8369570695312802
    DFT Exchange-Correlation Energy =     -20.3067972214220021
    Empirical Dispersion Energy =           0.0000000000000000
    VV10 Nonlocal Energy =                  0.0000000000000000
    Total Energy =                       -157.8130609567720057

  UHF NO Occupations:
  HONO-2 :    9 Ap 1.9996022
  HONO-1 :   10 Ap 1.9989785
  HONO-0 :   11 Ap 1.0000000
  LUNO+0 :   12 Ap 0.0010215
  LUNO+1 :   13 Ap 0.0003978
  LUNO+2 :    7App 0.0001980
  LUNO+3 :   14 Ap 0.0001977

Computation Completed

Properties will be evaluated at   0.000000,   0.000000,   0.000000 [a0]

Properties computed using the SCF density matrix

  Nuclear Dipole Moment: [e a0]
     X:     0.8319      Y:     0.0012      Z:     0.0000

  Electronic Dipole Moment: [e a0]
     X:    -0.7535      Y:    -0.0011      Z:     0.0000

  Dipole Moment: [e a0]
     X:     0.0783      Y:     0.0001      Z:     0.0000     Total:     0.0783

  Dipole Moment: [D]
     X:     0.1991      Y:     0.0003      Z:     0.0000     Total:     0.1991

*** tstop() called on n083 at Fri Nov  5 12:37:38 2021
Module time:
	user time   =     498.20 seconds =       8.30 minutes
	system time =       4.46 seconds =       0.07 minutes
	total time  =        126 seconds =       2.10 minutes
Total time:
	user time   =     498.20 seconds =       8.30 minutes
	system time =       4.46 seconds =       0.07 minutes
	total time  =        126 seconds =       2.10 minutes
Grab this energy -157.813060956772
    Psi4 stopped on: Friday, 05 November 2021 12:37PM
    Psi4 wall time for execution: 0:02:06.39

*** Psi4 exiting successfully. Buy a developer a beer!
