                               Psi4 1.4a2.dev629

  ==> Input File <==

--------------------------------------------------------------------------
import os
memory 14 GB

molecule {
 C   -0.3247918878    0.0002525362    0.0000000000
 C    0.0630225038   -1.4014030507   -2.4259615438
 C    0.0598258031    2.8016707888   -0.0000000000
 C    0.0630225038   -1.4014030507    2.4259615438
 H    2.0867883071   -1.6439447821   -2.8475798363
 H   -0.7657705779   -0.3882105979   -4.0254286383
 H   -0.7661696802   -3.2917475454   -2.3491650298
 H    2.0869510348    3.2881371823    0.0000000000
 H   -0.7651669663    3.6802635657    1.6766535590
 H   -0.7651669663    3.6802635657   -1.6766535590
 H    2.0867883071   -1.6439447821    2.8475798363
 H   -0.7661696802   -3.2917475454    2.3491650298
 H   -0.7657705779   -0.3882105979    4.0254286383
units bohr
0 2
}

basis {

assign 6-31g_2dfp_

[ 6-31g_2dfp_ ]

spherical

!----------------------------------------------------------------------
! Basis Set Exchange
! Version v0.8.13
! https://www.basissetexchange.org
!----------------------------------------------------------------------
!   Basis set: 6-31G(2df,p)
! Description: 6-31G(2df,p)
!        Role: orbital
!     Version: 0  (Data from the original Basis Set Exchange)
!----------------------------------------------------------------------

****
H     0
S    3   1.00
     18.7311370              0.03349460
      2.8253937              0.23472695
      0.6401217              0.81375733
S    1   1.00
      0.1612778              1.00000000
P    1   1.00
      1.5000000              1.0000000
P    1   1.00
      0.3750000              1.0000000
****
B     0
S    6   1.00
   2068.8823000              0.0018663
    310.6495700              0.0142515
     70.6830330              0.0695516
     19.8610800              0.2325729
      6.2993048              0.4670787
      2.1270270              0.3634314
SP   3   1.00
      4.7279710             -0.1303938              0.0745976
      1.1903377             -0.1307889              0.3078467
      0.3594117              1.1309444              0.7434568
SP   1   1.00
      0.1267512              1.0000000              1.0000000
D    1   1.00
      0.8020000              1.0000000
D    1   1.00
      0.2005000              1.0000000
F    1   1.00
      0.5000000              1.0000000
****
C     0
S    6   1.00
   3047.5249000              0.0018347
    457.3695100              0.0140373
    103.9486900              0.0688426
     29.2101550              0.2321844
      9.2866630              0.4679413
      3.1639270              0.3623120
SP   3   1.00
      7.8682724             -0.1193324              0.0689991
      1.8812885             -0.1608542              0.3164240
      0.5442493              1.1434564              0.7443083
SP   1   1.00
      0.1687144              1.0000000              1.0000000
D    1   1.00
      1.2520000              1.0000000
D    1   1.00
      0.3130000              1.0000000
F    1   1.00
      0.8000000              1.0000000
****
N     0
S    6   1.00
   4173.5110000              0.0018348
    627.4579000              0.0139950
    142.9021000              0.0685870
     40.2343300              0.2322410
     12.8202100              0.4690700
      4.3904370              0.3604550
SP   3   1.00
     11.6263580             -0.1149610              0.0675800
      2.7162800             -0.1691180              0.3239070
      0.7722180              1.1458520              0.7408950
SP   1   1.00
      0.2120313              1.0000000              1.0000000
D    1   1.00
      1.8260000              1.0000000
D    1   1.00
      0.4565000              1.0000000
F    1   1.00
      1.0000000              1.0000000
****
O     0
S    6   1.00
   5484.6717000              0.0018311
    825.2349500              0.0139501
    188.0469600              0.0684451
     52.9645000              0.2327143
     16.8975700              0.4701930
      5.7996353              0.3585209
SP   3   1.00
     15.5396160             -0.1107775              0.0708743
      3.5999336             -0.1480263              0.3397528
      1.0137618              1.1307670              0.7271586
SP   1   1.00
      0.2700058              1.0000000              1.0000000
D    1   1.00
      2.5840000              1.0000000
D    1   1.00
      0.6460000              1.0000000
F    1   1.00
      1.4000000              1.0000000
****
F     0
S    6   1.00
   7001.7130900              0.0018196169
   1051.3660900              0.0139160796
    239.2856900              0.0684053245
     67.3974453              0.233185760
     21.5199573              0.471267439
      7.40310130             0.356618546
SP   3   1.00
     20.8479528             -0.108506975            0.0716287243
      4.80830834            -0.146451658            0.3459121030
      1.34406986             1.128688580            0.7224699570
SP   1   1.00
      0.358151393            1.0000000              1.0000000
D    1   1.00
      3.5000000              1.0000000
D    1   1.00
      0.8750000              1.0000000
F    1   1.00
      1.8500000              1.0000000
****
Al     0
S    6   1.00
  13983.1000000              0.00194267
   2098.7500000              0.0148599
    477.7050000              0.0728494
    134.3600000              0.2468300
     42.8709000              0.4872580
     14.5189000              0.3234960
SP   6   1.00
    239.6680000             -0.00292619             0.00460285
     57.4419000             -0.0374080              0.0331990
     18.2859000             -0.1144870              0.1362820
      6.5991400              0.1156350              0.3304760
      2.4904900              0.6125950              0.4491460
      0.9445400              0.3937990              0.2657040
SP   3   1.00
      1.2779000             -0.2276060             -0.0175130
      0.3975900              0.00144583             0.2445330
      0.1600950              1.0927900              0.8049340
SP   1   1.00
      0.0556577              1.0000000              1.0000000
D    1   1.00
      0.6500000              1.0000000
D    1   1.00
      0.1625000              1.0000000
F    1   1.00
      0.2500000              1.0000000
****
Si     0
S    6   1.00
  16115.9000000              0.00195948
   2425.5800000              0.01492880
    553.8670000              0.07284780
    156.3400000              0.24613000
     50.0683000              0.48591400
     17.0178000              0.32500200
SP   6   1.00
    292.7180000             -0.00278094             0.00443826
     69.8731000             -0.03571460             0.03266790
     22.3363000             -0.11498500             0.13472100
      8.1503900              0.09356340             0.32867800
      3.1345800              0.60301700             0.44964000
      1.2254300              0.41895900             0.26137200
SP   3   1.00
      1.7273800             -0.24463000            -0.01779510
      0.5729220              0.00431572             0.25353900
      0.2221920              1.09818000             0.80066900
SP   1   1.00
      0.0778369              1.00000000             1.00000000
D    1   1.00
      0.9000000              1.0000000
D    1   1.00
      0.2250000              1.0000000
F    1   1.00
      0.3200000              1.0000000
****
P     0
S    6   1.00
  19413.3000000              0.0018516
   2909.4200000              0.0142062
    661.3640000              0.0699995
    185.7590000              0.2400790
     59.1943000              0.4847620
     20.0310000              0.3352000
SP   6   1.00
    339.4780000             -0.00278217             0.00456462
     81.0101000             -0.0360499              0.03369360
     25.8780000             -0.1166310              0.13975500
      9.4522100              0.0968328              0.33936200
      3.6656600              0.6144180              0.45092100
      1.4674600              0.4037980              0.23858600
SP   3   1.00
      2.1562300             -0.2529230             -0.01776530
      0.7489970              0.0328517              0.27405800
      0.2831450              1.0812500              0.78542100
SP   1   1.00
      0.0998317              1.0000000              1.00000000
D    1   1.00
      1.1000000              1.0000000
D    1   1.00
      0.2750000              1.0000000
F    1   1.00
      0.4500000              1.0000000
****
S     0
S    6   1.00
  21917.1000000              0.0018690
   3301.4900000              0.0142300
    754.1460000              0.0696960
    212.7110000              0.2384870
     67.9896000              0.4833070
     23.0515000              0.3380740
SP   6   1.00
    423.7350000             -0.0023767              0.0040610
    100.7100000             -0.0316930              0.0306810
     32.1599000             -0.1133170              0.1304520
     11.8079000              0.0560900              0.3272050
      4.6311000              0.5922550              0.4528510
      1.8702500              0.4550060              0.2560420
SP   3   1.00
      2.6158400             -0.2503740             -0.0145110
      0.9221670              0.0669570              0.3102630
      0.3412870              1.0545100              0.7544830
SP   1   1.00
      0.1171670              1.0000000              1.0000000
D    1   1.00
      1.3000000              1.0000000
D    1   1.00
      0.3250000              1.0000000
F    1   1.00
      0.5500000              1.0000000
****
Cl     0
S    6   1.00
  25180.1000000              0.0018330
   3780.3500000              0.0140340
    860.4740000              0.0690970
    242.1450000              0.2374520
     77.3349000              0.4830340
     26.2470000              0.3398560
SP   6   1.00
    491.7650000             -0.0022974              0.0039894
    116.9840000             -0.0307140              0.0303180
     37.4153000             -0.1125280              0.1298800
     13.7834000              0.0450160              0.3279510
      5.4521500              0.5893530              0.4535270
      2.2258800              0.4652060              0.2521540
SP   3   1.00
      3.1864900             -0.2518300             -0.0142990
      1.1442700              0.0615890              0.3235720
      0.4203770              1.0601800              0.7435070
SP   1   1.00
      0.1426570              1.0000000              1.0000000
D    1   1.00
      1.5000000              1.0000000
D    1   1.00
      0.3750000              1.0000000
F    1   1.00
      0.7000000              1.0000000
****
}

set {
reference uhf
freeze_core true
e_convergence 10
d_convergence 10
dft_spherical_points 1202
dft_radial_points 99
}

e = energy('b3lyp')

print_out('Grab this energy {0}'.format(e))
--------------------------------------------------------------------------

    Molecular point group: cs

    Geometry (in Bohr), charge = 0, multiplicity = 2:

       Center              X                  Y                   Z               Mass
    ------------   -----------------  -----------------  -----------------  -----------------
         C           -0.325007397487     0.000422994653     0.000000000000    12.000000000000
         C            0.062806994113    -1.401232592247    -2.425961543800    12.000000000000
         C            0.059610293413     2.801841247253     0.000000000000    12.000000000000
         C            0.062806994113    -1.401232592247     2.425961543800    12.000000000000
         H            2.086572797413    -1.643774323647    -2.847579836300     1.007825032230
         H           -0.765986087587    -0.388040139447    -4.025428638300     1.007825032230
         H           -0.766385189887    -3.291577086947    -2.349165029800     1.007825032230
         H            2.086735525113     3.288307640753     0.000000000000     1.007825032230
         H           -0.765382475987     3.680434024153     1.676653559000     1.007825032230
         H           -0.765382475987     3.680434024153    -1.676653559000     1.007825032230
         H            2.086572797413    -1.643774323647     2.847579836300     1.007825032230
         H           -0.766385189887    -3.291577086947     2.349165029800     1.007825032230
         H           -0.765986087587    -0.388040139447     4.025428638300     1.007825032230

  Charge       = 0
  Multiplicity = 2
  Basis Set: ANONYMOUSA5FC34BE
    Blend: 6-31G_2DFP_
  Basis Set: (ANONYMOUSA5FC34BE AUX)
    Blend: DEF2-UNIVERSAL-JKFIT

    Orbital Energies [Eh]
    ---------------------

    Alpha Occupied:

       1Ap   -10.180407     2Ap   -10.167046     1App  -10.167005
       3Ap   -10.166968     4Ap    -0.797750     5Ap    -0.686202
       2App   -0.686136     6Ap    -0.530782     7Ap    -0.441182
       3App   -0.434709     8Ap    -0.434505     4App   -0.382856
       9Ap    -0.382556     5App   -0.363486    10Ap    -0.337992
       6App   -0.337821    11Ap    -0.169144

    Alpha Virtual:

      12Ap     0.076076    13Ap     0.134119     7App    0.134186
      14Ap     0.142542     8App    0.142668    15Ap     0.154959
      16Ap     0.178733     9App    0.178961    17Ap     0.203573
      10App    0.214754    11App    0.275757    18Ap     0.275869
      12App    0.399054    19Ap     0.399361    20Ap     0.403268
      13App    0.424021    21Ap     0.424117    22Ap     0.456686
      14App    0.495335    23Ap     0.495393    15App    0.512206
      24Ap     0.513880    25Ap     0.578856    16App    0.579036
      26Ap     0.591539    17App    0.591781    27Ap     0.602790
      28Ap     0.624681    18App    0.631715    29Ap     0.635984
      19App    0.636194    30Ap     0.663403    20App    0.663741
      21App    0.683594    31Ap     0.683890    32Ap     0.734798
      22App    0.825337    33Ap     0.825367    23App    0.853918
      34Ap     0.914944    24App    0.914979    25App    0.944175
      35Ap     0.944662    36Ap     0.961239    26App    0.961377
      37Ap     1.003454    38Ap     1.128097    27App    1.128318
      39Ap     1.142236    40Ap     1.163598    28App    1.163802
      41Ap     1.223161    42Ap     1.274281    29App    1.274571
      43Ap     1.279599    44Ap     1.323857    30App    1.324359
      45Ap     1.356223    31App    1.365370    46Ap     1.365989
      32App    1.392460    47Ap     1.403981    33App    1.404217
      48Ap     1.417058    34App    1.417641    35App    1.427961
      36App    1.491311    49Ap     1.499473    50Ap     1.542832
      37App    1.542922    38App    1.574010    51Ap     1.574316
      52Ap     1.669557    53Ap     1.738758    39App    1.739590
      54Ap     1.768377    40App    1.830812    55Ap     1.831204
      41App    1.971465    56Ap     2.017252    57Ap     2.018769
      42App    2.019962    58Ap     2.052657    43App    2.053398
      59Ap     2.738248    44App    2.738328    60Ap     2.791122
      45App    2.811396    46App    2.889440    61Ap     2.889975
      62Ap     2.895260    47App    2.929489    63Ap     2.929544
      48App    2.958928    64Ap     2.964152    49App    2.964376
      65Ap     3.034357    50App    3.070307    66Ap     3.070567
      51App    3.084284    67Ap     3.168774    52App    3.169029
      68Ap     3.180555    69Ap     3.286080    53App    3.286139
      70Ap     3.327358    54App    3.327684    71Ap     3.375785
      55App    3.489614    72Ap     3.490257    56App    3.513838
      73Ap     3.525789    74Ap     3.568001    57App    3.568198
      58App    3.575758    75Ap     3.665514    59App    3.666117
      76Ap     3.679428    60App    3.694160    77Ap     3.694203
      78Ap     3.776474    61App    3.776587    79Ap     3.787850
      62App    3.912123    80Ap     3.912277    81Ap     4.034144
      63App    4.111053    82Ap     4.111228    64App    4.148040
      83Ap     4.148151    84Ap     4.173190    85Ap     4.202189
      86Ap     4.203274    65App    4.203512    66App    4.210901
      67App    4.315726    87Ap     4.316578    68App    4.359468
      69App    4.424177    88Ap     4.424415    70App    4.443159
      89Ap     4.516084    71App    4.518202    72App    4.578185
      90Ap     4.578616    91Ap     4.617033    92Ap     4.709770
      93Ap     4.773930    73App    4.774942    74App    4.835712
      94Ap     4.962960    95Ap     5.002641    75App    5.003534
      96Ap     5.227945    97Ap     5.246681    76App    5.246720
      77App    5.354970    98Ap     5.355490    78App    5.478982

    Beta Occupied:

       1Ap   -10.167801     1App  -10.167755     2Ap   -10.167737
       3Ap   -10.166580     4Ap    -0.781080     5Ap    -0.684003
       2App   -0.683936     6Ap    -0.511744     3App   -0.431075
       7Ap    -0.430863     8Ap    -0.421909     4App   -0.376961
       9Ap    -0.376642     5App   -0.362469    10Ap    -0.333120
       6App   -0.332947

    Beta Virtual:

      11Ap    -0.025843    12Ap     0.077080    13Ap     0.135007
       7App    0.135057    14Ap     0.144420     8App    0.144536
      15Ap     0.163407    16Ap     0.182403     9App    0.182635
      10App    0.214984    17Ap     0.218934    11App    0.282120
      18Ap     0.282227    12App    0.400221    19Ap     0.400534
      20Ap     0.419685    13App    0.426831    21Ap     0.426934
      22Ap     0.468608    14App    0.497604    23Ap     0.497654
      15App    0.513937    24Ap     0.556225    25Ap     0.584398
      16App    0.584567    26Ap     0.597720    17App    0.597972
      27Ap     0.610188    28Ap     0.628078    18App    0.631872
      29Ap     0.639274    19App    0.639485    30Ap     0.666984
      20App    0.667292    21App    0.686221    31Ap     0.686522
      32Ap     0.757342    22App    0.830512    33Ap     0.830537
      23App    0.855267    34Ap     0.922928    24App    0.922959
      25App    0.946007    35Ap     0.953585    36Ap     0.966504
      26App    0.966657    37Ap     1.008713    38Ap     1.132095
      27App    1.132390    39Ap     1.155585    40Ap     1.168716
      28App    1.168825    41Ap     1.232130    42Ap     1.279890
      29App    1.280189    43Ap     1.285359    44Ap     1.328844
      30App    1.329367    45Ap     1.365614    31App    1.370608
      46Ap     1.371229    32App    1.393511    47Ap     1.407433
      33App    1.407696    48Ap     1.422104    34App    1.422653
      35App    1.428234    36App    1.492357    49Ap     1.509923
      37App    1.547259    50Ap     1.547308    38App    1.581935
      51Ap     1.582136    52Ap     1.674420    53Ap     1.744526
      39App    1.745342    54Ap     1.779136    40App    1.834659
      55Ap     1.835051    41App    1.972323    56Ap     2.025098
      42App    2.026380    57Ap     2.038683    58Ap     2.059417
      43App    2.060105    59Ap     2.746589    44App    2.746658
      45App    2.811816    60Ap     2.816239    46App    2.902180
      61Ap     2.902701    62Ap     2.924953    47App    2.931959
      63Ap     2.932007    48App    2.959990    64Ap     2.968711
      49App    2.968927    65Ap     3.042251    50App    3.080254
      66Ap     3.080509    51App    3.086104    67Ap     3.184442
      52App    3.184662    68Ap     3.188289    69Ap     3.290848
      53App    3.290889    70Ap     3.331157    54App    3.331510
      71Ap     3.383613    55App    3.492363    72Ap     3.493004
      56App    3.512206    73Ap     3.528844    57App    3.575619
      74Ap     3.581449    58App    3.581520    75Ap     3.670296
      59App    3.670787    76Ap     3.692721    77Ap     3.725681
      60App    3.725958    78Ap     3.781057    61App    3.781141
      79Ap     3.816387    62App    3.921887    80Ap     3.922071
      81Ap     4.045060    63App    4.117905    82Ap     4.117978
      64App    4.155217    83Ap     4.155416    84Ap     4.187211
      85Ap     4.209032    65App    4.209453    86Ap     4.210348
      66App    4.215351    67App    4.323161    87Ap     4.324064
      68App    4.362832    69App    4.432360    88Ap     4.432578
      70App    4.446043    89Ap     4.523862    71App    4.525970
      72App    4.588836    90Ap     4.589237    91Ap     4.624217
      92Ap     4.720140    93Ap     4.780917    73App    4.781891
      74App    4.838640    94Ap     4.967752    95Ap     5.006684
      75App    5.007542    96Ap     5.233662    97Ap     5.248465
      76App    5.248505    77App    5.361460    98Ap     5.361977
      78App    5.481310

    Final Occupation by Irrep:
             Ap   App
    DOCC [    10,    6 ]
    SOCC [     1,    0 ]

  @DF-UKS Final Energy:  -157.81306281020977

   => Energetics <=

    Nuclear Repulsion Energy =            125.3921869424027591
    One-Electron Energy =                -458.7442110201814103
    Two-Electron Energy =                 195.8460345797812465
    DFT Exchange-Correlation Energy =     -20.3070733122123634
    Empirical Dispersion Energy =           0.0000000000000000
    VV10 Nonlocal Energy =                  0.0000000000000000
    Total Energy =                       -157.8130628102097717

  UHF NO Occupations:
  HONO-2 :    9 Ap 1.9996024
  HONO-1 :   10 Ap 1.9989820
  HONO-0 :   11 Ap 1.0000000
  LUNO+0 :   12 Ap 0.0010180
  LUNO+1 :   13 Ap 0.0003976
  LUNO+2 :    7App 0.0001978
  LUNO+3 :   14 Ap 0.0001975

Computation Completed

Properties will be evaluated at   0.000000,   0.000000,   0.000000 [a0]

Properties computed using the SCF density matrix

  Nuclear Dipole Moment: [e a0]
     X:     0.8257      Y:     0.0012      Z:    -0.0000

  Electronic Dipole Moment: [e a0]
     X:    -0.7470      Y:    -0.0011      Z:     0.0000

  Dipole Moment: [e a0]
     X:     0.0787      Y:     0.0001      Z:    -0.0000     Total:     0.0787

  Dipole Moment: [D]
     X:     0.2000      Y:     0.0003      Z:    -0.0000     Total:     0.2000

*** tstop() called on n091 at Fri Nov  5 11:28:52 2021
Module time:
	user time   =     495.14 seconds =       8.25 minutes
	system time =       4.55 seconds =       0.08 minutes
	total time  =        125 seconds =       2.08 minutes
Total time:
	user time   =     495.14 seconds =       8.25 minutes
	system time =       4.55 seconds =       0.08 minutes
	total time  =        125 seconds =       2.08 minutes
Grab this energy -157.81306281020977
    Psi4 stopped on: Friday, 05 November 2021 11:28AM
    Psi4 wall time for execution: 0:02:05.67

*** Psi4 exiting successfully. Buy a developer a beer!
