                               Psi4 1.4a2.dev629

  ==> Input File <==

--------------------------------------------------------------------------
import os
memory 14 GB

molecule {
 C   -0.3233399138    0.0002437909    0.0004937262
 C    0.0616122326   -1.4006050742   -2.4256098237
 C    0.0599098993    2.8018825711    0.0000398019
 C    0.0617800143   -1.4013116668    2.4269162661
 H    2.0921788891   -1.6467914920   -2.8489144115
 H   -0.7655854876   -0.3835662262   -4.0256290664
 H   -0.7675132533   -3.2942930985   -2.3473928842
 H    2.0835469086    3.2820136566   -0.0000278730
 H   -0.7673748656    3.6830923055    1.6762826001
 H   -0.7671919171    3.6840818204   -1.6769394876
 H    2.0849362251   -1.6472357737    2.8496418880
 H   -0.7636530416   -3.2883114801    2.3503781624
 H   -0.7619135668   -0.3892236465    4.0207611017
units bohr
0 2
}

basis {

assign 6-31g_2dfp_

[ 6-31g_2dfp_ ]

spherical

!----------------------------------------------------------------------
! Basis Set Exchange
! Version v0.8.13
! https://www.basissetexchange.org
!----------------------------------------------------------------------
!   Basis set: 6-31G(2df,p)
! Description: 6-31G(2df,p)
!        Role: orbital
!     Version: 0  (Data from the original Basis Set Exchange)
!----------------------------------------------------------------------

****
H     0
S    3   1.00
     18.7311370              0.03349460
      2.8253937              0.23472695
      0.6401217              0.81375733
S    1   1.00
      0.1612778              1.00000000
P    1   1.00
      1.5000000              1.0000000
P    1   1.00
      0.3750000              1.0000000
****
B     0
S    6   1.00
   2068.8823000              0.0018663
    310.6495700              0.0142515
     70.6830330              0.0695516
     19.8610800              0.2325729
      6.2993048              0.4670787
      2.1270270              0.3634314
SP   3   1.00
      4.7279710             -0.1303938              0.0745976
      1.1903377             -0.1307889              0.3078467
      0.3594117              1.1309444              0.7434568
SP   1   1.00
      0.1267512              1.0000000              1.0000000
D    1   1.00
      0.8020000              1.0000000
D    1   1.00
      0.2005000              1.0000000
F    1   1.00
      0.5000000              1.0000000
****
C     0
S    6   1.00
   3047.5249000              0.0018347
    457.3695100              0.0140373
    103.9486900              0.0688426
     29.2101550              0.2321844
      9.2866630              0.4679413
      3.1639270              0.3623120
SP   3   1.00
      7.8682724             -0.1193324              0.0689991
      1.8812885             -0.1608542              0.3164240
      0.5442493              1.1434564              0.7443083
SP   1   1.00
      0.1687144              1.0000000              1.0000000
D    1   1.00
      1.2520000              1.0000000
D    1   1.00
      0.3130000              1.0000000
F    1   1.00
      0.8000000              1.0000000
****
N     0
S    6   1.00
   4173.5110000              0.0018348
    627.4579000              0.0139950
    142.9021000              0.0685870
     40.2343300              0.2322410
     12.8202100              0.4690700
      4.3904370              0.3604550
SP   3   1.00
     11.6263580             -0.1149610              0.0675800
      2.7162800             -0.1691180              0.3239070
      0.7722180              1.1458520              0.7408950
SP   1   1.00
      0.2120313              1.0000000              1.0000000
D    1   1.00
      1.8260000              1.0000000
D    1   1.00
      0.4565000              1.0000000
F    1   1.00
      1.0000000              1.0000000
****
O     0
S    6   1.00
   5484.6717000              0.0018311
    825.2349500              0.0139501
    188.0469600              0.0684451
     52.9645000              0.2327143
     16.8975700              0.4701930
      5.7996353              0.3585209
SP   3   1.00
     15.5396160             -0.1107775              0.0708743
      3.5999336             -0.1480263              0.3397528
      1.0137618              1.1307670              0.7271586
SP   1   1.00
      0.2700058              1.0000000              1.0000000
D    1   1.00
      2.5840000              1.0000000
D    1   1.00
      0.6460000              1.0000000
F    1   1.00
      1.4000000              1.0000000
****
F     0
S    6   1.00
   7001.7130900              0.0018196169
   1051.3660900              0.0139160796
    239.2856900              0.0684053245
     67.3974453              0.233185760
     21.5199573              0.471267439
      7.40310130             0.356618546
SP   3   1.00
     20.8479528             -0.108506975            0.0716287243
      4.80830834            -0.146451658            0.3459121030
      1.34406986             1.128688580            0.7224699570
SP   1   1.00
      0.358151393            1.0000000              1.0000000
D    1   1.00
      3.5000000              1.0000000
D    1   1.00
      0.8750000              1.0000000
F    1   1.00
      1.8500000              1.0000000
****
Al     0
S    6   1.00
  13983.1000000              0.00194267
   2098.7500000              0.0148599
    477.7050000              0.0728494
    134.3600000              0.2468300
     42.8709000              0.4872580
     14.5189000              0.3234960
SP   6   1.00
    239.6680000             -0.00292619             0.00460285
     57.4419000             -0.0374080              0.0331990
     18.2859000             -0.1144870              0.1362820
      6.5991400              0.1156350              0.3304760
      2.4904900              0.6125950              0.4491460
      0.9445400              0.3937990              0.2657040
SP   3   1.00
      1.2779000             -0.2276060             -0.0175130
      0.3975900              0.00144583             0.2445330
      0.1600950              1.0927900              0.8049340
SP   1   1.00
      0.0556577              1.0000000              1.0000000
D    1   1.00
      0.6500000              1.0000000
D    1   1.00
      0.1625000              1.0000000
F    1   1.00
      0.2500000              1.0000000
****
Si     0
S    6   1.00
  16115.9000000              0.00195948
   2425.5800000              0.01492880
    553.8670000              0.07284780
    156.3400000              0.24613000
     50.0683000              0.48591400
     17.0178000              0.32500200
SP   6   1.00
    292.7180000             -0.00278094             0.00443826
     69.8731000             -0.03571460             0.03266790
     22.3363000             -0.11498500             0.13472100
      8.1503900              0.09356340             0.32867800
      3.1345800              0.60301700             0.44964000
      1.2254300              0.41895900             0.26137200
SP   3   1.00
      1.7273800             -0.24463000            -0.01779510
      0.5729220              0.00431572             0.25353900
      0.2221920              1.09818000             0.80066900
SP   1   1.00
      0.0778369              1.00000000             1.00000000
D    1   1.00
      0.9000000              1.0000000
D    1   1.00
      0.2250000              1.0000000
F    1   1.00
      0.3200000              1.0000000
****
P     0
S    6   1.00
  19413.3000000              0.0018516
   2909.4200000              0.0142062
    661.3640000              0.0699995
    185.7590000              0.2400790
     59.1943000              0.4847620
     20.0310000              0.3352000
SP   6   1.00
    339.4780000             -0.00278217             0.00456462
     81.0101000             -0.0360499              0.03369360
     25.8780000             -0.1166310              0.13975500
      9.4522100              0.0968328              0.33936200
      3.6656600              0.6144180              0.45092100
      1.4674600              0.4037980              0.23858600
SP   3   1.00
      2.1562300             -0.2529230             -0.01776530
      0.7489970              0.0328517              0.27405800
      0.2831450              1.0812500              0.78542100
SP   1   1.00
      0.0998317              1.0000000              1.00000000
D    1   1.00
      1.1000000              1.0000000
D    1   1.00
      0.2750000              1.0000000
F    1   1.00
      0.4500000              1.0000000
****
S     0
S    6   1.00
  21917.1000000              0.0018690
   3301.4900000              0.0142300
    754.1460000              0.0696960
    212.7110000              0.2384870
     67.9896000              0.4833070
     23.0515000              0.3380740
SP   6   1.00
    423.7350000             -0.0023767              0.0040610
    100.7100000             -0.0316930              0.0306810
     32.1599000             -0.1133170              0.1304520
     11.8079000              0.0560900              0.3272050
      4.6311000              0.5922550              0.4528510
      1.8702500              0.4550060              0.2560420
SP   3   1.00
      2.6158400             -0.2503740             -0.0145110
      0.9221670              0.0669570              0.3102630
      0.3412870              1.0545100              0.7544830
SP   1   1.00
      0.1171670              1.0000000              1.0000000
D    1   1.00
      1.3000000              1.0000000
D    1   1.00
      0.3250000              1.0000000
F    1   1.00
      0.5500000              1.0000000
****
Cl     0
S    6   1.00
  25180.1000000              0.0018330
   3780.3500000              0.0140340
    860.4740000              0.0690970
    242.1450000              0.2374520
     77.3349000              0.4830340
     26.2470000              0.3398560
SP   6   1.00
    491.7650000             -0.0022974              0.0039894
    116.9840000             -0.0307140              0.0303180
     37.4153000             -0.1125280              0.1298800
     13.7834000              0.0450160              0.3279510
      5.4521500              0.5893530              0.4535270
      2.2258800              0.4652060              0.2521540
SP   3   1.00
      3.1864900             -0.2518300             -0.0142990
      1.1442700              0.0615890              0.3235720
      0.4203770              1.0601800              0.7435070
SP   1   1.00
      0.1426570              1.0000000              1.0000000
D    1   1.00
      1.5000000              1.0000000
D    1   1.00
      0.3750000              1.0000000
F    1   1.00
      0.7000000              1.0000000
****
}

set {
reference uhf
freeze_core true
e_convergence 10
d_convergence 10
dft_spherical_points 1202
dft_radial_points 99
}

e = energy('b3lyp')

print_out('Grab this energy {0}'.format(e))
--------------------------------------------------------------------------

    Molecular point group: c1

    Geometry (in Bohr), charge = 0, multiplicity = 2:

       Center              X                  Y                   Z               Mass
    ------------   -----------------  -----------------  -----------------  -----------------
         C           -0.323340340855     0.000203845746     0.000139334629    12.000000000000
         C            0.061611805545    -1.400645019354    -2.425964215271    12.000000000000
         C            0.059909472245     2.801842625946    -0.000314589671    12.000000000000
         C            0.061779587245    -1.401351611954     2.426561874529    12.000000000000
         H            2.092178462045    -1.646831437154    -2.849268803071     1.007825032230
         H           -0.765585914655    -0.383606171354    -4.025983457971     1.007825032230
         H           -0.767513680355    -3.294333043654    -2.347747275771     1.007825032230
         H            2.083546481545     3.281973711446    -0.000382264571     1.007825032230
         H           -0.767375292655     3.683052360346     1.675928208529     1.007825032230
         H           -0.767192344155     3.684041875246    -1.677293879171     1.007825032230
         H            2.084935798045    -1.647275718854     2.849287496429     1.007825032230
         H           -0.763653468655    -3.288351425254     2.350023770829     1.007825032230
         H           -0.761913993855    -0.389263591654     4.020406710129     1.007825032230

  Charge       = 0
  Multiplicity = 2
  Basis Set: ANONYMOUSAD5E43B0
    Blend: 6-31G_2DFP_
  Basis Set: (ANONYMOUSAD5E43B0 AUX)
    Blend: DEF2-UNIVERSAL-JKFIT

    Orbital Energies [Eh]
    ---------------------

    Alpha Occupied:

       1A    -10.180343     2A    -10.167579     3A    -10.167049
       4A    -10.166417     5A     -0.797767     6A     -0.686512
       7A     -0.685865     8A     -0.530775     9A     -0.441126
      10A     -0.434795    11A     -0.434549    12A     -0.382916
      13A     -0.382281    14A     -0.363612    15A     -0.338154
      16A     -0.337843    17A     -0.168961

    Alpha Virtual:

      18A      0.076071    19A      0.134100    20A      0.134194
      21A      0.142405    22A      0.142862    23A      0.154876
      24A      0.178431    25A      0.179126    26A      0.203550
      27A      0.214805    28A      0.275935    29A      0.276035
      30A      0.399077    31A      0.399377    32A      0.403345
      33A      0.423957    34A      0.424238    35A      0.456593
      36A      0.495318    37A      0.495461    38A      0.512163
      39A      0.513980    40A      0.578627    41A      0.578990
      42A      0.591207    43A      0.592023    44A      0.602621
      45A      0.624767    46A      0.631678    47A      0.635803
      48A      0.636791    49A      0.663229    50A      0.663602
      51A      0.683522    52A      0.684197    53A      0.734993
      54A      0.824998    55A      0.825806    56A      0.853916
      57A      0.914706    58A      0.915344    59A      0.944113
      60A      0.944612    61A      0.961038    62A      0.961577
      63A      1.003453    64A      1.127582    65A      1.128634
      66A      1.142205    67A      1.163096    68A      1.163453
      69A      1.223325    70A      1.274277    71A      1.274688
      72A      1.279368    73A      1.323991    74A      1.324710
      75A      1.355962    76A      1.365807    77A      1.366314
      78A      1.392450    79A      1.403416    80A      1.404666
      81A      1.416627    82A      1.417571    83A      1.427930
      84A      1.491499    85A      1.499066    86A      1.542780
      87A      1.542899    88A      1.573897    89A      1.575018
      90A      1.669803    91A      1.739287    92A      1.739504
      93A      1.768341    94A      1.829767    95A      1.833102
      96A      1.971695    97A      2.018048    98A      2.019048
      99A      2.019286   100A      2.052203   101A      2.053132
     102A      2.738040   103A      2.738935   104A      2.790927
     105A      2.811431   106A      2.889568   107A      2.890265
     108A      2.895012   109A      2.929174   110A      2.929812
     111A      2.959002   112A      2.963824   113A      2.964951
     114A      3.034015   115A      3.070608   116A      3.071954
     117A      3.084383   118A      3.168518   119A      3.169049
     120A      3.180588   121A      3.285185   122A      3.285452
     123A      3.326283   124A      3.328051   125A      3.375610
     126A      3.488802   127A      3.491517   128A      3.514009
     129A      3.525349   130A      3.568244   131A      3.568345
     132A      3.575341   133A      3.665499   134A      3.667160
     135A      3.679659   136A      3.693371   137A      3.694906
     138A      3.776207   139A      3.777411   140A      3.789173
     141A      3.911757   142A      3.912685   143A      4.034431
     144A      4.110545   145A      4.112064   146A      4.146068
     147A      4.150066   148A      4.173317   149A      4.200980
     150A      4.202363   151A      4.205392   152A      4.211158
     153A      4.315245   154A      4.316669   155A      4.358948
     156A      4.424220   157A      4.424622   158A      4.443529
     159A      4.516168   160A      4.517450   161A      4.577833
     162A      4.578762   163A      4.617583   164A      4.709433
     165A      4.773987   166A      4.775222   167A      4.836883
     168A      4.962867   169A      5.002183   170A      5.003767
     171A      5.227860   172A      5.243081   173A      5.250519
     174A      5.352602   175A      5.358608   176A      5.479432

    Beta Occupied:

       1A    -10.168342     2A    -10.167804     3A    -10.167180
       4A    -10.166516     5A     -0.781093     6A     -0.684313
       7A     -0.683668     8A     -0.511746     9A     -0.431182
      10A     -0.430904    11A     -0.421825    12A     -0.377011
      13A     -0.376354    14A     -0.362595    15A     -0.333264
      16A     -0.332979

    Beta Virtual:

      17A     -0.025743    18A      0.077080    19A      0.134967
      20A      0.135108    21A      0.144313    22A      0.144694
      23A      0.163334    24A      0.182109    25A      0.182792
      26A      0.215035    27A      0.218932    28A      0.282279
      29A      0.282388    30A      0.400247    31A      0.400546
      32A      0.419791    33A      0.426765    34A      0.427052
      35A      0.468501    36A      0.497578    37A      0.497722
      38A      0.513898    39A      0.556324    40A      0.584170
      41A      0.584549    42A      0.597408    43A      0.598188
      44A      0.610034    45A      0.628144    46A      0.631875
      47A      0.639110    48A      0.640017    49A      0.666776
      50A      0.667181    51A      0.686196    52A      0.686794
      53A      0.757516    54A      0.830141    55A      0.831000
      56A      0.855271    57A      0.922702    58A      0.923290
      59A      0.945952    60A      0.953537    61A      0.966375
      62A      0.966853    63A      1.008693    64A      1.131635
      65A      1.132639    66A      1.155573    67A      1.168142
      68A      1.168562    69A      1.232297    70A      1.279879
      71A      1.280282    72A      1.285120    73A      1.328934
      74A      1.329745    75A      1.365355    76A      1.371087
      77A      1.371545    78A      1.393510    79A      1.406865
      80A      1.408146    81A      1.421637    82A      1.422648
      83A      1.428211    84A      1.492548    85A      1.509506
      86A      1.547113    87A      1.547388    88A      1.581690
      89A      1.582964    90A      1.674649    91A      1.745063
      92A      1.745258    93A      1.779116    94A      1.833652
      95A      1.836929    96A      1.972559    97A      2.025353
      98A      2.025529    99A      2.039667   100A      2.058897
     101A      2.059876   102A      2.746361   103A      2.747285
     104A      2.811843   105A      2.816062   106A      2.902355
     107A      2.902904   108A      2.924662   109A      2.931679
     110A      2.932274   111A      2.960070   112A      2.968333
     113A      2.969527   114A      3.041949   115A      3.080461
     116A      3.081876   117A      3.086246   118A      3.184247
     119A      3.184802   120A      3.188287   121A      3.289938
     122A      3.290297   123A      3.330099   124A      3.331843
     125A      3.383428   126A      3.491569   127A      3.494211
     128A      3.512375   129A      3.528393   130A      3.574839
     131A      3.581676   132A      3.581951   133A      3.670208
     134A      3.671966   135A      3.692972   136A      3.725147
     137A      3.726364   138A      3.780769   139A      3.781912
     140A      3.817703   141A      3.921585   142A      3.922491
     143A      4.045314   144A      4.117573   145A      4.118647
     146A      4.153504   147A      4.157081   148A      4.187367
     149A      4.207838   150A      4.208406   151A      4.212328
     152A      4.215644   153A      4.322810   154A      4.323981
     155A      4.362312   156A      4.432470   157A      4.432755
     158A      4.446461   159A      4.523983   160A      4.525218
     161A      4.588480   162A      4.589315   163A      4.624775
     164A      4.719776   165A      4.780905   166A      4.782211
     167A      4.839800   168A      4.967664   169A      5.006245
     170A      5.007784   171A      5.233568   172A      5.244874
     173A      5.252306   174A      5.359096   175A      5.365071
     176A      5.481752

    Final Occupation by Irrep:
              A
    DOCC [    16 ]
    SOCC [     1 ]

  @DF-UKS Final Energy:  -157.81305180556092

   => Energetics <=

    Nuclear Repulsion Energy =            125.3946661040670278
    One-Electron Energy =                -458.7489454016874220
    Two-Electron Energy =                 195.8483757877631035
    DFT Exchange-Correlation Energy =     -20.3071482957036231
    Empirical Dispersion Energy =           0.0000000000000000
    VV10 Nonlocal Energy =                  0.0000000000000000
    Total Energy =                       -157.8130518055609173

  UHF NO Occupations:
  HONO-2 :   15  A 1.9996008
  HONO-1 :   16  A 1.9989805
  HONO-0 :   17  A 1.0000000
  LUNO+0 :   18  A 0.0010195
  LUNO+1 :   19  A 0.0003992
  LUNO+2 :   20  A 0.0001977
  LUNO+3 :   21  A 0.0001974

Computation Completed

Properties will be evaluated at   0.000000,   0.000000,   0.000000 [a0]

Properties computed using the SCF density matrix

  Nuclear Dipole Moment: [e a0]
     X:     0.8272      Y:    -0.0003      Z:    -0.0025

  Electronic Dipole Moment: [e a0]
     X:    -0.7493      Y:     0.0011      Z:     0.0049

  Dipole Moment: [e a0]
     X:     0.0779      Y:     0.0008      Z:     0.0025     Total:     0.0780

  Dipole Moment: [D]
     X:     0.1980      Y:     0.0019      Z:     0.0062     Total:     0.1981

*** tstop() called on n082 at Fri Nov  5 15:03:38 2021
Module time:
	user time   =     494.48 seconds =       8.24 minutes
	system time =       4.61 seconds =       0.08 minutes
	total time  =        126 seconds =       2.10 minutes
Total time:
	user time   =     494.48 seconds =       8.24 minutes
	system time =       4.61 seconds =       0.08 minutes
	total time  =        126 seconds =       2.10 minutes
Grab this energy -157.81305180556092
    Psi4 stopped on: Friday, 05 November 2021 03:03PM
    Psi4 wall time for execution: 0:02:05.50

*** Psi4 exiting successfully. Buy a developer a beer!
