                               Psi4 1.4a2.dev629

  ==> Input File <==

--------------------------------------------------------------------------
import os
memory 14 GB

molecule {
 C   -0.3243643797   -0.0000018161   -0.0010207998
 C    0.0607284139   -1.4015633499   -2.4257676641
 C    0.0599590928    2.8019125549    0.0018026177
 C    0.0594310174   -1.4003438761    2.4272606641
 H    2.0901791473   -1.6440442077   -2.8480503173
 H   -0.7664707434   -0.3900894037   -4.0241369702
 H   -0.7667786139   -3.2896996337   -2.3501497559
 H    2.0901087478    3.2885191929   -0.0007037347
 H   -0.7667463924    3.6800860983    1.6738707445
 H   -0.7664551818    3.6799101424   -1.6744314952
 H    2.0903190722   -1.6445700611    2.8475537006
 H   -0.7662673785   -3.2899726116    2.3497350061
 H   -0.7662506783   -0.3901673423    4.0240380042
units bohr
0 2
}

basis {

assign 6-31g_2dfp_

[ 6-31g_2dfp_ ]

spherical

!----------------------------------------------------------------------
! Basis Set Exchange
! Version v0.8.13
! https://www.basissetexchange.org
!----------------------------------------------------------------------
!   Basis set: 6-31G(2df,p)
! Description: 6-31G(2df,p)
!        Role: orbital
!     Version: 0  (Data from the original Basis Set Exchange)
!----------------------------------------------------------------------

****
H     0
S    3   1.00
     18.7311370              0.03349460
      2.8253937              0.23472695
      0.6401217              0.81375733
S    1   1.00
      0.1612778              1.00000000
P    1   1.00
      1.5000000              1.0000000
P    1   1.00
      0.3750000              1.0000000
****
B     0
S    6   1.00
   2068.8823000              0.0018663
    310.6495700              0.0142515
     70.6830330              0.0695516
     19.8610800              0.2325729
      6.2993048              0.4670787
      2.1270270              0.3634314
SP   3   1.00
      4.7279710             -0.1303938              0.0745976
      1.1903377             -0.1307889              0.3078467
      0.3594117              1.1309444              0.7434568
SP   1   1.00
      0.1267512              1.0000000              1.0000000
D    1   1.00
      0.8020000              1.0000000
D    1   1.00
      0.2005000              1.0000000
F    1   1.00
      0.5000000              1.0000000
****
C     0
S    6   1.00
   3047.5249000              0.0018347
    457.3695100              0.0140373
    103.9486900              0.0688426
     29.2101550              0.2321844
      9.2866630              0.4679413
      3.1639270              0.3623120
SP   3   1.00
      7.8682724             -0.1193324              0.0689991
      1.8812885             -0.1608542              0.3164240
      0.5442493              1.1434564              0.7443083
SP   1   1.00
      0.1687144              1.0000000              1.0000000
D    1   1.00
      1.2520000              1.0000000
D    1   1.00
      0.3130000              1.0000000
F    1   1.00
      0.8000000              1.0000000
****
N     0
S    6   1.00
   4173.5110000              0.0018348
    627.4579000              0.0139950
    142.9021000              0.0685870
     40.2343300              0.2322410
     12.8202100              0.4690700
      4.3904370              0.3604550
SP   3   1.00
     11.6263580             -0.1149610              0.0675800
      2.7162800             -0.1691180              0.3239070
      0.7722180              1.1458520              0.7408950
SP   1   1.00
      0.2120313              1.0000000              1.0000000
D    1   1.00
      1.8260000              1.0000000
D    1   1.00
      0.4565000              1.0000000
F    1   1.00
      1.0000000              1.0000000
****
O     0
S    6   1.00
   5484.6717000              0.0018311
    825.2349500              0.0139501
    188.0469600              0.0684451
     52.9645000              0.2327143
     16.8975700              0.4701930
      5.7996353              0.3585209
SP   3   1.00
     15.5396160             -0.1107775              0.0708743
      3.5999336             -0.1480263              0.3397528
      1.0137618              1.1307670              0.7271586
SP   1   1.00
      0.2700058              1.0000000              1.0000000
D    1   1.00
      2.5840000              1.0000000
D    1   1.00
      0.6460000              1.0000000
F    1   1.00
      1.4000000              1.0000000
****
F     0
S    6   1.00
   7001.7130900              0.0018196169
   1051.3660900              0.0139160796
    239.2856900              0.0684053245
     67.3974453              0.233185760
     21.5199573              0.471267439
      7.40310130             0.356618546
SP   3   1.00
     20.8479528             -0.108506975            0.0716287243
      4.80830834            -0.146451658            0.3459121030
      1.34406986             1.128688580            0.7224699570
SP   1   1.00
      0.358151393            1.0000000              1.0000000
D    1   1.00
      3.5000000              1.0000000
D    1   1.00
      0.8750000              1.0000000
F    1   1.00
      1.8500000              1.0000000
****
Al     0
S    6   1.00
  13983.1000000              0.00194267
   2098.7500000              0.0148599
    477.7050000              0.0728494
    134.3600000              0.2468300
     42.8709000              0.4872580
     14.5189000              0.3234960
SP   6   1.00
    239.6680000             -0.00292619             0.00460285
     57.4419000             -0.0374080              0.0331990
     18.2859000             -0.1144870              0.1362820
      6.5991400              0.1156350              0.3304760
      2.4904900              0.6125950              0.4491460
      0.9445400              0.3937990              0.2657040
SP   3   1.00
      1.2779000             -0.2276060             -0.0175130
      0.3975900              0.00144583             0.2445330
      0.1600950              1.0927900              0.8049340
SP   1   1.00
      0.0556577              1.0000000              1.0000000
D    1   1.00
      0.6500000              1.0000000
D    1   1.00
      0.1625000              1.0000000
F    1   1.00
      0.2500000              1.0000000
****
Si     0
S    6   1.00
  16115.9000000              0.00195948
   2425.5800000              0.01492880
    553.8670000              0.07284780
    156.3400000              0.24613000
     50.0683000              0.48591400
     17.0178000              0.32500200
SP   6   1.00
    292.7180000             -0.00278094             0.00443826
     69.8731000             -0.03571460             0.03266790
     22.3363000             -0.11498500             0.13472100
      8.1503900              0.09356340             0.32867800
      3.1345800              0.60301700             0.44964000
      1.2254300              0.41895900             0.26137200
SP   3   1.00
      1.7273800             -0.24463000            -0.01779510
      0.5729220              0.00431572             0.25353900
      0.2221920              1.09818000             0.80066900
SP   1   1.00
      0.0778369              1.00000000             1.00000000
D    1   1.00
      0.9000000              1.0000000
D    1   1.00
      0.2250000              1.0000000
F    1   1.00
      0.3200000              1.0000000
****
P     0
S    6   1.00
  19413.3000000              0.0018516
   2909.4200000              0.0142062
    661.3640000              0.0699995
    185.7590000              0.2400790
     59.1943000              0.4847620
     20.0310000              0.3352000
SP   6   1.00
    339.4780000             -0.00278217             0.00456462
     81.0101000             -0.0360499              0.03369360
     25.8780000             -0.1166310              0.13975500
      9.4522100              0.0968328              0.33936200
      3.6656600              0.6144180              0.45092100
      1.4674600              0.4037980              0.23858600
SP   3   1.00
      2.1562300             -0.2529230             -0.01776530
      0.7489970              0.0328517              0.27405800
      0.2831450              1.0812500              0.78542100
SP   1   1.00
      0.0998317              1.0000000              1.00000000
D    1   1.00
      1.1000000              1.0000000
D    1   1.00
      0.2750000              1.0000000
F    1   1.00
      0.4500000              1.0000000
****
S     0
S    6   1.00
  21917.1000000              0.0018690
   3301.4900000              0.0142300
    754.1460000              0.0696960
    212.7110000              0.2384870
     67.9896000              0.4833070
     23.0515000              0.3380740
SP   6   1.00
    423.7350000             -0.0023767              0.0040610
    100.7100000             -0.0316930              0.0306810
     32.1599000             -0.1133170              0.1304520
     11.8079000              0.0560900              0.3272050
      4.6311000              0.5922550              0.4528510
      1.8702500              0.4550060              0.2560420
SP   3   1.00
      2.6158400             -0.2503740             -0.0145110
      0.9221670              0.0669570              0.3102630
      0.3412870              1.0545100              0.7544830
SP   1   1.00
      0.1171670              1.0000000              1.0000000
D    1   1.00
      1.3000000              1.0000000
D    1   1.00
      0.3250000              1.0000000
F    1   1.00
      0.5500000              1.0000000
****
Cl     0
S    6   1.00
  25180.1000000              0.0018330
   3780.3500000              0.0140340
    860.4740000              0.0690970
    242.1450000              0.2374520
     77.3349000              0.4830340
     26.2470000              0.3398560
SP   6   1.00
    491.7650000             -0.0022974              0.0039894
    116.9840000             -0.0307140              0.0303180
     37.4153000             -0.1125280              0.1298800
     13.7834000              0.0450160              0.3279510
      5.4521500              0.5893530              0.4535270
      2.2258800              0.4652060              0.2521540
SP   3   1.00
      3.1864900             -0.2518300             -0.0142990
      1.1442700              0.0615890              0.3235720
      0.4203770              1.0601800              0.7435070
SP   1   1.00
      0.1426570              1.0000000              1.0000000
D    1   1.00
      1.5000000              1.0000000
D    1   1.00
      0.3750000              1.0000000
F    1   1.00
      0.7000000              1.0000000
****
}

set {
reference uhf
freeze_core true
e_convergence 10
d_convergence 10
dft_spherical_points 1202
dft_radial_points 99
}

e = energy('b3lyp')

print_out('Grab this energy {0}'.format(e))
--------------------------------------------------------------------------

    Molecular point group: c1

    Geometry (in Bohr), charge = 0, multiplicity = 2:

       Center              X                  Y                   Z               Mass
    ------------   -----------------  -----------------  -----------------  -----------------
         C           -0.323554298701    -0.000002063327    -0.001458946112    12.000000000000
         C            0.061538494899    -1.401563597127    -2.426205810412    12.000000000000
         C            0.060769173799     2.801912307673     0.001364471388    12.000000000000
         C            0.060241098399    -1.400344123327     2.426822517788    12.000000000000
         H            2.090989228299    -1.644044454927    -2.848488463612     1.007825032230
         H           -0.765660662401    -0.390089650927    -4.024575116512     1.007825032230
         H           -0.765968532901    -3.289699880927    -2.350587902212     1.007825032230
         H            2.090918828799     3.288518945673    -0.001141881012     1.007825032230
         H           -0.765936311401     3.680085851073     1.673432598188     1.007825032230
         H           -0.765645100801     3.679909895173    -1.674869641512     1.007825032230
         H            2.091129153199    -1.644570308327     2.847115554288     1.007825032230
         H           -0.765457297501    -3.289972858827     2.349296859788     1.007825032230
         H           -0.765440597301    -0.390167589527     4.023599857888     1.007825032230

  Charge       = 0
  Multiplicity = 2
  Basis Set: ANONYMOUS3C2073DC
    Blend: 6-31G_2DFP_
  Basis Set: (ANONYMOUS3C2073DC AUX)
    Blend: DEF2-UNIVERSAL-JKFIT

    Orbital Energies [Eh]
    ---------------------

    Alpha Occupied:

       1A    -10.180401     2A    -10.167053     3A    -10.167024
       4A    -10.166978     5A     -0.797729     6A     -0.686262
       7A     -0.686103     8A     -0.530769     9A     -0.441026
      10A     -0.434726    11A     -0.434706    12A     -0.382501
      13A     -0.382422    14A     -0.363788    15A     -0.338347
      16A     -0.337760    17A     -0.168998

    Alpha Virtual:

      18A      0.076157    19A      0.134112    20A      0.134182
      21A      0.142635    22A      0.142770    23A      0.154712
      24A      0.178553    25A      0.178655    26A      0.203505
      27A      0.215076    28A      0.275835    29A      0.276086
      30A      0.399000    31A      0.399218    32A      0.403254
      33A      0.424282    34A      0.424290    35A      0.456518
      36A      0.495534    37A      0.495605    38A      0.512042
      39A      0.513826    40A      0.578601    41A      0.578688
      42A      0.591351    43A      0.591387    44A      0.601819
      45A      0.625272    46A      0.632157    47A      0.636619
      48A      0.636627    49A      0.662837    50A      0.663015
      51A      0.684094    52A      0.684114    53A      0.735056
      54A      0.825369    55A      0.825377    56A      0.853637
      57A      0.914698    58A      0.914909    59A      0.944414
      60A      0.944752    61A      0.961132    62A      0.961259
      63A      1.003265    64A      1.128343    65A      1.128380
      66A      1.141492    67A      1.163515    68A      1.163560
      69A      1.223738    70A      1.274070    71A      1.274430
      72A      1.279193    73A      1.324087    74A      1.324197
      75A      1.356511    76A      1.365742    77A      1.366204
      78A      1.392381    79A      1.402803    80A      1.403258
      81A      1.417820    82A      1.418370    83A      1.427703
      84A      1.491482    85A      1.498154    86A      1.542294
      87A      1.542634    88A      1.574497    89A      1.575130
      90A      1.671078    91A      1.738461    92A      1.738681
      93A      1.766478    94A      1.832725    95A      1.832866
      96A      1.972740    97A      2.018082    98A      2.018706
      99A      2.019475   100A      2.050789   101A      2.052022
     102A      2.738756   103A      2.738853   104A      2.790533
     105A      2.811883   106A      2.888912   107A      2.890249
     108A      2.894595   109A      2.929537   110A      2.929872
     111A      2.958862   112A      2.963669   113A      2.964255
     114A      3.033320   115A      3.071123   116A      3.071387
     117A      3.085758   118A      3.168527   119A      3.168766
     120A      3.180560   121A      3.284998   122A      3.285441
     123A      3.327746   124A      3.327835   125A      3.375786
     126A      3.489899   127A      3.489970   128A      3.512804
     129A      3.526533   130A      3.567882   131A      3.568085
     132A      3.574322   133A      3.665778   134A      3.666215
     135A      3.680289   136A      3.694305   137A      3.694336
     138A      3.777208   139A      3.777240   140A      3.788331
     141A      3.912433   142A      3.913135   143A      4.034881
     144A      4.111101   145A      4.111543   146A      4.147322
     147A      4.147696   148A      4.171472   149A      4.202664
     150A      4.203894   151A      4.203956   152A      4.209652
     153A      4.314747   154A      4.316315   155A      4.360209
     156A      4.423149   157A      4.424271   158A      4.443711
     159A      4.515995   160A      4.516376   161A      4.578680
     162A      4.579260   163A      4.617390   164A      4.708943
     165A      4.774568   166A      4.774884   167A      4.838266
     168A      4.963171   169A      5.001364   170A      5.001917
     171A      5.225320   172A      5.249573   173A      5.250061
     174A      5.353540   175A      5.353568   176A      5.481311

    Beta Occupied:

       1A    -10.167809     2A    -10.167781     3A    -10.167748
       4A    -10.166584     5A     -0.781061     6A     -0.684074
       7A     -0.683921     8A     -0.511789     9A     -0.431128
      10A     -0.431095    11A     -0.421663    12A     -0.376569
      13A     -0.376475    14A     -0.362781    15A     -0.333465
      16A     -0.332879

    Beta Virtual:

      17A     -0.025872    18A      0.077183    19A      0.135062
      20A      0.135157    21A      0.144498    22A      0.144596
      23A      0.163191    24A      0.182208    25A      0.182286
      26A      0.215298    27A      0.218886    28A      0.282202
      29A      0.282425    30A      0.400171    31A      0.400389
      32A      0.419797    33A      0.427093    34A      0.427103
      35A      0.468326    36A      0.497806    37A      0.497872
      38A      0.513785    39A      0.556133    40A      0.584178
      41A      0.584266    42A      0.597513    43A      0.597567
      44A      0.609364    45A      0.628524    46A      0.632315
      47A      0.639866    48A      0.639873    49A      0.666428
      50A      0.666613    51A      0.686715    52A      0.686739
      53A      0.757576    54A      0.830562    55A      0.830564
      56A      0.854999    57A      0.922687    58A      0.922899
      59A      0.946242    60A      0.953730    61A      0.966413
      62A      0.966521    63A      1.008466    64A      1.132417
      65A      1.132435    66A      1.154944    67A      1.168556
      68A      1.168623    69A      1.232695    70A      1.279618
      71A      1.280030    72A      1.284891    73A      1.329112
      74A      1.329244    75A      1.365909    76A      1.371029
      77A      1.371546    78A      1.393457    79A      1.406197
      80A      1.406676    81A      1.422856    82A      1.423364
      83A      1.427982    84A      1.492505    85A      1.508606
      86A      1.546720    87A      1.547085    88A      1.582360
      89A      1.582978    90A      1.675977    91A      1.744219
      92A      1.744436    93A      1.777244    94A      1.836584
      95A      1.836721    96A      1.973586    97A      2.024882
      98A      2.025675    99A      2.039586   100A      2.057610
     101A      2.058885   102A      2.747107   103A      2.747191
     104A      2.812297   105A      2.815631   106A      2.901587
     107A      2.902897   108A      2.924104   109A      2.931987
     110A      2.932389   111A      2.959923   112A      2.968188
     113A      2.968751   114A      3.041470   115A      3.081013
     116A      3.081292   117A      3.087573   118A      3.184258
     119A      3.184541   120A      3.188252   121A      3.289859
     122A      3.290239   123A      3.331502   124A      3.331616
     125A      3.383579   126A      3.492574   127A      3.492675
     128A      3.511167   129A      3.529564   130A      3.574164
     131A      3.581444   132A      3.581559   133A      3.670354
     134A      3.670967   135A      3.693550   136A      3.725777
     137A      3.726110   138A      3.781640   139A      3.781736
     140A      3.816902   141A      3.922285   142A      3.923029
     143A      4.045831   144A      4.117920   145A      4.118360
     146A      4.154560   147A      4.154858   148A      4.185556
     149A      4.209901   150A      4.210000   151A      4.210638
     152A      4.214245   153A      4.322091   154A      4.323724
     155A      4.363526   156A      4.431360   157A      4.432477
     158A      4.446553   159A      4.523834   160A      4.524187
     161A      4.589262   162A      4.589798   163A      4.624490
     164A      4.719405   165A      4.781491   166A      4.781769
     167A      4.841171   168A      4.967978   169A      5.005429
     170A      5.005983   171A      5.231000   172A      5.251352
     173A      5.251824   174A      5.359973   175A      5.360039
     176A      5.483620

    Final Occupation by Irrep:
              A
    DOCC [    16 ]
    SOCC [     1 ]

  @DF-UKS Final Energy:  -157.81305830185525

   => Energetics <=

    Nuclear Repulsion Energy =            125.3892901479721758
    One-Electron Energy =                -458.7381840077514426
    Two-Electron Energy =                 195.8428720821558784
    DFT Exchange-Correlation Energy =     -20.3070365242318793
    Empirical Dispersion Energy =           0.0000000000000000
    VV10 Nonlocal Energy =                  0.0000000000000000
    Total Energy =                       -157.8130583018552500

  UHF NO Occupations:
  HONO-2 :   15  A 1.9995985
  HONO-1 :   16  A 1.9989796
  HONO-0 :   17  A 1.0000000
  LUNO+0 :   18  A 0.0010204
  LUNO+1 :   19  A 0.0004015
  LUNO+2 :   20  A 0.0001980
  LUNO+3 :   21  A 0.0001971

Computation Completed

Properties will be evaluated at   0.000000,   0.000000,   0.000000 [a0]

Properties computed using the SCF density matrix

  Nuclear Dipole Moment: [e a0]
     X:     0.8329      Y:    -0.0000      Z:    -0.0031

  Electronic Dipole Moment: [e a0]
     X:    -0.7582      Y:     0.0000      Z:     0.0030

  Dipole Moment: [e a0]
     X:     0.0747      Y:     0.0000      Z:    -0.0001     Total:     0.0747

  Dipole Moment: [D]
     X:     0.1899      Y:     0.0000      Z:    -0.0001     Total:     0.1899

*** tstop() called on n051 at Fri Nov  5 12:06:09 2021
Module time:
	user time   =     549.43 seconds =       9.16 minutes
	system time =      12.29 seconds =       0.20 minutes
	total time  =        142 seconds =       2.37 minutes
Total time:
	user time   =     549.43 seconds =       9.16 minutes
	system time =      12.29 seconds =       0.20 minutes
	total time  =        142 seconds =       2.37 minutes
Grab this energy -157.81305830185525
    Psi4 stopped on: Friday, 05 November 2021 12:06PM
    Psi4 wall time for execution: 0:02:21.38

*** Psi4 exiting successfully. Buy a developer a beer!
