                               Psi4 1.4a2.dev629

  ==> Input File <==

--------------------------------------------------------------------------
import os
memory 14 GB

molecule {
 C   -0.3233420191   -0.0000017733   -0.0004971784
 C    0.0599462858   -1.4014441614   -2.4261502433
 C    0.0610192483    2.8017597604   -0.0011818597
 C    0.0623304510   -1.4003104434    2.4266108454
 H    2.0905074114   -1.6451785461   -2.8463240962
 H   -0.7671278495   -0.3892662948   -4.0195472213
 H   -0.7671485913   -3.2930076145   -2.3538391069
 H    2.0867974277    3.2881051666   -0.0017644569
 H   -0.7675168872    3.6762841650    1.6757886552
 H   -0.7637753777    3.6842234142   -1.6772032204
 H    2.0833647751   -1.6430185227    2.8485492931
 H   -0.7639891779   -3.2909796732    2.3441346074
 H   -0.7636735736   -0.3871897906    4.0314239819
units bohr
0 2
}

basis {

assign 6-31g_2dfp_

[ 6-31g_2dfp_ ]

spherical

!----------------------------------------------------------------------
! Basis Set Exchange
! Version v0.8.13
! https://www.basissetexchange.org
!----------------------------------------------------------------------
!   Basis set: 6-31G(2df,p)
! Description: 6-31G(2df,p)
!        Role: orbital
!     Version: 0  (Data from the original Basis Set Exchange)
!----------------------------------------------------------------------

****
H     0
S    3   1.00
     18.7311370              0.03349460
      2.8253937              0.23472695
      0.6401217              0.81375733
S    1   1.00
      0.1612778              1.00000000
P    1   1.00
      1.5000000              1.0000000
P    1   1.00
      0.3750000              1.0000000
****
B     0
S    6   1.00
   2068.8823000              0.0018663
    310.6495700              0.0142515
     70.6830330              0.0695516
     19.8610800              0.2325729
      6.2993048              0.4670787
      2.1270270              0.3634314
SP   3   1.00
      4.7279710             -0.1303938              0.0745976
      1.1903377             -0.1307889              0.3078467
      0.3594117              1.1309444              0.7434568
SP   1   1.00
      0.1267512              1.0000000              1.0000000
D    1   1.00
      0.8020000              1.0000000
D    1   1.00
      0.2005000              1.0000000
F    1   1.00
      0.5000000              1.0000000
****
C     0
S    6   1.00
   3047.5249000              0.0018347
    457.3695100              0.0140373
    103.9486900              0.0688426
     29.2101550              0.2321844
      9.2866630              0.4679413
      3.1639270              0.3623120
SP   3   1.00
      7.8682724             -0.1193324              0.0689991
      1.8812885             -0.1608542              0.3164240
      0.5442493              1.1434564              0.7443083
SP   1   1.00
      0.1687144              1.0000000              1.0000000
D    1   1.00
      1.2520000              1.0000000
D    1   1.00
      0.3130000              1.0000000
F    1   1.00
      0.8000000              1.0000000
****
N     0
S    6   1.00
   4173.5110000              0.0018348
    627.4579000              0.0139950
    142.9021000              0.0685870
     40.2343300              0.2322410
     12.8202100              0.4690700
      4.3904370              0.3604550
SP   3   1.00
     11.6263580             -0.1149610              0.0675800
      2.7162800             -0.1691180              0.3239070
      0.7722180              1.1458520              0.7408950
SP   1   1.00
      0.2120313              1.0000000              1.0000000
D    1   1.00
      1.8260000              1.0000000
D    1   1.00
      0.4565000              1.0000000
F    1   1.00
      1.0000000              1.0000000
****
O     0
S    6   1.00
   5484.6717000              0.0018311
    825.2349500              0.0139501
    188.0469600              0.0684451
     52.9645000              0.2327143
     16.8975700              0.4701930
      5.7996353              0.3585209
SP   3   1.00
     15.5396160             -0.1107775              0.0708743
      3.5999336             -0.1480263              0.3397528
      1.0137618              1.1307670              0.7271586
SP   1   1.00
      0.2700058              1.0000000              1.0000000
D    1   1.00
      2.5840000              1.0000000
D    1   1.00
      0.6460000              1.0000000
F    1   1.00
      1.4000000              1.0000000
****
F     0
S    6   1.00
   7001.7130900              0.0018196169
   1051.3660900              0.0139160796
    239.2856900              0.0684053245
     67.3974453              0.233185760
     21.5199573              0.471267439
      7.40310130             0.356618546
SP   3   1.00
     20.8479528             -0.108506975            0.0716287243
      4.80830834            -0.146451658            0.3459121030
      1.34406986             1.128688580            0.7224699570
SP   1   1.00
      0.358151393            1.0000000              1.0000000
D    1   1.00
      3.5000000              1.0000000
D    1   1.00
      0.8750000              1.0000000
F    1   1.00
      1.8500000              1.0000000
****
Al     0
S    6   1.00
  13983.1000000              0.00194267
   2098.7500000              0.0148599
    477.7050000              0.0728494
    134.3600000              0.2468300
     42.8709000              0.4872580
     14.5189000              0.3234960
SP   6   1.00
    239.6680000             -0.00292619             0.00460285
     57.4419000             -0.0374080              0.0331990
     18.2859000             -0.1144870              0.1362820
      6.5991400              0.1156350              0.3304760
      2.4904900              0.6125950              0.4491460
      0.9445400              0.3937990              0.2657040
SP   3   1.00
      1.2779000             -0.2276060             -0.0175130
      0.3975900              0.00144583             0.2445330
      0.1600950              1.0927900              0.8049340
SP   1   1.00
      0.0556577              1.0000000              1.0000000
D    1   1.00
      0.6500000              1.0000000
D    1   1.00
      0.1625000              1.0000000
F    1   1.00
      0.2500000              1.0000000
****
Si     0
S    6   1.00
  16115.9000000              0.00195948
   2425.5800000              0.01492880
    553.8670000              0.07284780
    156.3400000              0.24613000
     50.0683000              0.48591400
     17.0178000              0.32500200
SP   6   1.00
    292.7180000             -0.00278094             0.00443826
     69.8731000             -0.03571460             0.03266790
     22.3363000             -0.11498500             0.13472100
      8.1503900              0.09356340             0.32867800
      3.1345800              0.60301700             0.44964000
      1.2254300              0.41895900             0.26137200
SP   3   1.00
      1.7273800             -0.24463000            -0.01779510
      0.5729220              0.00431572             0.25353900
      0.2221920              1.09818000             0.80066900
SP   1   1.00
      0.0778369              1.00000000             1.00000000
D    1   1.00
      0.9000000              1.0000000
D    1   1.00
      0.2250000              1.0000000
F    1   1.00
      0.3200000              1.0000000
****
P     0
S    6   1.00
  19413.3000000              0.0018516
   2909.4200000              0.0142062
    661.3640000              0.0699995
    185.7590000              0.2400790
     59.1943000              0.4847620
     20.0310000              0.3352000
SP   6   1.00
    339.4780000             -0.00278217             0.00456462
     81.0101000             -0.0360499              0.03369360
     25.8780000             -0.1166310              0.13975500
      9.4522100              0.0968328              0.33936200
      3.6656600              0.6144180              0.45092100
      1.4674600              0.4037980              0.23858600
SP   3   1.00
      2.1562300             -0.2529230             -0.01776530
      0.7489970              0.0328517              0.27405800
      0.2831450              1.0812500              0.78542100
SP   1   1.00
      0.0998317              1.0000000              1.00000000
D    1   1.00
      1.1000000              1.0000000
D    1   1.00
      0.2750000              1.0000000
F    1   1.00
      0.4500000              1.0000000
****
S     0
S    6   1.00
  21917.1000000              0.0018690
   3301.4900000              0.0142300
    754.1460000              0.0696960
    212.7110000              0.2384870
     67.9896000              0.4833070
     23.0515000              0.3380740
SP   6   1.00
    423.7350000             -0.0023767              0.0040610
    100.7100000             -0.0316930              0.0306810
     32.1599000             -0.1133170              0.1304520
     11.8079000              0.0560900              0.3272050
      4.6311000              0.5922550              0.4528510
      1.8702500              0.4550060              0.2560420
SP   3   1.00
      2.6158400             -0.2503740             -0.0145110
      0.9221670              0.0669570              0.3102630
      0.3412870              1.0545100              0.7544830
SP   1   1.00
      0.1171670              1.0000000              1.0000000
D    1   1.00
      1.3000000              1.0000000
D    1   1.00
      0.3250000              1.0000000
F    1   1.00
      0.5500000              1.0000000
****
Cl     0
S    6   1.00
  25180.1000000              0.0018330
   3780.3500000              0.0140340
    860.4740000              0.0690970
    242.1450000              0.2374520
     77.3349000              0.4830340
     26.2470000              0.3398560
SP   6   1.00
    491.7650000             -0.0022974              0.0039894
    116.9840000             -0.0307140              0.0303180
     37.4153000             -0.1125280              0.1298800
     13.7834000              0.0450160              0.3279510
      5.4521500              0.5893530              0.4535270
      2.2258800              0.4652060              0.2521540
SP   3   1.00
      3.1864900             -0.2518300             -0.0142990
      1.1442700              0.0615890              0.3235720
      0.4203770              1.0601800              0.7435070
SP   1   1.00
      0.1426570              1.0000000              1.0000000
D    1   1.00
      1.5000000              1.0000000
D    1   1.00
      0.3750000              1.0000000
F    1   1.00
      0.7000000              1.0000000
****
}

set {
reference uhf
freeze_core true
e_convergence 10
d_convergence 10
dft_spherical_points 1202
dft_radial_points 99
}

e = energy('b3lyp')

print_out('Grab this energy {0}'.format(e))
--------------------------------------------------------------------------

    Molecular point group: c1

    Geometry (in Bohr), charge = 0, multiplicity = 2:

       Center              X                  Y                   Z               Mass
    ------------   -----------------  -----------------  -----------------  -----------------
         C           -0.323340853984    -0.000001995390    -0.000262498849    12.000000000000
         C            0.059947450916    -1.401444383490    -2.425915563749    12.000000000000
         C            0.061020413416     2.801759538310    -0.000947180149    12.000000000000
         C            0.062331616116    -1.400310665490     2.426845524951    12.000000000000
         H            2.090508576516    -1.645178768190    -2.846089416649     1.007825032230
         H           -0.767126684384    -0.389266516890    -4.019312541749     1.007825032230
         H           -0.767147426184    -3.293007836590    -2.353604427349     1.007825032230
         H            2.086798592816     3.288104944510    -0.001529777349     1.007825032230
         H           -0.767515722084     3.676283942910     1.676023334751     1.007825032230
         H           -0.763774212584     3.684223192110    -1.676968540849     1.007825032230
         H            2.083365940216    -1.643018744790     2.848783972651     1.007825032230
         H           -0.763988012784    -3.290979895290     2.344369286951     1.007825032230
         H           -0.763672408484    -0.387190012690     4.031658661451     1.007825032230

  Charge       = 0
  Multiplicity = 2
  Basis Set: ANONYMOUS50DA4C57
    Blend: 6-31G_2DFP_
  Basis Set: (ANONYMOUS50DA4C57 AUX)
    Blend: DEF2-UNIVERSAL-JKFIT

    Orbital Energies [Eh]
    ---------------------

    Alpha Occupied:

       1A    -10.180343     2A    -10.167046     3A    -10.167021
       4A    -10.166978     5A     -0.797767     6A     -0.686189
       7A     -0.686187     8A     -0.530777     9A     -0.441127
      10A     -0.434694    11A     -0.434650    12A     -0.382621
      13A     -0.382573    14A     -0.363610    15A     -0.338031
      16A     -0.337966    17A     -0.168961

    Alpha Virtual:

      18A      0.076071    19A      0.133986    20A      0.134319
      21A      0.142565    22A      0.142688    23A      0.154881
      24A      0.178695    25A      0.178865    26A      0.203530
      27A      0.214819    28A      0.275909    29A      0.276061
      30A      0.399195    31A      0.399262    32A      0.403343
      33A      0.424013    34A      0.424183    35A      0.456592
      36A      0.495244    37A      0.495533    38A      0.512160
      39A      0.513982    40A      0.578641    41A      0.578989
      42A      0.591482    43A      0.591779    44A      0.602580
      45A      0.624687    46A      0.631833    47A      0.636151
      48A      0.636362    49A      0.663045    50A      0.663790
      51A      0.683680    52A      0.684030    53A      0.734994
      54A      0.825384    55A      0.825422    56A      0.853921
      57A      0.914811    58A      0.915239    59A      0.944019
      60A      0.944701    61A      0.961167    62A      0.961425
      63A      1.003467    64A      1.128056    65A      1.128155
      66A      1.142208    67A      1.163149    68A      1.163397
      69A      1.223326    70A      1.274340    71A      1.274637
      72A      1.279366    73A      1.324311    74A      1.324400
      75A      1.355944    76A      1.366019    77A      1.366070
      78A      1.392463    79A      1.403576    80A      1.404494
      81A      1.416606    82A      1.417666    83A      1.427916
      84A      1.491490    85A      1.499081    86A      1.542378
      87A      1.543301    88A      1.574287    89A      1.574603
      90A      1.669827    91A      1.739251    92A      1.739555
      93A      1.768354    94A      1.830594    95A      1.832201
      96A      1.971714    97A      2.018094    98A      2.018748
      99A      2.019564   100A      2.051710   101A      2.053599
     102A      2.738076   103A      2.738895   104A      2.790921
     105A      2.811427   106A      2.889930   107A      2.889955
     108A      2.894965   109A      2.929487   110A      2.929508
     111A      2.959000   112A      2.964050   113A      2.964704
     114A      3.034022   115A      3.071260   116A      3.071301
     117A      3.084360   118A      3.168561   119A      3.169002
     120A      3.180600   121A      3.284978   122A      3.285628
     123A      3.326969   124A      3.327381   125A      3.375623
     126A      3.489986   127A      3.490310   128A      3.513929
     129A      3.525416   130A      3.568271   131A      3.568504
     132A      3.575159   133A      3.665672   134A      3.667105
     135A      3.679645   136A      3.693963   137A      3.694264
     138A      3.776803   139A      3.776838   140A      3.789124
     141A      3.912140   142A      3.912346   143A      4.034444
     144A      4.110907   145A      4.111806   146A      4.147524
     147A      4.148671   148A      4.173216   149A      4.201875
     150A      4.202808   151A      4.204062   152A      4.210929
     153A      4.315140   154A      4.316837   155A      4.358963
     156A      4.424141   157A      4.424792   158A      4.443435
     159A      4.516153   160A      4.517547   161A      4.578138
     162A      4.578387   163A      4.617570   164A      4.709431
     165A      4.774139   166A      4.775048   167A      4.836911
     168A      4.962893   169A      5.002204   170A      5.003694
     171A      5.228007   172A      5.244741   173A      5.248880
     174A      5.354321   175A      5.356754   176A      5.479377

    Beta Occupied:

       1A    -10.167802     2A    -10.167776     3A    -10.167745
       4A    -10.166520     5A     -0.781092     6A     -0.683995
       7A     -0.683986     8A     -0.511749     9A     -0.431060
      10A     -0.431030    11A     -0.421820    12A     -0.376727
      13A     -0.376637    14A     -0.362594    15A     -0.333147
      16A     -0.333097

    Beta Virtual:

      17A     -0.025743    18A      0.077081    19A      0.134887
      20A      0.135199    21A      0.144462    22A      0.144534
      23A      0.163338    24A      0.182347    25A      0.182555
      26A      0.214984    27A      0.218978    28A      0.282254
      29A      0.282412    30A      0.400366    31A      0.400430
      32A      0.419789    33A      0.426825    34A      0.426994
      35A      0.468499    36A      0.497498    37A      0.497802
      38A      0.513896    39A      0.556326    40A      0.584206
      41A      0.584524    42A      0.597640    43A      0.597983
      44A      0.610000    45A      0.628008    46A      0.632054
      47A      0.639432    48A      0.639642    49A      0.666641
      50A      0.667323    51A      0.686334    52A      0.686646
      53A      0.757517    54A      0.830550    55A      0.830592
      56A      0.855276    57A      0.922796    58A      0.923196
      59A      0.945938    60A      0.953549    61A      0.966444
      62A      0.966759    63A      1.008706    64A      1.132121
      65A      1.132142    66A      1.155585    67A      1.168191
      68A      1.168510    69A      1.232298    70A      1.279923
      71A      1.280243    72A      1.285121    73A      1.329302
      74A      1.329387    75A      1.365352    76A      1.371264
      77A      1.371312    78A      1.393524    79A      1.407004
      80A      1.408008    81A      1.421636    82A      1.422731
      83A      1.428185    84A      1.492540    85A      1.509523
      86A      1.546800    87A      1.547694    88A      1.582174
      89A      1.582461    90A      1.674673    91A      1.745016
      92A      1.745319    93A      1.779128    94A      1.834443
      95A      1.836064    96A      1.972577    97A      2.024975
      98A      2.025924    99A      2.039676   100A      2.058471
     101A      2.060273   102A      2.746420   103A      2.747221
     104A      2.811829   105A      2.816066   106A      2.902581
     107A      2.902701   108A      2.924645   109A      2.931936
     110A      2.932018   111A      2.960066   112A      2.968584
     113A      2.969265   114A      3.041954   115A      3.081065
     116A      3.081294   117A      3.086198   118A      3.184199
     119A      3.184855   120A      3.188291   121A      3.289765
     122A      3.290435   123A      3.330753   124A      3.331211
     125A      3.383439   126A      3.492756   127A      3.493003
     128A      3.512318   129A      3.528438   130A      3.574999
     131A      3.581572   132A      3.581893   133A      3.670370
     134A      3.671904   135A      3.692939   136A      3.725584
     137A      3.725907   138A      3.781299   139A      3.781402
     140A      3.817665   141A      3.921935   142A      3.922185
     143A      4.045330   144A      4.117743   145A      4.118600
     146A      4.154788   147A      4.155830   148A      4.187265
     149A      4.208076   150A      4.209541   151A      4.210976
     152A      4.215409   153A      4.322578   154A      4.324276
     155A      4.362327   156A      4.432356   157A      4.433009
     158A      4.446315   159A      4.523940   160A      4.525340
     161A      4.588727   162A      4.589000   163A      4.624763
     164A      4.719773   165A      4.781092   166A      4.782002
     167A      4.839831   168A      4.967687   169A      5.006262
     170A      5.007715   171A      5.233721   172A      5.246538
     173A      5.250654   174A      5.360790   175A      5.363243
     176A      5.481698

    Final Occupation by Irrep:
              A
    DOCC [    16 ]
    SOCC [     1 ]

  @DF-UKS Final Energy:  -157.81305737096002

   => Energetics <=

    Nuclear Repulsion Energy =            125.3946405096012739
    One-Electron Energy =                -458.7489092228080381
    Two-Electron Energy =                 195.8483571546811390
    DFT Exchange-Correlation Energy =     -20.3071458124344133
    Empirical Dispersion Energy =           0.0000000000000000
    VV10 Nonlocal Energy =                  0.0000000000000000
    Total Energy =                       -157.8130573709600242

  UHF NO Occupations:
  HONO-2 :   15  A 1.9996008
  HONO-1 :   16  A 1.9989804
  HONO-0 :   17  A 1.0000000
  LUNO+0 :   18  A 0.0010196
  LUNO+1 :   19  A 0.0003992
  LUNO+2 :   20  A 0.0001975
  LUNO+3 :   21  A 0.0001975

Computation Completed

Properties will be evaluated at   0.000000,   0.000000,   0.000000 [a0]

Properties computed using the SCF density matrix

  Nuclear Dipole Moment: [e a0]
     X:     0.8272      Y:    -0.0000      Z:     0.0017

  Electronic Dipole Moment: [e a0]
     X:    -0.7493      Y:     0.0000      Z:    -0.0023

  Dipole Moment: [e a0]
     X:     0.0779      Y:     0.0000      Z:    -0.0006     Total:     0.0779

  Dipole Moment: [D]
     X:     0.1980      Y:     0.0000      Z:    -0.0016     Total:     0.1980

*** tstop() called on n082 at Fri Nov  5 14:08:03 2021
Module time:
	user time   =     592.67 seconds =       9.88 minutes
	system time =       5.59 seconds =       0.09 minutes
	total time  =        151 seconds =       2.52 minutes
Total time:
	user time   =     592.67 seconds =       9.88 minutes
	system time =       5.59 seconds =       0.09 minutes
	total time  =        151 seconds =       2.52 minutes
Grab this energy -157.81305737096002
    Psi4 stopped on: Friday, 05 November 2021 02:08PM
    Psi4 wall time for execution: 0:02:30.35

*** Psi4 exiting successfully. Buy a developer a beer!
