                               Psi4 1.4a2.dev629

  ==> Input File <==

--------------------------------------------------------------------------
import os
memory 14 GB

molecule {
 C   -0.3233407124   -0.0000024474   -0.0024264868
 C    0.0604512759   -1.3997523445   -2.4257780562
 C    0.0610192735    2.8017590788   -0.0012032260
 C    0.0618293395   -1.4020024032    2.4269842127
 H    2.0847113978   -1.6418693834   -2.8495467113
 H   -0.7684679668   -0.3879147972   -4.0247110035
 H   -0.7649552303   -3.2903770842   -2.3451118423
 H    2.0867770813    3.2881024974    0.0080058320
 H   -0.7740024940    3.6775893204    1.6711462037
 H   -0.7572699283    3.6829198219   -1.6818099494
 H    2.0891604081   -1.6463287372    2.8453326054
 H   -0.7661774906   -3.2936184801    2.3528670028
 H   -0.7623428304   -0.3885293549    4.0262514190
units bohr
0 2
}

basis {

assign 6-31g_2dfp_

[ 6-31g_2dfp_ ]

spherical

!----------------------------------------------------------------------
! Basis Set Exchange
! Version v0.8.13
! https://www.basissetexchange.org
!----------------------------------------------------------------------
!   Basis set: 6-31G(2df,p)
! Description: 6-31G(2df,p)
!        Role: orbital
!     Version: 0  (Data from the original Basis Set Exchange)
!----------------------------------------------------------------------

****
H     0
S    3   1.00
     18.7311370              0.03349460
      2.8253937              0.23472695
      0.6401217              0.81375733
S    1   1.00
      0.1612778              1.00000000
P    1   1.00
      1.5000000              1.0000000
P    1   1.00
      0.3750000              1.0000000
****
B     0
S    6   1.00
   2068.8823000              0.0018663
    310.6495700              0.0142515
     70.6830330              0.0695516
     19.8610800              0.2325729
      6.2993048              0.4670787
      2.1270270              0.3634314
SP   3   1.00
      4.7279710             -0.1303938              0.0745976
      1.1903377             -0.1307889              0.3078467
      0.3594117              1.1309444              0.7434568
SP   1   1.00
      0.1267512              1.0000000              1.0000000
D    1   1.00
      0.8020000              1.0000000
D    1   1.00
      0.2005000              1.0000000
F    1   1.00
      0.5000000              1.0000000
****
C     0
S    6   1.00
   3047.5249000              0.0018347
    457.3695100              0.0140373
    103.9486900              0.0688426
     29.2101550              0.2321844
      9.2866630              0.4679413
      3.1639270              0.3623120
SP   3   1.00
      7.8682724             -0.1193324              0.0689991
      1.8812885             -0.1608542              0.3164240
      0.5442493              1.1434564              0.7443083
SP   1   1.00
      0.1687144              1.0000000              1.0000000
D    1   1.00
      1.2520000              1.0000000
D    1   1.00
      0.3130000              1.0000000
F    1   1.00
      0.8000000              1.0000000
****
N     0
S    6   1.00
   4173.5110000              0.0018348
    627.4579000              0.0139950
    142.9021000              0.0685870
     40.2343300              0.2322410
     12.8202100              0.4690700
      4.3904370              0.3604550
SP   3   1.00
     11.6263580             -0.1149610              0.0675800
      2.7162800             -0.1691180              0.3239070
      0.7722180              1.1458520              0.7408950
SP   1   1.00
      0.2120313              1.0000000              1.0000000
D    1   1.00
      1.8260000              1.0000000
D    1   1.00
      0.4565000              1.0000000
F    1   1.00
      1.0000000              1.0000000
****
O     0
S    6   1.00
   5484.6717000              0.0018311
    825.2349500              0.0139501
    188.0469600              0.0684451
     52.9645000              0.2327143
     16.8975700              0.4701930
      5.7996353              0.3585209
SP   3   1.00
     15.5396160             -0.1107775              0.0708743
      3.5999336             -0.1480263              0.3397528
      1.0137618              1.1307670              0.7271586
SP   1   1.00
      0.2700058              1.0000000              1.0000000
D    1   1.00
      2.5840000              1.0000000
D    1   1.00
      0.6460000              1.0000000
F    1   1.00
      1.4000000              1.0000000
****
F     0
S    6   1.00
   7001.7130900              0.0018196169
   1051.3660900              0.0139160796
    239.2856900              0.0684053245
     67.3974453              0.233185760
     21.5199573              0.471267439
      7.40310130             0.356618546
SP   3   1.00
     20.8479528             -0.108506975            0.0716287243
      4.80830834            -0.146451658            0.3459121030
      1.34406986             1.128688580            0.7224699570
SP   1   1.00
      0.358151393            1.0000000              1.0000000
D    1   1.00
      3.5000000              1.0000000
D    1   1.00
      0.8750000              1.0000000
F    1   1.00
      1.8500000              1.0000000
****
Al     0
S    6   1.00
  13983.1000000              0.00194267
   2098.7500000              0.0148599
    477.7050000              0.0728494
    134.3600000              0.2468300
     42.8709000              0.4872580
     14.5189000              0.3234960
SP   6   1.00
    239.6680000             -0.00292619             0.00460285
     57.4419000             -0.0374080              0.0331990
     18.2859000             -0.1144870              0.1362820
      6.5991400              0.1156350              0.3304760
      2.4904900              0.6125950              0.4491460
      0.9445400              0.3937990              0.2657040
SP   3   1.00
      1.2779000             -0.2276060             -0.0175130
      0.3975900              0.00144583             0.2445330
      0.1600950              1.0927900              0.8049340
SP   1   1.00
      0.0556577              1.0000000              1.0000000
D    1   1.00
      0.6500000              1.0000000
D    1   1.00
      0.1625000              1.0000000
F    1   1.00
      0.2500000              1.0000000
****
Si     0
S    6   1.00
  16115.9000000              0.00195948
   2425.5800000              0.01492880
    553.8670000              0.07284780
    156.3400000              0.24613000
     50.0683000              0.48591400
     17.0178000              0.32500200
SP   6   1.00
    292.7180000             -0.00278094             0.00443826
     69.8731000             -0.03571460             0.03266790
     22.3363000             -0.11498500             0.13472100
      8.1503900              0.09356340             0.32867800
      3.1345800              0.60301700             0.44964000
      1.2254300              0.41895900             0.26137200
SP   3   1.00
      1.7273800             -0.24463000            -0.01779510
      0.5729220              0.00431572             0.25353900
      0.2221920              1.09818000             0.80066900
SP   1   1.00
      0.0778369              1.00000000             1.00000000
D    1   1.00
      0.9000000              1.0000000
D    1   1.00
      0.2250000              1.0000000
F    1   1.00
      0.3200000              1.0000000
****
P     0
S    6   1.00
  19413.3000000              0.0018516
   2909.4200000              0.0142062
    661.3640000              0.0699995
    185.7590000              0.2400790
     59.1943000              0.4847620
     20.0310000              0.3352000
SP   6   1.00
    339.4780000             -0.00278217             0.00456462
     81.0101000             -0.0360499              0.03369360
     25.8780000             -0.1166310              0.13975500
      9.4522100              0.0968328              0.33936200
      3.6656600              0.6144180              0.45092100
      1.4674600              0.4037980              0.23858600
SP   3   1.00
      2.1562300             -0.2529230             -0.01776530
      0.7489970              0.0328517              0.27405800
      0.2831450              1.0812500              0.78542100
SP   1   1.00
      0.0998317              1.0000000              1.00000000
D    1   1.00
      1.1000000              1.0000000
D    1   1.00
      0.2750000              1.0000000
F    1   1.00
      0.4500000              1.0000000
****
S     0
S    6   1.00
  21917.1000000              0.0018690
   3301.4900000              0.0142300
    754.1460000              0.0696960
    212.7110000              0.2384870
     67.9896000              0.4833070
     23.0515000              0.3380740
SP   6   1.00
    423.7350000             -0.0023767              0.0040610
    100.7100000             -0.0316930              0.0306810
     32.1599000             -0.1133170              0.1304520
     11.8079000              0.0560900              0.3272050
      4.6311000              0.5922550              0.4528510
      1.8702500              0.4550060              0.2560420
SP   3   1.00
      2.6158400             -0.2503740             -0.0145110
      0.9221670              0.0669570              0.3102630
      0.3412870              1.0545100              0.7544830
SP   1   1.00
      0.1171670              1.0000000              1.0000000
D    1   1.00
      1.3000000              1.0000000
D    1   1.00
      0.3250000              1.0000000
F    1   1.00
      0.5500000              1.0000000
****
Cl     0
S    6   1.00
  25180.1000000              0.0018330
   3780.3500000              0.0140340
    860.4740000              0.0690970
    242.1450000              0.2374520
     77.3349000              0.4830340
     26.2470000              0.3398560
SP   6   1.00
    491.7650000             -0.0022974              0.0039894
    116.9840000             -0.0307140              0.0303180
     37.4153000             -0.1125280              0.1298800
     13.7834000              0.0450160              0.3279510
      5.4521500              0.5893530              0.4535270
      2.2258800              0.4652060              0.2521540
SP   3   1.00
      3.1864900             -0.2518300             -0.0142990
      1.1442700              0.0615890              0.3235720
      0.4203770              1.0601800              0.7435070
SP   1   1.00
      0.1426570              1.0000000              1.0000000
D    1   1.00
      1.5000000              1.0000000
D    1   1.00
      0.3750000              1.0000000
F    1   1.00
      0.7000000              1.0000000
****
}

set {
reference uhf
freeze_core true
e_convergence 10
d_convergence 10
dft_spherical_points 1202
dft_radial_points 99
}

e = energy('b3lyp')

print_out('Grab this energy {0}'.format(e))
--------------------------------------------------------------------------

    Molecular point group: c1

    Geometry (in Bohr), charge = 0, multiplicity = 2:

       Center              X                  Y                   Z               Mass
    ------------   -----------------  -----------------  -----------------  -----------------
         C           -0.323340550869    -0.000002380852    -0.001959692402    12.000000000000
         C            0.060451437431    -1.399752277952    -2.425311261802    12.000000000000
         C            0.061019435031     2.801759145348    -0.000736431602    12.000000000000
         C            0.061829501031    -1.402002336652     2.427451007098    12.000000000000
         H            2.084711559331    -1.641869316852    -2.849079916902     1.007825032230
         H           -0.768467805269    -0.387914730652    -4.024244209102     1.007825032230
         H           -0.764955068769    -3.290377017652    -2.344645047902     1.007825032230
         H            2.086777242831     3.288102563948     0.008472626398     1.007825032230
         H           -0.774002332469     3.677589386948     1.671612998098     1.007825032230
         H           -0.757269766769     3.682919888448    -1.681343155002     1.007825032230
         H            2.089160569631    -1.646328670652     2.845799399798     1.007825032230
         H           -0.766177329069    -3.293618413552     2.353333797198     1.007825032230
         H           -0.762342668869    -0.388529288352     4.026718213398     1.007825032230

  Charge       = 0
  Multiplicity = 2
  Basis Set: ANONYMOUS4CF27A8A
    Blend: 6-31G_2DFP_
  Basis Set: (ANONYMOUS4CF27A8A AUX)
    Blend: DEF2-UNIVERSAL-JKFIT

    Orbital Energies [Eh]
    ---------------------

    Alpha Occupied:

       1A    -10.180341     2A    -10.167204     3A    -10.167015
       4A    -10.166825     5A     -0.797767     6A     -0.686329
       7A     -0.686044     8A     -0.530776     9A     -0.441124
      10A     -0.434743    11A     -0.434600    12A     -0.382644
      13A     -0.382554    14A     -0.363610    15A     -0.338147
      16A     -0.337850    17A     -0.168960

    Alpha Virtual:

      18A      0.076073    19A      0.134094    20A      0.134220
      21A      0.142616    22A      0.142640    23A      0.154879
      24A      0.178773    25A      0.178780    26A      0.203546
      27A      0.214801    28A      0.275650    29A      0.276321
      30A      0.399216    31A      0.399230    32A      0.403356
      33A      0.424064    34A      0.424132    35A      0.456594
      36A      0.495339    37A      0.495440    38A      0.512147
      39A      0.513992    40A      0.578627    41A      0.579002
      42A      0.591409    43A      0.591863    44A      0.602571
      45A      0.624761    46A      0.631773    47A      0.636160
      48A      0.636340    49A      0.663208    50A      0.663617
      51A      0.683831    52A      0.683872    53A      0.734995
      54A      0.825378    55A      0.825438    56A      0.853915
      57A      0.914892    58A      0.915158    59A      0.944009
      60A      0.944718    61A      0.961257    62A      0.961339
      63A      1.003466    64A      1.128057    65A      1.128143
      66A      1.142212    67A      1.163163    68A      1.163403
      69A      1.223326    70A      1.274302    71A      1.274668
      72A      1.279358    73A      1.324236    74A      1.324480
      75A      1.355981    76A      1.365751    77A      1.366343
      78A      1.392462    79A      1.403733    80A      1.404372
      81A      1.416848    82A      1.417379    83A      1.427915
      84A      1.491466    85A      1.499106    86A      1.542691
      87A      1.542965    88A      1.574220    89A      1.574665
      90A      1.669831    91A      1.739152    92A      1.739686
      93A      1.768314    94A      1.830980    95A      1.831806
      96A      1.971726    97A      2.018193    98A      2.019026
      99A      2.019157   100A      2.051677   101A      2.053615
     102A      2.738430   103A      2.738537   104A      2.790922
     105A      2.811422   106A      2.889510   107A      2.890342
     108A      2.895000   109A      2.929326   110A      2.929669
     111A      2.958992   112A      2.964113   113A      2.964639
     114A      3.034007   115A      3.070990   116A      3.071577
     117A      3.084347   118A      3.168716   119A      3.168822
     120A      3.180613   121A      3.285270   122A      3.285359
     123A      3.326716   124A      3.327602   125A      3.375621
     126A      3.489929   127A      3.490399   128A      3.513987
     129A      3.525322   130A      3.567565   131A      3.569232
     132A      3.575153   133A      3.666164   134A      3.666574
     135A      3.679676   136A      3.693780   137A      3.694464
     138A      3.775450   139A      3.778113   140A      3.789168
     141A      3.911737   142A      3.912717   143A      4.034454
     144A      4.110348   145A      4.112395   146A      4.147572
     147A      4.148678   148A      4.173246   149A      4.202344
     150A      4.202838   151A      4.203602   152A      4.210874
     153A      4.315448   154A      4.316478   155A      4.358977
     156A      4.423954   157A      4.424952   158A      4.443435
     159A      4.516076   160A      4.517593   161A      4.577596
     162A      4.578927   163A      4.617530   164A      4.709442
     165A      4.773997   166A      4.775223   167A      4.836912
     168A      4.962849   169A      5.002334   170A      5.003581
     171A      5.228029   172A      5.246691   173A      5.246933
     174A      5.354553   175A      5.356460   176A      5.479349

    Beta Occupied:

       1A    -10.167960     2A    -10.167775     3A    -10.167589
       4A    -10.166518     5A     -0.781092     6A     -0.684120
       7A     -0.683858     8A     -0.511747     9A     -0.431121
      10A     -0.430963    11A     -0.421822    12A     -0.376717
      13A     -0.376651    14A     -0.362594    15A     -0.333270
      16A     -0.332972

    Beta Virtual:

      17A     -0.025742    18A      0.077081    19A      0.134980
      20A      0.135113    21A      0.144476    22A      0.144521
      23A      0.163337    24A      0.182443    25A      0.182453
      26A      0.215030    27A      0.218930    28A      0.282009
      29A      0.282658    30A      0.400395    31A      0.400398
      32A      0.419794    33A      0.426862    34A      0.426957
      35A      0.468502    36A      0.497607    37A      0.497693
      38A      0.513895    39A      0.556324    40A      0.584166
      41A      0.584564    42A      0.597608    43A      0.598021
      44A      0.609994    45A      0.628137    46A      0.631931
      47A      0.639424    48A      0.639646    49A      0.666783
      50A      0.667169    51A      0.686479    52A      0.686495
      53A      0.757517    54A      0.830574    55A      0.830579
      56A      0.855268    57A      0.922860    58A      0.923133
      59A      0.945941    60A      0.953551    61A      0.966534
      62A      0.966675    63A      1.008705    64A      1.132033
      65A      1.132225    66A      1.155586    67A      1.168299
      68A      1.168415    69A      1.232299    70A      1.279892
      71A      1.280269    72A      1.285116    73A      1.329238
      74A      1.329457    75A      1.365391    76A      1.371033
      77A      1.371547    78A      1.393525    79A      1.407171
      80A      1.407864    81A      1.421906    82A      1.422422
      83A      1.428186    84A      1.492528    85A      1.509536
      86A      1.547129    87A      1.547342    88A      1.582136
      89A      1.582495    90A      1.674678    91A      1.744900
      92A      1.745461    93A      1.779094    94A      1.834828
      95A      1.835668    96A      1.972586    97A      2.025359
      98A      2.025515    99A      2.039677   100A      2.058428
     101A      2.060298   102A      2.746739   103A      2.746900
     104A      2.811788   105A      2.816103   106A      2.902278
     107A      2.902998   108A      2.924641   109A      2.931818
     110A      2.932158   111A      2.960054   112A      2.968673
     113A      2.969169   114A      3.041942   115A      3.080941
     116A      3.081446   117A      3.086164   118A      3.184364
     119A      3.184621   120A      3.188348   121A      3.290065
     122A      3.290160   123A      3.330528   124A      3.331400
     125A      3.383440   126A      3.492638   127A      3.493150
     128A      3.512360   129A      3.528365   130A      3.575000
     131A      3.580940   132A      3.582542   133A      3.671048
     134A      3.671203   135A      3.692952   136A      3.725568
     137A      3.725942   138A      3.780030   139A      3.782608
     140A      3.817689   141A      3.921598   142A      3.922491
     143A      4.045341   144A      4.117166   145A      4.119207
     146A      4.154847   147A      4.155820   148A      4.187305
     149A      4.208496   150A      4.209416   151A      4.210711
     152A      4.215351   153A      4.322857   154A      4.323951
     155A      4.362340   156A      4.432189   157A      4.433143
     158A      4.446323   159A      4.523877   160A      4.525372
     161A      4.588193   162A      4.589531   163A      4.624726
     164A      4.719787   165A      4.780992   166A      4.782136
     167A      4.839830   168A      4.967643   169A      5.006355
     170A      5.007639   171A      5.233745   172A      5.248463
     173A      5.248729   174A      5.361013   175A      5.362962
     176A      5.481670

    Final Occupation by Irrep:
              A
    DOCC [    16 ]
    SOCC [     1 ]

  @DF-UKS Final Energy:  -157.81306926887268

   => Energetics <=

    Nuclear Repulsion Energy =            125.3946124508468927
    One-Electron Energy =                -458.7488924798550443
    Two-Electron Energy =                 195.8483540971332673
    DFT Exchange-Correlation Energy =     -20.3071433369978251
    Empirical Dispersion Energy =           0.0000000000000000
    VV10 Nonlocal Energy =                  0.0000000000000000
    Total Energy =                       -157.8130692688726811

  UHF NO Occupations:
  HONO-2 :   15  A 1.9996009
  HONO-1 :   16  A 1.9989805
  HONO-0 :   17  A 1.0000000
  LUNO+0 :   18  A 0.0010195
  LUNO+1 :   19  A 0.0003991
  LUNO+2 :   20  A 0.0001981
  LUNO+3 :   21  A 0.0001970

Computation Completed

Properties will be evaluated at   0.000000,   0.000000,   0.000000 [a0]

Properties computed using the SCF density matrix

  Nuclear Dipole Moment: [e a0]
     X:     0.8272      Y:    -0.0000      Z:     0.0033

  Electronic Dipole Moment: [e a0]
     X:    -0.7493      Y:     0.0000      Z:    -0.0033

  Dipole Moment: [e a0]
     X:     0.0779      Y:     0.0000      Z:     0.0000     Total:     0.0779

  Dipole Moment: [D]
     X:     0.1980      Y:     0.0000      Z:     0.0001     Total:     0.1980

*** tstop() called on n056 at Fri Nov  5 15:43:06 2021
Module time:
	user time   =     541.58 seconds =       9.03 minutes
	system time =      11.87 seconds =       0.20 minutes
	total time  =        139 seconds =       2.32 minutes
Total time:
	user time   =     541.58 seconds =       9.03 minutes
	system time =      11.87 seconds =       0.20 minutes
	total time  =        139 seconds =       2.32 minutes
Grab this energy -157.81306926887268
    Psi4 stopped on: Friday, 05 November 2021 03:43PM
    Psi4 wall time for execution: 0:02:19.17

*** Psi4 exiting successfully. Buy a developer a beer!
