                               Psi4 1.4a2.dev629

  ==> Input File <==

--------------------------------------------------------------------------
import os
memory 14 GB

molecule {
 C   -0.3233407446   -0.0019991976   -0.0000000383
 C    0.0610634693   -1.4001460877   -2.4263129155
 C    0.0611744991    2.8026060439    0.0016024613
 C    0.0610606202   -1.4029175145    2.4247144488
 H    2.0870434367   -1.6465656850   -2.8433724989
 H   -0.7641577489   -0.3858769669   -4.0214175087
 H   -0.7663055471   -3.2937861029   -2.3536315132
 H    2.0865690550    3.2926892965   -0.0006153540
 H   -0.7663514303    3.6800962830    1.6769660821
 H   -0.7659523049    3.6799665978   -1.6775680557
 H    2.0870483144   -1.6454816939    2.8439885474
 H   -0.7666945115   -3.2933240222    2.3540443118
 H   -0.7637649840   -0.3852852642    4.0216020329
units bohr
0 2
}

basis {

assign 6-31g_2dfp_

[ 6-31g_2dfp_ ]

spherical

!----------------------------------------------------------------------
! Basis Set Exchange
! Version v0.8.13
! https://www.basissetexchange.org
!----------------------------------------------------------------------
!   Basis set: 6-31G(2df,p)
! Description: 6-31G(2df,p)
!        Role: orbital
!     Version: 0  (Data from the original Basis Set Exchange)
!----------------------------------------------------------------------

****
H     0
S    3   1.00
     18.7311370              0.03349460
      2.8253937              0.23472695
      0.6401217              0.81375733
S    1   1.00
      0.1612778              1.00000000
P    1   1.00
      1.5000000              1.0000000
P    1   1.00
      0.3750000              1.0000000
****
B     0
S    6   1.00
   2068.8823000              0.0018663
    310.6495700              0.0142515
     70.6830330              0.0695516
     19.8610800              0.2325729
      6.2993048              0.4670787
      2.1270270              0.3634314
SP   3   1.00
      4.7279710             -0.1303938              0.0745976
      1.1903377             -0.1307889              0.3078467
      0.3594117              1.1309444              0.7434568
SP   1   1.00
      0.1267512              1.0000000              1.0000000
D    1   1.00
      0.8020000              1.0000000
D    1   1.00
      0.2005000              1.0000000
F    1   1.00
      0.5000000              1.0000000
****
C     0
S    6   1.00
   3047.5249000              0.0018347
    457.3695100              0.0140373
    103.9486900              0.0688426
     29.2101550              0.2321844
      9.2866630              0.4679413
      3.1639270              0.3623120
SP   3   1.00
      7.8682724             -0.1193324              0.0689991
      1.8812885             -0.1608542              0.3164240
      0.5442493              1.1434564              0.7443083
SP   1   1.00
      0.1687144              1.0000000              1.0000000
D    1   1.00
      1.2520000              1.0000000
D    1   1.00
      0.3130000              1.0000000
F    1   1.00
      0.8000000              1.0000000
****
N     0
S    6   1.00
   4173.5110000              0.0018348
    627.4579000              0.0139950
    142.9021000              0.0685870
     40.2343300              0.2322410
     12.8202100              0.4690700
      4.3904370              0.3604550
SP   3   1.00
     11.6263580             -0.1149610              0.0675800
      2.7162800             -0.1691180              0.3239070
      0.7722180              1.1458520              0.7408950
SP   1   1.00
      0.2120313              1.0000000              1.0000000
D    1   1.00
      1.8260000              1.0000000
D    1   1.00
      0.4565000              1.0000000
F    1   1.00
      1.0000000              1.0000000
****
O     0
S    6   1.00
   5484.6717000              0.0018311
    825.2349500              0.0139501
    188.0469600              0.0684451
     52.9645000              0.2327143
     16.8975700              0.4701930
      5.7996353              0.3585209
SP   3   1.00
     15.5396160             -0.1107775              0.0708743
      3.5999336             -0.1480263              0.3397528
      1.0137618              1.1307670              0.7271586
SP   1   1.00
      0.2700058              1.0000000              1.0000000
D    1   1.00
      2.5840000              1.0000000
D    1   1.00
      0.6460000              1.0000000
F    1   1.00
      1.4000000              1.0000000
****
F     0
S    6   1.00
   7001.7130900              0.0018196169
   1051.3660900              0.0139160796
    239.2856900              0.0684053245
     67.3974453              0.233185760
     21.5199573              0.471267439
      7.40310130             0.356618546
SP   3   1.00
     20.8479528             -0.108506975            0.0716287243
      4.80830834            -0.146451658            0.3459121030
      1.34406986             1.128688580            0.7224699570
SP   1   1.00
      0.358151393            1.0000000              1.0000000
D    1   1.00
      3.5000000              1.0000000
D    1   1.00
      0.8750000              1.0000000
F    1   1.00
      1.8500000              1.0000000
****
Al     0
S    6   1.00
  13983.1000000              0.00194267
   2098.7500000              0.0148599
    477.7050000              0.0728494
    134.3600000              0.2468300
     42.8709000              0.4872580
     14.5189000              0.3234960
SP   6   1.00
    239.6680000             -0.00292619             0.00460285
     57.4419000             -0.0374080              0.0331990
     18.2859000             -0.1144870              0.1362820
      6.5991400              0.1156350              0.3304760
      2.4904900              0.6125950              0.4491460
      0.9445400              0.3937990              0.2657040
SP   3   1.00
      1.2779000             -0.2276060             -0.0175130
      0.3975900              0.00144583             0.2445330
      0.1600950              1.0927900              0.8049340
SP   1   1.00
      0.0556577              1.0000000              1.0000000
D    1   1.00
      0.6500000              1.0000000
D    1   1.00
      0.1625000              1.0000000
F    1   1.00
      0.2500000              1.0000000
****
Si     0
S    6   1.00
  16115.9000000              0.00195948
   2425.5800000              0.01492880
    553.8670000              0.07284780
    156.3400000              0.24613000
     50.0683000              0.48591400
     17.0178000              0.32500200
SP   6   1.00
    292.7180000             -0.00278094             0.00443826
     69.8731000             -0.03571460             0.03266790
     22.3363000             -0.11498500             0.13472100
      8.1503900              0.09356340             0.32867800
      3.1345800              0.60301700             0.44964000
      1.2254300              0.41895900             0.26137200
SP   3   1.00
      1.7273800             -0.24463000            -0.01779510
      0.5729220              0.00431572             0.25353900
      0.2221920              1.09818000             0.80066900
SP   1   1.00
      0.0778369              1.00000000             1.00000000
D    1   1.00
      0.9000000              1.0000000
D    1   1.00
      0.2250000              1.0000000
F    1   1.00
      0.3200000              1.0000000
****
P     0
S    6   1.00
  19413.3000000              0.0018516
   2909.4200000              0.0142062
    661.3640000              0.0699995
    185.7590000              0.2400790
     59.1943000              0.4847620
     20.0310000              0.3352000
SP   6   1.00
    339.4780000             -0.00278217             0.00456462
     81.0101000             -0.0360499              0.03369360
     25.8780000             -0.1166310              0.13975500
      9.4522100              0.0968328              0.33936200
      3.6656600              0.6144180              0.45092100
      1.4674600              0.4037980              0.23858600
SP   3   1.00
      2.1562300             -0.2529230             -0.01776530
      0.7489970              0.0328517              0.27405800
      0.2831450              1.0812500              0.78542100
SP   1   1.00
      0.0998317              1.0000000              1.00000000
D    1   1.00
      1.1000000              1.0000000
D    1   1.00
      0.2750000              1.0000000
F    1   1.00
      0.4500000              1.0000000
****
S     0
S    6   1.00
  21917.1000000              0.0018690
   3301.4900000              0.0142300
    754.1460000              0.0696960
    212.7110000              0.2384870
     67.9896000              0.4833070
     23.0515000              0.3380740
SP   6   1.00
    423.7350000             -0.0023767              0.0040610
    100.7100000             -0.0316930              0.0306810
     32.1599000             -0.1133170              0.1304520
     11.8079000              0.0560900              0.3272050
      4.6311000              0.5922550              0.4528510
      1.8702500              0.4550060              0.2560420
SP   3   1.00
      2.6158400             -0.2503740             -0.0145110
      0.9221670              0.0669570              0.3102630
      0.3412870              1.0545100              0.7544830
SP   1   1.00
      0.1171670              1.0000000              1.0000000
D    1   1.00
      1.3000000              1.0000000
D    1   1.00
      0.3250000              1.0000000
F    1   1.00
      0.5500000              1.0000000
****
Cl     0
S    6   1.00
  25180.1000000              0.0018330
   3780.3500000              0.0140340
    860.4740000              0.0690970
    242.1450000              0.2374520
     77.3349000              0.4830340
     26.2470000              0.3398560
SP   6   1.00
    491.7650000             -0.0022974              0.0039894
    116.9840000             -0.0307140              0.0303180
     37.4153000             -0.1125280              0.1298800
     13.7834000              0.0450160              0.3279510
      5.4521500              0.5893530              0.4535270
      2.2258800              0.4652060              0.2521540
SP   3   1.00
      3.1864900             -0.2518300             -0.0142990
      1.1442700              0.0615890              0.3235720
      0.4203770              1.0601800              0.7435070
SP   1   1.00
      0.1426570              1.0000000              1.0000000
D    1   1.00
      1.5000000              1.0000000
D    1   1.00
      0.3750000              1.0000000
F    1   1.00
      0.7000000              1.0000000
****
}

set {
reference uhf
freeze_core true
e_convergence 10
d_convergence 10
dft_spherical_points 1202
dft_radial_points 99
}

e = energy('b3lyp')

print_out('Grab this energy {0}'.format(e))
--------------------------------------------------------------------------

    Molecular point group: c1

    Geometry (in Bohr), charge = 0, multiplicity = 2:

       Center              X                  Y                   Z               Mass
    ------------   -----------------  -----------------  -----------------  -----------------
         C           -0.323340326422    -0.001525579355    -0.000000800312    12.000000000000
         C            0.061063887478    -1.399672469455    -2.426313677512    12.000000000000
         C            0.061174917278     2.803079662145     0.001601699288    12.000000000000
         C            0.061061038378    -1.402443896255     2.424713686788    12.000000000000
         H            2.087043854878    -1.646092066755    -2.843373260912     1.007825032230
         H           -0.764157330722    -0.385403348655    -4.021418270712     1.007825032230
         H           -0.766305128922    -3.293312484655    -2.353632275212     1.007825032230
         H            2.086569473178     3.293162914745    -0.000616116012     1.007825032230
         H           -0.766351012122     3.680569901245     1.676965320088     1.007825032230
         H           -0.765951886722     3.680440216045    -1.677568817712     1.007825032230
         H            2.087048732578    -1.645008075655     2.843987785388     1.007825032230
         H           -0.766694093322    -3.292850403955     2.354043549788     1.007825032230
         H           -0.763764565822    -0.384811645955     4.021601270888     1.007825032230

  Charge       = 0
  Multiplicity = 2
  Basis Set: ANONYMOUS7F630324
    Blend: 6-31G_2DFP_
  Basis Set: (ANONYMOUS7F630324 AUX)
    Blend: DEF2-UNIVERSAL-JKFIT

    Orbital Energies [Eh]
    ---------------------

    Alpha Occupied:

       1A    -10.180342     2A    -10.167199     3A    -10.166939
       4A    -10.166907     5A     -0.797767     6A     -0.686308
       7A     -0.686065     8A     -0.530776     9A     -0.441129
      10A     -0.434742    11A     -0.434598    12A     -0.382634
      13A     -0.382564    14A     -0.363611    15A     -0.338063
      16A     -0.337933    17A     -0.168960

    Alpha Virtual:

      18A      0.076072    19A      0.134123    20A      0.134188
      21A      0.142567    22A      0.142686    23A      0.154879
      24A      0.178738    25A      0.178819    26A      0.203546
      27A      0.214806    28A      0.275718    29A      0.276253
      30A      0.399183    31A      0.399267    32A      0.403352
      33A      0.424042    34A      0.424154    35A      0.456592
      36A      0.495331    37A      0.495449    38A      0.512152
      39A      0.513986    40A      0.578524    41A      0.579109
      42A      0.591336    43A      0.591926    44A      0.602576
      45A      0.624747    46A      0.631789    47A      0.636216
      48A      0.636286    49A      0.663378    50A      0.663444
      51A      0.683823    52A      0.683885    53A      0.734994
      54A      0.825189    55A      0.825623    56A      0.853916
      57A      0.914878    58A      0.915161    59A      0.944122
      60A      0.944614    61A      0.960600    62A      0.961991
      63A      1.003463    64A      1.127893    65A      1.128310
      66A      1.142219    67A      1.163180    68A      1.163375
      69A      1.223324    70A      1.274333    71A      1.274643
      72A      1.279347    73A      1.324349    74A      1.324363
      75A      1.355986    76A      1.365898    77A      1.366214
      78A      1.392463    79A      1.403740    80A      1.404373
      81A      1.416713    82A      1.417501    83A      1.427904
      84A      1.491455    85A      1.499124    86A      1.542555
      87A      1.543097    88A      1.574443    89A      1.574458
      90A      1.669830    91A      1.739043    92A      1.739801
      93A      1.768320    94A      1.830909    95A      1.831886
      96A      1.971729    97A      2.018030    98A      2.019006
      99A      2.019362   100A      2.051832   101A      2.053447
     102A      2.738210   103A      2.738757   104A      2.790922
     105A      2.811423   106A      2.889641   107A      2.890231
     108A      2.894984   109A      2.929475   110A      2.929524
     111A      2.958996   112A      2.964234   113A      2.964520
     114A      3.034009   115A      3.071144   116A      3.071423
     117A      3.084347   118A      3.168579   119A      3.168995
     120A      3.180584   121A      3.285270   122A      3.285356
     123A      3.326827   124A      3.327494   125A      3.375620
     126A      3.490009   127A      3.490290   128A      3.513993
     129A      3.525332   130A      3.568109   131A      3.568591
     132A      3.575251   133A      3.666201   134A      3.666515
     135A      3.679625   136A      3.693727   137A      3.694580
     138A      3.775578   139A      3.778044   140A      3.789152
     141A      3.911961   142A      3.912499   143A      4.034451
     144A      4.110105   145A      4.112618   146A      4.147207
     147A      4.149015   148A      4.173280   149A      4.202612
     150A      4.203069   151A      4.203101   152A      4.210863
     153A      4.315163   154A      4.316702   155A      4.359028
     156A      4.424200   157A      4.424709   158A      4.443441
     159A      4.516419   160A      4.517251   161A      4.577925
     162A      4.578595   163A      4.617527   164A      4.709458
     165A      4.773492   166A      4.775694   167A      4.836955
     168A      4.962860   169A      5.002608   170A      5.003290
     171A      5.228038   172A      5.246339   173A      5.247296
     174A      5.354778   175A      5.356225   176A      5.479359

    Beta Occupied:

       1A    -10.167957     2A    -10.167692     3A    -10.167675
       4A    -10.166519     5A     -0.781092     6A     -0.684103
       7A     -0.683875     8A     -0.511747     9A     -0.431103
      10A     -0.430986    11A     -0.421819    12A     -0.376715
      13A     -0.376653    14A     -0.362595    15A     -0.333182
      16A     -0.333060

    Beta Virtual:

      17A     -0.025742    18A      0.077081    19A      0.135020
      20A      0.135069    21A      0.144436    22A      0.144559
      23A      0.163339    24A      0.182428    25A      0.182471
      26A      0.215029    27A      0.218935    28A      0.282076
      29A      0.282591    30A      0.400360    31A      0.400436
      32A      0.419789    33A      0.426851    34A      0.426970
      35A      0.468500    36A      0.497594    37A      0.497707
      38A      0.513894    39A      0.556324    40A      0.584073
      41A      0.584660    42A      0.597531    43A      0.598092
      44A      0.609997    45A      0.628118    46A      0.631951
      47A      0.639482    48A      0.639591    49A      0.666941
      50A      0.667009    51A      0.686437    52A      0.686542
      53A      0.757517    54A      0.830336    55A      0.830813
      56A      0.855269    57A      0.922884    58A      0.923096
      59A      0.945961    60A      0.953537    61A      0.965962
      62A      0.967246    63A      1.008704    64A      1.131847
      65A      1.132413    66A      1.155598    67A      1.168331
      68A      1.168368    69A      1.232296    70A      1.279931
      71A      1.280239    72A      1.285101    73A      1.329333
      74A      1.329356    75A      1.365400    76A      1.371170
      77A      1.371427    78A      1.393526    79A      1.407180
      80A      1.407863    81A      1.421770    82A      1.422546
      83A      1.428174    84A      1.492522    85A      1.509548
      86A      1.546963    87A      1.547505    88A      1.582315
      89A      1.582330    90A      1.674676    91A      1.744797
      92A      1.745570    93A      1.779099    94A      1.834768
      95A      1.835738    96A      1.972589    97A      2.025397
      98A      2.025491    99A      2.039690   100A      2.058520
     101A      2.060187   102A      2.746561   103A      2.747079
     104A      2.811795   105A      2.816097   106A      2.902420
     107A      2.902857   108A      2.924663   109A      2.931970
     110A      2.931991   111A      2.960058   112A      2.968796
     113A      2.969047   114A      3.041944   115A      3.081065
     116A      3.081323   117A      3.086164   118A      3.184301
     119A      3.184781   120A      3.188258   121A      3.290043
     122A      3.290179   123A      3.330649   124A      3.331281
     125A      3.383439   126A      3.492757   127A      3.492999
     128A      3.512369   129A      3.528376   130A      3.574922
     131A      3.581399   132A      3.582157   133A      3.671050
     134A      3.671199   135A      3.692923   136A      3.725650
     137A      3.725884   138A      3.780148   139A      3.782525
     140A      3.817699   141A      3.921795   142A      3.922298
     143A      4.045337   144A      4.117035   145A      4.119322
     146A      4.154397   147A      4.156247   148A      4.187334
     149A      4.208954   150A      4.209052   151A      4.210615
     152A      4.215340   153A      4.322579   154A      4.324158
     155A      4.362396   156A      4.432460   157A      4.432880
     158A      4.446326   159A      4.524219   160A      4.525030
     161A      4.588526   162A      4.589194   163A      4.624723
     164A      4.719803   165A      4.780486   166A      4.782606
     167A      4.839874   168A      4.967655   169A      5.006638
     170A      5.007338   171A      5.233754   172A      5.248115
     173A      5.249088   174A      5.361237   175A      5.362727
     176A      5.481680

    Final Occupation by Irrep:
              A
    DOCC [    16 ]
    SOCC [     1 ]

  @DF-UKS Final Energy:  -157.81306680841226

   => Energetics <=

    Nuclear Repulsion Energy =            125.3946299795342867
    One-Electron Energy =                -458.7489175180569418
    Two-Electron Energy =                 195.8483639369432296
    DFT Exchange-Correlation Energy =     -20.3071432068328157
    Empirical Dispersion Energy =           0.0000000000000000
    VV10 Nonlocal Energy =                  0.0000000000000000
    Total Energy =                       -157.8130668084122590

  UHF NO Occupations:
  HONO-2 :   15  A 1.9996009
  HONO-1 :   16  A 1.9989805
  HONO-0 :   17  A 1.0000000
  LUNO+0 :   18  A 0.0010195
  LUNO+1 :   19  A 0.0003991
  LUNO+2 :   20  A 0.0001979
  LUNO+3 :   21  A 0.0001972

Computation Completed

Properties will be evaluated at   0.000000,   0.000000,   0.000000 [a0]

Properties computed using the SCF density matrix

  Nuclear Dipole Moment: [e a0]
     X:     0.8272      Y:     0.0033      Z:    -0.0000

  Electronic Dipole Moment: [e a0]
     X:    -0.7493      Y:    -0.0033      Z:     0.0000

  Dipole Moment: [e a0]
     X:     0.0779      Y:    -0.0000      Z:     0.0000     Total:     0.0779

  Dipole Moment: [D]
     X:     0.1980      Y:    -0.0001      Z:     0.0000     Total:     0.1980

*** tstop() called on n080 at Fri Nov  5 12:49:37 2021
Module time:
	user time   =     493.58 seconds =       8.23 minutes
	system time =       4.49 seconds =       0.07 minutes
	total time  =        125 seconds =       2.08 minutes
Total time:
	user time   =     493.58 seconds =       8.23 minutes
	system time =       4.49 seconds =       0.07 minutes
	total time  =        125 seconds =       2.08 minutes
Grab this energy -157.81306680841226
    Psi4 stopped on: Friday, 05 November 2021 12:49PM
    Psi4 wall time for execution: 0:02:05.25

*** Psi4 exiting successfully. Buy a developer a beer!
