                               Psi4 1.4a2.dev629

  ==> Input File <==

--------------------------------------------------------------------------
import os
memory 14 GB

molecule {
 C   -0.3233390871   -0.0000014884    0.0002464163
 C    0.0621045565   -1.4015958707   -2.4258416247
 C    0.0610205146    2.8017600271   -0.0011143994
 C    0.0601795695   -1.4001579421    2.4269195743
 H    2.0897421856   -1.6481895608   -2.8511784577
 H   -0.7668287764   -0.3861938292   -4.0247232764
 H   -0.7613024942   -3.2885843464   -2.3462287323
 H    2.0867961405    3.2881049408   -0.0044556052
 H   -0.7670451276    3.6793406876    1.6788366128
 H   -0.7642465086    3.6811602302   -1.6741660451
 H    2.0841236625   -1.6400104660    2.8437105941
 H   -0.7698312944   -3.2954110484    2.3517622411
 H   -0.7639812176   -0.3902456475    4.0262327021
units bohr
0 2
}

basis {

assign 6-31g_2dfp_

[ 6-31g_2dfp_ ]

spherical

!----------------------------------------------------------------------
! Basis Set Exchange
! Version v0.8.13
! https://www.basissetexchange.org
!----------------------------------------------------------------------
!   Basis set: 6-31G(2df,p)
! Description: 6-31G(2df,p)
!        Role: orbital
!     Version: 0  (Data from the original Basis Set Exchange)
!----------------------------------------------------------------------

****
H     0
S    3   1.00
     18.7311370              0.03349460
      2.8253937              0.23472695
      0.6401217              0.81375733
S    1   1.00
      0.1612778              1.00000000
P    1   1.00
      1.5000000              1.0000000
P    1   1.00
      0.3750000              1.0000000
****
B     0
S    6   1.00
   2068.8823000              0.0018663
    310.6495700              0.0142515
     70.6830330              0.0695516
     19.8610800              0.2325729
      6.2993048              0.4670787
      2.1270270              0.3634314
SP   3   1.00
      4.7279710             -0.1303938              0.0745976
      1.1903377             -0.1307889              0.3078467
      0.3594117              1.1309444              0.7434568
SP   1   1.00
      0.1267512              1.0000000              1.0000000
D    1   1.00
      0.8020000              1.0000000
D    1   1.00
      0.2005000              1.0000000
F    1   1.00
      0.5000000              1.0000000
****
C     0
S    6   1.00
   3047.5249000              0.0018347
    457.3695100              0.0140373
    103.9486900              0.0688426
     29.2101550              0.2321844
      9.2866630              0.4679413
      3.1639270              0.3623120
SP   3   1.00
      7.8682724             -0.1193324              0.0689991
      1.8812885             -0.1608542              0.3164240
      0.5442493              1.1434564              0.7443083
SP   1   1.00
      0.1687144              1.0000000              1.0000000
D    1   1.00
      1.2520000              1.0000000
D    1   1.00
      0.3130000              1.0000000
F    1   1.00
      0.8000000              1.0000000
****
N     0
S    6   1.00
   4173.5110000              0.0018348
    627.4579000              0.0139950
    142.9021000              0.0685870
     40.2343300              0.2322410
     12.8202100              0.4690700
      4.3904370              0.3604550
SP   3   1.00
     11.6263580             -0.1149610              0.0675800
      2.7162800             -0.1691180              0.3239070
      0.7722180              1.1458520              0.7408950
SP   1   1.00
      0.2120313              1.0000000              1.0000000
D    1   1.00
      1.8260000              1.0000000
D    1   1.00
      0.4565000              1.0000000
F    1   1.00
      1.0000000              1.0000000
****
O     0
S    6   1.00
   5484.6717000              0.0018311
    825.2349500              0.0139501
    188.0469600              0.0684451
     52.9645000              0.2327143
     16.8975700              0.4701930
      5.7996353              0.3585209
SP   3   1.00
     15.5396160             -0.1107775              0.0708743
      3.5999336             -0.1480263              0.3397528
      1.0137618              1.1307670              0.7271586
SP   1   1.00
      0.2700058              1.0000000              1.0000000
D    1   1.00
      2.5840000              1.0000000
D    1   1.00
      0.6460000              1.0000000
F    1   1.00
      1.4000000              1.0000000
****
F     0
S    6   1.00
   7001.7130900              0.0018196169
   1051.3660900              0.0139160796
    239.2856900              0.0684053245
     67.3974453              0.233185760
     21.5199573              0.471267439
      7.40310130             0.356618546
SP   3   1.00
     20.8479528             -0.108506975            0.0716287243
      4.80830834            -0.146451658            0.3459121030
      1.34406986             1.128688580            0.7224699570
SP   1   1.00
      0.358151393            1.0000000              1.0000000
D    1   1.00
      3.5000000              1.0000000
D    1   1.00
      0.8750000              1.0000000
F    1   1.00
      1.8500000              1.0000000
****
Al     0
S    6   1.00
  13983.1000000              0.00194267
   2098.7500000              0.0148599
    477.7050000              0.0728494
    134.3600000              0.2468300
     42.8709000              0.4872580
     14.5189000              0.3234960
SP   6   1.00
    239.6680000             -0.00292619             0.00460285
     57.4419000             -0.0374080              0.0331990
     18.2859000             -0.1144870              0.1362820
      6.5991400              0.1156350              0.3304760
      2.4904900              0.6125950              0.4491460
      0.9445400              0.3937990              0.2657040
SP   3   1.00
      1.2779000             -0.2276060             -0.0175130
      0.3975900              0.00144583             0.2445330
      0.1600950              1.0927900              0.8049340
SP   1   1.00
      0.0556577              1.0000000              1.0000000
D    1   1.00
      0.6500000              1.0000000
D    1   1.00
      0.1625000              1.0000000
F    1   1.00
      0.2500000              1.0000000
****
Si     0
S    6   1.00
  16115.9000000              0.00195948
   2425.5800000              0.01492880
    553.8670000              0.07284780
    156.3400000              0.24613000
     50.0683000              0.48591400
     17.0178000              0.32500200
SP   6   1.00
    292.7180000             -0.00278094             0.00443826
     69.8731000             -0.03571460             0.03266790
     22.3363000             -0.11498500             0.13472100
      8.1503900              0.09356340             0.32867800
      3.1345800              0.60301700             0.44964000
      1.2254300              0.41895900             0.26137200
SP   3   1.00
      1.7273800             -0.24463000            -0.01779510
      0.5729220              0.00431572             0.25353900
      0.2221920              1.09818000             0.80066900
SP   1   1.00
      0.0778369              1.00000000             1.00000000
D    1   1.00
      0.9000000              1.0000000
D    1   1.00
      0.2250000              1.0000000
F    1   1.00
      0.3200000              1.0000000
****
P     0
S    6   1.00
  19413.3000000              0.0018516
   2909.4200000              0.0142062
    661.3640000              0.0699995
    185.7590000              0.2400790
     59.1943000              0.4847620
     20.0310000              0.3352000
SP   6   1.00
    339.4780000             -0.00278217             0.00456462
     81.0101000             -0.0360499              0.03369360
     25.8780000             -0.1166310              0.13975500
      9.4522100              0.0968328              0.33936200
      3.6656600              0.6144180              0.45092100
      1.4674600              0.4037980              0.23858600
SP   3   1.00
      2.1562300             -0.2529230             -0.01776530
      0.7489970              0.0328517              0.27405800
      0.2831450              1.0812500              0.78542100
SP   1   1.00
      0.0998317              1.0000000              1.00000000
D    1   1.00
      1.1000000              1.0000000
D    1   1.00
      0.2750000              1.0000000
F    1   1.00
      0.4500000              1.0000000
****
S     0
S    6   1.00
  21917.1000000              0.0018690
   3301.4900000              0.0142300
    754.1460000              0.0696960
    212.7110000              0.2384870
     67.9896000              0.4833070
     23.0515000              0.3380740
SP   6   1.00
    423.7350000             -0.0023767              0.0040610
    100.7100000             -0.0316930              0.0306810
     32.1599000             -0.1133170              0.1304520
     11.8079000              0.0560900              0.3272050
      4.6311000              0.5922550              0.4528510
      1.8702500              0.4550060              0.2560420
SP   3   1.00
      2.6158400             -0.2503740             -0.0145110
      0.9221670              0.0669570              0.3102630
      0.3412870              1.0545100              0.7544830
SP   1   1.00
      0.1171670              1.0000000              1.0000000
D    1   1.00
      1.3000000              1.0000000
D    1   1.00
      0.3250000              1.0000000
F    1   1.00
      0.5500000              1.0000000
****
Cl     0
S    6   1.00
  25180.1000000              0.0018330
   3780.3500000              0.0140340
    860.4740000              0.0690970
    242.1450000              0.2374520
     77.3349000              0.4830340
     26.2470000              0.3398560
SP   6   1.00
    491.7650000             -0.0022974              0.0039894
    116.9840000             -0.0307140              0.0303180
     37.4153000             -0.1125280              0.1298800
     13.7834000              0.0450160              0.3279510
      5.4521500              0.5893530              0.4535270
      2.2258800              0.4652060              0.2521540
SP   3   1.00
      3.1864900             -0.2518300             -0.0142990
      1.1442700              0.0615890              0.3235720
      0.4203770              1.0601800              0.7435070
SP   1   1.00
      0.1426570              1.0000000              1.0000000
D    1   1.00
      1.5000000              1.0000000
D    1   1.00
      0.3750000              1.0000000
F    1   1.00
      0.7000000              1.0000000
****
}

set {
reference uhf
freeze_core true
e_convergence 10
d_convergence 10
dft_spherical_points 1202
dft_radial_points 99
}

e = energy('b3lyp')

print_out('Grab this energy {0}'.format(e))
--------------------------------------------------------------------------

    Molecular point group: c1

    Geometry (in Bohr), charge = 0, multiplicity = 2:

       Center              X                  Y                   Z               Mass
    ------------   -----------------  -----------------  -----------------  -----------------
         C           -0.323340153825    -0.000001969277     0.000205975242    12.000000000000
         C            0.062103489775    -1.401596351577    -2.425882065758    12.000000000000
         C            0.061019447875     2.801759546223    -0.001154840458    12.000000000000
         C            0.060178502775    -1.400158422977     2.426879133242    12.000000000000
         H            2.089741118875    -1.648190041677    -2.851218898758     1.007825032230
         H           -0.766829843125    -0.386194310077    -4.024763717458     1.007825032230
         H           -0.761303560925    -3.288584827277    -2.346269173358     1.007825032230
         H            2.086795073775     3.288104459923    -0.004496046258     1.007825032230
         H           -0.767046194325     3.679340206723     1.678796171742     1.007825032230
         H           -0.764247575325     3.681159749323    -1.674206486158     1.007825032230
         H            2.084122595775    -1.640010946877     2.843670153042     1.007825032230
         H           -0.769832361125    -3.295411529277     2.351721800042     1.007825032230
         H           -0.763982284325    -0.390246128377     4.026192261042     1.007825032230

  Charge       = 0
  Multiplicity = 2
  Basis Set: ANONYMOUS54E6A2AF
    Blend: 6-31G_2DFP_
  Basis Set: (ANONYMOUS54E6A2AF AUX)
    Blend: DEF2-UNIVERSAL-JKFIT

    Orbital Energies [Eh]
    ---------------------

    Alpha Occupied:

       1A    -10.180342     2A    -10.167051     3A    -10.167020
       4A    -10.166973     5A     -0.797767     6A     -0.686218
       7A     -0.686159     8A     -0.530778     9A     -0.441125
      10A     -0.434758    11A     -0.434586    12A     -0.382823
      13A     -0.382373    14A     -0.363609    15A     -0.338152
      16A     -0.337846    17A     -0.168961

    Alpha Virtual:

      18A      0.076072    19A      0.134096    20A      0.134193
      21A      0.142429    22A      0.142840    23A      0.154879
      24A      0.178643    25A      0.178914    26A      0.203549
      27A      0.214804    28A      0.275965    29A      0.276006
      30A      0.399102    31A      0.399354    32A      0.403344
      33A      0.423994    34A      0.424200    35A      0.456593
      36A      0.495378    37A      0.495401    38A      0.512160
      39A      0.513982    40A      0.578684    41A      0.578938
      42A      0.591368    43A      0.591880    44A      0.602600
      45A      0.624719    46A      0.631802    47A      0.636035
      48A      0.636473    49A      0.663373    50A      0.663454
      51A      0.683749    52A      0.683976    53A      0.734993
      54A      0.825346    55A      0.825465    56A      0.853915
      57A      0.914707    58A      0.915343    59A      0.944084
      60A      0.944639    61A      0.961220    62A      0.961381
      63A      1.003455    64A      1.127707    65A      1.128517
      66A      1.142201    67A      1.163116    68A      1.163434
      69A      1.223323    70A      1.274384    71A      1.274586
      72A      1.279366    73A      1.324270    74A      1.324411
      75A      1.355968    76A      1.366053    77A      1.366066
      78A      1.392464    79A      1.403557    80A      1.404535
      81A      1.416771    82A      1.417449    83A      1.427926
      84A      1.491465    85A      1.499085    86A      1.542812
      87A      1.542850    88A      1.573971    89A      1.574948
      90A      1.669839    91A      1.739307    92A      1.739495
      93A      1.768325    94A      1.830979    95A      1.831835
      96A      1.971693    97A      2.018340    98A      2.018971
      99A      2.019133   100A      2.052186   101A      2.053108
     102A      2.738474   103A      2.738497   104A      2.790925
     105A      2.811431   106A      2.889776   107A      2.890101
     108A      2.894973   109A      2.929186   110A      2.929801
     111A      2.958988   112A      2.964207   113A      2.964570
     114A      3.033989   115A      3.070648   116A      3.071934
     117A      3.084370   118A      3.168556   119A      3.169012
     120A      3.180585   121A      3.285190   122A      3.285423
     123A      3.326300   124A      3.328054   125A      3.375615
     126A      3.489101   127A      3.491229   128A      3.513997
     129A      3.525345   130A      3.568216   131A      3.568419
     132A      3.575285   133A      3.665927   134A      3.666811
     135A      3.679682   136A      3.693461   137A      3.694766
     138A      3.776732   139A      3.776867   140A      3.789169
     141A      3.912106   142A      3.912361   143A      4.034440
     144A      4.111172   145A      4.111431   146A      4.148131
     147A      4.148195   148A      4.173120   149A      4.202198
     150A      4.202958   151A      4.203660   152A      4.211000
     153A      4.315762   154A      4.316152   155A      4.358969
     156A      4.424387   157A      4.424561   158A      4.443421
     159A      4.516203   160A      4.517454   161A      4.578259
     162A      4.578299   163A      4.617582   164A      4.709403
     165A      4.774017   166A      4.775206   167A      4.836909
     168A      4.962879   169A      5.002412   170A      5.003506
     171A      5.228051   172A      5.246190   173A      5.247286
     174A      5.355545   175A      5.355645   176A      5.479378

    Beta Occupied:

       1A    -10.167803     2A    -10.167776     3A    -10.167744
       4A    -10.166520     5A     -0.781092     6A     -0.684015
       7A     -0.683967     8A     -0.511749     9A     -0.431141
      10A     -0.430945    11A     -0.421823    12A     -0.376914
      13A     -0.376452    14A     -0.362594    15A     -0.333263
      16A     -0.332980

    Beta Virtual:

      17A     -0.025743    18A      0.077081    19A      0.134993
      20A      0.135076    21A      0.144322    22A      0.144689
      23A      0.163338    24A      0.182310    25A      0.182590
      26A      0.215027    27A      0.218937    28A      0.282308
      29A      0.282359    30A      0.400275    31A      0.400519
      32A      0.419791    33A      0.426804    34A      0.427012
      35A      0.468500    36A      0.497638    37A      0.497663
      38A      0.513897    39A      0.556325    40A      0.584229
      41A      0.584494    42A      0.597544    43A      0.598066
      44A      0.610016    45A      0.628066    46A      0.631999
      47A      0.639318    48A      0.639752    49A      0.666929
      50A      0.667027    51A      0.686400    52A      0.686595
      53A      0.757516    54A      0.830518    55A      0.830631
      56A      0.855268    57A      0.922705    58A      0.923289
      59A      0.945944    60A      0.953543    61A      0.966539
      62A      0.966674    63A      1.008695    64A      1.131780
      65A      1.132499    66A      1.155572    67A      1.168159
      68A      1.168544    69A      1.232295    70A      1.279995
      71A      1.280171    72A      1.285119    73A      1.329253
      74A      1.329404    75A      1.365369    76A      1.371287
      77A      1.371337    78A      1.393524    79A      1.407016
      80A      1.408006    81A      1.421820    82A      1.422487
      83A      1.428208    84A      1.492526    85A      1.509512
      86A      1.547137    87A      1.547352    88A      1.581749
      89A      1.582905    90A      1.674685    91A      1.745073
      92A      1.745255    93A      1.779104    94A      1.834839
      95A      1.835687    96A      1.972567    97A      2.025392
      98A      2.025516    99A      2.039698   100A      2.058889
     101A      2.059836   102A      2.746798   103A      2.746844
     104A      2.811839   105A      2.816065   106A      2.902453
     107A      2.902826   108A      2.924652   109A      2.931679
     110A      2.932271   111A      2.960056   112A      2.968749
     113A      2.969112   114A      3.041920   115A      3.080516
     116A      3.081888   117A      3.086191   118A      3.184308
     119A      3.184767   120A      3.188258   121A      3.289951
     122A      3.290258   123A      3.330115   124A      3.331848
     125A      3.383433   126A      3.491854   127A      3.493937
     128A      3.512366   129A      3.528385   130A      3.574885
     131A      3.581642   132A      3.581934   133A      3.670692
     134A      3.671546   135A      3.692965   136A      3.725345
     137A      3.726161   138A      3.781285   139A      3.781373
     140A      3.817699   141A      3.921916   142A      3.922183
     143A      4.045328   144A      4.118010   145A      4.118215
     146A      4.155266   147A      4.155493   148A      4.187132
     149A      4.208589   150A      4.209264   151A      4.210775
     152A      4.215543   153A      4.323233   154A      4.323566
     155A      4.362331   156A      4.432591   157A      4.432787
     158A      4.446302   159A      4.524001   160A      4.525237
     161A      4.588846   162A      4.588914   163A      4.624774
     164A      4.719746   165A      4.780941   166A      4.782190
     167A      4.839826   168A      4.967674   169A      5.006467
     170A      5.007530   171A      5.233766   172A      5.247980
     173A      5.249073   174A      5.362028   175A      5.362113
     176A      5.481699

    Final Occupation by Irrep:
              A
    DOCC [    16 ]
    SOCC [     1 ]

  @DF-UKS Final Energy:  -157.81305518280220

   => Energetics <=

    Nuclear Repulsion Energy =            125.3946471407430607
    One-Electron Energy =                -458.7489147664658162
    Two-Electron Energy =                 195.8483591424591168
    DFT Exchange-Correlation Energy =     -20.3071466995385812
    Empirical Dispersion Energy =           0.0000000000000000
    VV10 Nonlocal Energy =                  0.0000000000000000
    Total Energy =                       -157.8130551828022021

  UHF NO Occupations:
  HONO-2 :   15  A 1.9996009
  HONO-1 :   16  A 1.9989805
  HONO-0 :   17  A 1.0000000
  LUNO+0 :   18  A 0.0010195
  LUNO+1 :   19  A 0.0003991
  LUNO+2 :   20  A 0.0001977
  LUNO+3 :   21  A 0.0001974

Computation Completed

Properties will be evaluated at   0.000000,   0.000000,   0.000000 [a0]

Properties computed using the SCF density matrix

  Nuclear Dipole Moment: [e a0]
     X:     0.8272      Y:    -0.0000      Z:    -0.0003

  Electronic Dipole Moment: [e a0]
     X:    -0.7493      Y:     0.0000      Z:     0.0010

  Dipole Moment: [e a0]
     X:     0.0779      Y:     0.0000      Z:     0.0008     Total:     0.0779

  Dipole Moment: [D]
     X:     0.1980      Y:     0.0000      Z:     0.0019     Total:     0.1980

*** tstop() called on n054 at Fri Nov  5 14:41:30 2021
Module time:
	user time   =     513.87 seconds =       8.56 minutes
	system time =      11.61 seconds =       0.19 minutes
	total time  =        132 seconds =       2.20 minutes
Total time:
	user time   =     513.87 seconds =       8.56 minutes
	system time =      11.61 seconds =       0.19 minutes
	total time  =        132 seconds =       2.20 minutes
Grab this energy -157.8130551828022
    Psi4 stopped on: Friday, 05 November 2021 02:41PM
    Psi4 wall time for execution: 0:02:12.19

*** Psi4 exiting successfully. Buy a developer a beer!
