                               Psi4 1.4a2.dev629

  ==> Input File <==

--------------------------------------------------------------------------
import os
memory 14 GB

molecule {
 C   -0.3218893619    0.0004300247   -0.0000000000
 C    0.0601301262   -1.3999096843   -2.4271099210
 C    0.0604745424    2.8017465860   -0.0000000000
 C    0.0601301262   -1.3999096843    2.4271099210
 H    2.0874442947   -1.6414500455   -2.8489128233
 H   -0.7626468404   -0.3900082632   -4.0236281905
 H   -0.7683577108   -3.2938731588   -2.3488960163
 H    2.0859381950    3.2880684627   -0.0000000000
 H   -0.7651354958    3.6801064583    1.6774727633
 H   -0.7651354958    3.6801064583   -1.6774727633
 H    2.0874442947   -1.6414500455    2.8489128233
 H   -0.7683577108   -3.2938731588    2.3488960163
 H   -0.7626468404   -0.3900082632    4.0236281905
units bohr
0 2
}

basis {

assign 6-31g_2dfp_

[ 6-31g_2dfp_ ]

spherical

!----------------------------------------------------------------------
! Basis Set Exchange
! Version v0.8.13
! https://www.basissetexchange.org
!----------------------------------------------------------------------
!   Basis set: 6-31G(2df,p)
! Description: 6-31G(2df,p)
!        Role: orbital
!     Version: 0  (Data from the original Basis Set Exchange)
!----------------------------------------------------------------------

****
H     0
S    3   1.00
     18.7311370              0.03349460
      2.8253937              0.23472695
      0.6401217              0.81375733
S    1   1.00
      0.1612778              1.00000000
P    1   1.00
      1.5000000              1.0000000
P    1   1.00
      0.3750000              1.0000000
****
B     0
S    6   1.00
   2068.8823000              0.0018663
    310.6495700              0.0142515
     70.6830330              0.0695516
     19.8610800              0.2325729
      6.2993048              0.4670787
      2.1270270              0.3634314
SP   3   1.00
      4.7279710             -0.1303938              0.0745976
      1.1903377             -0.1307889              0.3078467
      0.3594117              1.1309444              0.7434568
SP   1   1.00
      0.1267512              1.0000000              1.0000000
D    1   1.00
      0.8020000              1.0000000
D    1   1.00
      0.2005000              1.0000000
F    1   1.00
      0.5000000              1.0000000
****
C     0
S    6   1.00
   3047.5249000              0.0018347
    457.3695100              0.0140373
    103.9486900              0.0688426
     29.2101550              0.2321844
      9.2866630              0.4679413
      3.1639270              0.3623120
SP   3   1.00
      7.8682724             -0.1193324              0.0689991
      1.8812885             -0.1608542              0.3164240
      0.5442493              1.1434564              0.7443083
SP   1   1.00
      0.1687144              1.0000000              1.0000000
D    1   1.00
      1.2520000              1.0000000
D    1   1.00
      0.3130000              1.0000000
F    1   1.00
      0.8000000              1.0000000
****
N     0
S    6   1.00
   4173.5110000              0.0018348
    627.4579000              0.0139950
    142.9021000              0.0685870
     40.2343300              0.2322410
     12.8202100              0.4690700
      4.3904370              0.3604550
SP   3   1.00
     11.6263580             -0.1149610              0.0675800
      2.7162800             -0.1691180              0.3239070
      0.7722180              1.1458520              0.7408950
SP   1   1.00
      0.2120313              1.0000000              1.0000000
D    1   1.00
      1.8260000              1.0000000
D    1   1.00
      0.4565000              1.0000000
F    1   1.00
      1.0000000              1.0000000
****
O     0
S    6   1.00
   5484.6717000              0.0018311
    825.2349500              0.0139501
    188.0469600              0.0684451
     52.9645000              0.2327143
     16.8975700              0.4701930
      5.7996353              0.3585209
SP   3   1.00
     15.5396160             -0.1107775              0.0708743
      3.5999336             -0.1480263              0.3397528
      1.0137618              1.1307670              0.7271586
SP   1   1.00
      0.2700058              1.0000000              1.0000000
D    1   1.00
      2.5840000              1.0000000
D    1   1.00
      0.6460000              1.0000000
F    1   1.00
      1.4000000              1.0000000
****
F     0
S    6   1.00
   7001.7130900              0.0018196169
   1051.3660900              0.0139160796
    239.2856900              0.0684053245
     67.3974453              0.233185760
     21.5199573              0.471267439
      7.40310130             0.356618546
SP   3   1.00
     20.8479528             -0.108506975            0.0716287243
      4.80830834            -0.146451658            0.3459121030
      1.34406986             1.128688580            0.7224699570
SP   1   1.00
      0.358151393            1.0000000              1.0000000
D    1   1.00
      3.5000000              1.0000000
D    1   1.00
      0.8750000              1.0000000
F    1   1.00
      1.8500000              1.0000000
****
Al     0
S    6   1.00
  13983.1000000              0.00194267
   2098.7500000              0.0148599
    477.7050000              0.0728494
    134.3600000              0.2468300
     42.8709000              0.4872580
     14.5189000              0.3234960
SP   6   1.00
    239.6680000             -0.00292619             0.00460285
     57.4419000             -0.0374080              0.0331990
     18.2859000             -0.1144870              0.1362820
      6.5991400              0.1156350              0.3304760
      2.4904900              0.6125950              0.4491460
      0.9445400              0.3937990              0.2657040
SP   3   1.00
      1.2779000             -0.2276060             -0.0175130
      0.3975900              0.00144583             0.2445330
      0.1600950              1.0927900              0.8049340
SP   1   1.00
      0.0556577              1.0000000              1.0000000
D    1   1.00
      0.6500000              1.0000000
D    1   1.00
      0.1625000              1.0000000
F    1   1.00
      0.2500000              1.0000000
****
Si     0
S    6   1.00
  16115.9000000              0.00195948
   2425.5800000              0.01492880
    553.8670000              0.07284780
    156.3400000              0.24613000
     50.0683000              0.48591400
     17.0178000              0.32500200
SP   6   1.00
    292.7180000             -0.00278094             0.00443826
     69.8731000             -0.03571460             0.03266790
     22.3363000             -0.11498500             0.13472100
      8.1503900              0.09356340             0.32867800
      3.1345800              0.60301700             0.44964000
      1.2254300              0.41895900             0.26137200
SP   3   1.00
      1.7273800             -0.24463000            -0.01779510
      0.5729220              0.00431572             0.25353900
      0.2221920              1.09818000             0.80066900
SP   1   1.00
      0.0778369              1.00000000             1.00000000
D    1   1.00
      0.9000000              1.0000000
D    1   1.00
      0.2250000              1.0000000
F    1   1.00
      0.3200000              1.0000000
****
P     0
S    6   1.00
  19413.3000000              0.0018516
   2909.4200000              0.0142062
    661.3640000              0.0699995
    185.7590000              0.2400790
     59.1943000              0.4847620
     20.0310000              0.3352000
SP   6   1.00
    339.4780000             -0.00278217             0.00456462
     81.0101000             -0.0360499              0.03369360
     25.8780000             -0.1166310              0.13975500
      9.4522100              0.0968328              0.33936200
      3.6656600              0.6144180              0.45092100
      1.4674600              0.4037980              0.23858600
SP   3   1.00
      2.1562300             -0.2529230             -0.01776530
      0.7489970              0.0328517              0.27405800
      0.2831450              1.0812500              0.78542100
SP   1   1.00
      0.0998317              1.0000000              1.00000000
D    1   1.00
      1.1000000              1.0000000
D    1   1.00
      0.2750000              1.0000000
F    1   1.00
      0.4500000              1.0000000
****
S     0
S    6   1.00
  21917.1000000              0.0018690
   3301.4900000              0.0142300
    754.1460000              0.0696960
    212.7110000              0.2384870
     67.9896000              0.4833070
     23.0515000              0.3380740
SP   6   1.00
    423.7350000             -0.0023767              0.0040610
    100.7100000             -0.0316930              0.0306810
     32.1599000             -0.1133170              0.1304520
     11.8079000              0.0560900              0.3272050
      4.6311000              0.5922550              0.4528510
      1.8702500              0.4550060              0.2560420
SP   3   1.00
      2.6158400             -0.2503740             -0.0145110
      0.9221670              0.0669570              0.3102630
      0.3412870              1.0545100              0.7544830
SP   1   1.00
      0.1171670              1.0000000              1.0000000
D    1   1.00
      1.3000000              1.0000000
D    1   1.00
      0.3250000              1.0000000
F    1   1.00
      0.5500000              1.0000000
****
Cl     0
S    6   1.00
  25180.1000000              0.0018330
   3780.3500000              0.0140340
    860.4740000              0.0690970
    242.1450000              0.2374520
     77.3349000              0.4830340
     26.2470000              0.3398560
SP   6   1.00
    491.7650000             -0.0022974              0.0039894
    116.9840000             -0.0307140              0.0303180
     37.4153000             -0.1125280              0.1298800
     13.7834000              0.0450160              0.3279510
      5.4521500              0.5893530              0.4535270
      2.2258800              0.4652060              0.2521540
SP   3   1.00
      3.1864900             -0.2518300             -0.0142990
      1.1442700              0.0615890              0.3235720
      0.4203770              1.0601800              0.7435070
SP   1   1.00
      0.1426570              1.0000000              1.0000000
D    1   1.00
      1.5000000              1.0000000
D    1   1.00
      0.3750000              1.0000000
F    1   1.00
      0.7000000              1.0000000
****
}

set {
reference uhf
freeze_core true
e_convergence 10
d_convergence 10
dft_spherical_points 1202
dft_radial_points 99
}

e = energy('b3lyp')

print_out('Grab this energy {0}'.format(e))
--------------------------------------------------------------------------

    Molecular point group: cs

    Geometry (in Bohr), charge = 0, multiplicity = 2:

       Center              X                  Y                   Z               Mass
    ------------   -----------------  -----------------  -----------------  -----------------
         C           -0.321674685330    -0.000023567745     0.000000000000    12.000000000000
         C            0.060344802770    -1.400363276745    -2.427109921000    12.000000000000
         C            0.060689218970     2.801292993555     0.000000000000    12.000000000000
         C            0.060344802770    -1.400363276745     2.427109921000    12.000000000000
         H            2.087658971270    -1.641903637945    -2.848912823300     1.007825032230
         H           -0.762432163830    -0.390461855645    -4.023628190500     1.007825032230
         H           -0.768143034230    -3.294326751245    -2.348896016300     1.007825032230
         H            2.086152871570     3.287614870255     0.000000000000     1.007825032230
         H           -0.764920819230     3.679652865855     1.677472763300     1.007825032230
         H           -0.764920819230     3.679652865855    -1.677472763300     1.007825032230
         H            2.087658971270    -1.641903637945     2.848912823300     1.007825032230
         H           -0.768143034230    -3.294326751245     2.348896016300     1.007825032230
         H           -0.762432163830    -0.390461855645     4.023628190500     1.007825032230

  Charge       = 0
  Multiplicity = 2
  Basis Set: ANONYMOUS02B63795
    Blend: 6-31G_2DFP_
  Basis Set: (ANONYMOUS02B63795 AUX)
    Blend: DEF2-UNIVERSAL-JKFIT

    Orbital Energies [Eh]
    ---------------------

    Alpha Occupied:

       1Ap   -10.180277     2Ap   -10.167043     1App  -10.167035
       3Ap   -10.166992     4Ap    -0.797782     2App   -0.686266
       5Ap    -0.686145     6Ap    -0.530772     7Ap    -0.441069
       8Ap    -0.434918     3App   -0.434548     9Ap    -0.382515
       4App   -0.382469     5App   -0.363738     6App   -0.338251
      10Ap    -0.337929    11Ap    -0.168778

    Alpha Virtual:

      12Ap     0.076067    13Ap     0.134045     7App    0.134270
       8App    0.142448    14Ap     0.142854    15Ap     0.154802
       9App    0.178615    16Ap     0.178804    17Ap     0.203521
      10App    0.214852    11App    0.276048    18Ap     0.276269
      19Ap     0.398999    12App    0.399497    20Ap     0.403425
      21Ap     0.423963    13App    0.424287    22Ap     0.456499
      23Ap     0.495364    14App    0.495466    15App    0.512115
      24Ap     0.514078    16App    0.578635    25Ap     0.578742
      17App    0.591463    26Ap     0.591748    27Ap     0.602351
      28Ap     0.624799    18App    0.631829    19App    0.636122
      29Ap     0.636738    20App    0.663044    30Ap     0.663462
      31Ap     0.683766    21App    0.684174    32Ap     0.735190
      22App    0.825209    33Ap     0.825715    23App    0.853914
      34Ap     0.914878    24App    0.915301    25App    0.944077
      35Ap     0.944559    36Ap     0.961203    26App    0.961352
      37Ap     1.003455    38Ap     1.127729    27App    1.128307
      39Ap     1.142205    40Ap     1.162771    28App    1.162904
      41Ap     1.223485    29App    1.274308    42Ap     1.274798
      43Ap     1.279115    30App    1.324395    44Ap     1.324810
      45Ap     1.355752    31App    1.366120    46Ap     1.366739
      32App    1.392443    33App    1.403962    47Ap     1.404042
      48Ap     1.416181    34App    1.417564    35App    1.427851
      36App    1.491681    49Ap     1.498678    50Ap     1.542764
      37App    1.542812    38App    1.574537    51Ap     1.574927
      52Ap     1.670100    39App    1.738955    53Ap     1.740353
      54Ap     1.768266    55Ap     1.831018    40App    1.832532
      41App    1.972017    42App    2.018167    56Ap     2.018443
      57Ap     2.020183    43App    2.051718    58Ap     2.052795
      44App    2.738498    59Ap     2.738859    60Ap     2.790725
      45App    2.811458    46App    2.890050    61Ap     2.890356
      62Ap     2.894627    47App    2.929460    63Ap     2.929495
      48App    2.959030    49App    2.964471    64Ap     2.964539
      65Ap     3.033655    66Ap     3.071593    50App    3.072590
      51App    3.084517    52App    3.168249    67Ap     3.169074
      68Ap     3.180623    69Ap     3.284360    53App    3.284663
      54App    3.326441    70Ap     3.327176    71Ap     3.375458
      72Ap     3.490127    55App    3.490661    56App    3.514199
      73Ap     3.524865    74Ap     3.568254    57App    3.569107
      58App    3.574501    59App    3.666508    75Ap     3.667443
      76Ap     3.679862    77Ap     3.693840    60App    3.694296
      61App    3.776981    78Ap     3.777174    79Ap     3.790391
      80Ap     3.911665    62App    3.912827    81Ap     4.034755
      63App    4.111047    82Ap     4.112104    83Ap     4.147774
      64App    4.148455    84Ap     4.173379    85Ap     4.202022
      86Ap     4.203027    65App    4.203477    66App    4.210930
      87Ap     4.315103    67App    4.316430    68App    4.358494
      69App    4.424069    88Ap     4.425160    70App    4.443707
      71App    4.515497    89Ap     4.517585    72App    4.578153
      90Ap     4.578159    91Ap     4.618042    92Ap     4.709104
      73App    4.773757    93Ap     4.775760    74App    4.838103
      94Ap     4.962766    75App    5.002443    95Ap     5.003177
      96Ap     5.227690    76App    5.246980    97Ap     5.247265
      77App    5.354511    98Ap     5.357080    78App    5.479779

    Beta Occupied:

       1Ap   -10.167798     1App  -10.167790     2Ap   -10.167766
       3Ap   -10.166458     4Ap    -0.781102     2App   -0.684072
       5Ap    -0.683948     6Ap    -0.511752     7Ap    -0.431302
       3App   -0.430928     8Ap    -0.421732     9Ap    -0.376585
       4App   -0.376548     5App   -0.362723     6App   -0.333367
      10Ap    -0.333052

    Beta Virtual:

      11Ap    -0.025642    12Ap     0.077080    13Ap     0.134920
       7App    0.135196     8App    0.144287    14Ap     0.144750
      15Ap     0.163271     9App    0.182286    16Ap     0.182473
      10App    0.215081    17Ap     0.218926    11App    0.282385
      18Ap     0.282604    19Ap     0.400165    12App    0.400671
      20Ap     0.419897    21Ap     0.426772    13App    0.427096
      22Ap     0.468394    23Ap     0.497615    14App    0.497727
      15App    0.513855    24Ap     0.556424    16App    0.584200
      25Ap     0.584305    17App    0.597614    26Ap     0.597943
      27Ap     0.609802    28Ap     0.628154    18App    0.631986
      19App    0.639422    29Ap     0.639997    20App    0.666621
      30Ap     0.667009    31Ap     0.686429    21App    0.686792
      32Ap     0.757693    22App    0.830386    33Ap     0.830867
      23App    0.855271    34Ap     0.922859    24App    0.923242
      25App    0.945917    35Ap     0.953492    36Ap     0.966526
      26App    0.966709    37Ap     1.008676    38Ap     1.131755
      27App    1.132323    39Ap     1.155615    40Ap     1.167851
      28App    1.167975    41Ap     1.232461    29App    1.279872
      42Ap     1.280395    43Ap     1.284862    30App    1.329377
      44Ap     1.329789    45Ap     1.365193    31App    1.371431
      46Ap     1.371922    32App    1.393508    33App    1.407410
      47Ap     1.407528    48Ap     1.421305    34App    1.422584
      35App    1.428114    36App    1.492732    49Ap     1.509115
      50Ap     1.547145    37App    1.547253    38App    1.582405
      51Ap     1.582798    52Ap     1.674931    39App    1.744704
      53Ap     1.746134    54Ap     1.779064    55Ap     1.834877
      40App    1.836399    41App    1.972878    42App    2.024600
      56Ap     2.025676    57Ap     2.040687    43App    2.058400
      58Ap     2.059517    44App    2.746822    59Ap     2.747208
      45App    2.811861    60Ap     2.815880    46App    2.902649
      61Ap     2.903043    62Ap     2.924354    63Ap     2.931941
      47App    2.931998    48App    2.960106    49App    2.968983
      64Ap     2.969082    65Ap     3.041631    66Ap     3.081466
      50App    3.082278    51App    3.086519    52App    3.184137
      67Ap     3.184881    68Ap     3.188262    69Ap     3.289186
      53App    3.289514    54App    3.330201    70Ap     3.331007
      71Ap     3.383267    72Ap     3.492852    55App    3.493361
      56App    3.512558    73Ap     3.527902    57App    3.574360
      74Ap     3.581472    58App    3.582483    59App    3.671411
      75Ap     3.672069    76Ap     3.693172    77Ap     3.725645
      60App    3.725730    61App    3.781435    78Ap     3.781698
      79Ap     3.818941    80Ap     3.921451    62App    3.922747
      81Ap     4.045615    63App    4.117667    82Ap     4.119149
      83Ap     4.154757    64App    4.155877    84Ap     4.187454
      85Ap     4.207995    65App    4.209369    86Ap     4.210980
      66App    4.215443    87Ap     4.322565    67App    4.323812
      68App    4.361856    69App    4.432341    88Ap     4.433399
      70App    4.446588    71App    4.523297    89Ap     4.525400
      72App    4.588689    90Ap     4.588759    91Ap     4.625243
      92Ap     4.719423    73App    4.780722    93Ap     4.782673
      74App    4.841009    94Ap     4.967563    75App    5.006498
      95Ap     5.007228    96Ap     5.233298    76App    5.248753
      97Ap     5.249171    77App    5.360991    98Ap     5.363539
      78App    5.482095

    Final Occupation by Irrep:
             Ap   App
    DOCC [    10,    6 ]
    SOCC [     1,    0 ]

  @DF-UKS Final Energy:  -157.81306860839609

   => Energetics <=

    Nuclear Repulsion Energy =            125.3970587491578073
    One-Electron Energy =                -458.7535881140980791
    Two-Electron Energy =                 195.8506751370587153
    DFT Exchange-Correlation Energy =     -20.3072143805145124
    Empirical Dispersion Energy =           0.0000000000000000
    VV10 Nonlocal Energy =                  0.0000000000000000
    Total Energy =                       -157.8130686083960939

  UHF NO Occupations:
  HONO-2 :    9 Ap 1.9995994
  HONO-1 :   10 Ap 1.9989790
  HONO-0 :   11 Ap 1.0000000
  LUNO+0 :   12 Ap 0.0010210
  LUNO+1 :   13 Ap 0.0004006
  LUNO+2 :   14 Ap 0.0001974
  LUNO+3 :    7App 0.0001974

Computation Completed

Properties will be evaluated at   0.000000,   0.000000,   0.000000 [a0]

Properties computed using the SCF density matrix

  Nuclear Dipole Moment: [e a0]
     X:     0.8287      Y:    -0.0032      Z:     0.0000

  Electronic Dipole Moment: [e a0]
     X:    -0.7516      Y:     0.0049      Z:     0.0000

  Dipole Moment: [e a0]
     X:     0.0771      Y:     0.0017      Z:     0.0000     Total:     0.0772

  Dipole Moment: [D]
     X:     0.1961      Y:     0.0044      Z:     0.0000     Total:     0.1961

*** tstop() called on n041 at Fri Nov  5 11:34:51 2021
Module time:
	user time   =     594.81 seconds =       9.91 minutes
	system time =      11.52 seconds =       0.19 minutes
	total time  =        153 seconds =       2.55 minutes
Total time:
	user time   =     594.81 seconds =       9.91 minutes
	system time =      11.52 seconds =       0.19 minutes
	total time  =        153 seconds =       2.55 minutes
Grab this energy -157.8130686083961
    Psi4 stopped on: Friday, 05 November 2021 11:34AM
    Psi4 wall time for execution: 0:02:32.89

*** Psi4 exiting successfully. Buy a developer a beer!
