                               Psi4 1.4a2.dev629

  ==> Input File <==

--------------------------------------------------------------------------
import os
memory 14 GB

molecule {
 C   -0.3201710126    0.0053437905   -0.0000000000
 C    0.0625384013   -1.3999443517   -2.4266750891
 C    0.0622008676    2.8016376033   -0.0000000000
 C    0.0625384013   -1.3999443517    2.4266750891
 H    2.0864852064   -1.6448616508   -2.8470368298
 H   -0.7671857294   -0.3892495283   -4.0247843045
 H   -0.7658956029   -3.2927342600   -2.3501742265
 H    2.0867071283    3.2872391922    0.0000000000
 H   -0.7666147054    3.6796673409    1.6764878700
 H   -0.7666147054    3.6796673409   -1.6764878700
 H    2.0864852064   -1.6448616508    2.8470368298
 H   -0.7658956029   -3.2927342600    2.3501742265
 H   -0.7671857294   -0.3892495283    4.0247843045
units bohr
0 2
}

basis {

assign 6-31g_2dfp_

[ 6-31g_2dfp_ ]

spherical

!----------------------------------------------------------------------
! Basis Set Exchange
! Version v0.8.13
! https://www.basissetexchange.org
!----------------------------------------------------------------------
!   Basis set: 6-31G(2df,p)
! Description: 6-31G(2df,p)
!        Role: orbital
!     Version: 0  (Data from the original Basis Set Exchange)
!----------------------------------------------------------------------

****
H     0
S    3   1.00
     18.7311370              0.03349460
      2.8253937              0.23472695
      0.6401217              0.81375733
S    1   1.00
      0.1612778              1.00000000
P    1   1.00
      1.5000000              1.0000000
P    1   1.00
      0.3750000              1.0000000
****
B     0
S    6   1.00
   2068.8823000              0.0018663
    310.6495700              0.0142515
     70.6830330              0.0695516
     19.8610800              0.2325729
      6.2993048              0.4670787
      2.1270270              0.3634314
SP   3   1.00
      4.7279710             -0.1303938              0.0745976
      1.1903377             -0.1307889              0.3078467
      0.3594117              1.1309444              0.7434568
SP   1   1.00
      0.1267512              1.0000000              1.0000000
D    1   1.00
      0.8020000              1.0000000
D    1   1.00
      0.2005000              1.0000000
F    1   1.00
      0.5000000              1.0000000
****
C     0
S    6   1.00
   3047.5249000              0.0018347
    457.3695100              0.0140373
    103.9486900              0.0688426
     29.2101550              0.2321844
      9.2866630              0.4679413
      3.1639270              0.3623120
SP   3   1.00
      7.8682724             -0.1193324              0.0689991
      1.8812885             -0.1608542              0.3164240
      0.5442493              1.1434564              0.7443083
SP   1   1.00
      0.1687144              1.0000000              1.0000000
D    1   1.00
      1.2520000              1.0000000
D    1   1.00
      0.3130000              1.0000000
F    1   1.00
      0.8000000              1.0000000
****
N     0
S    6   1.00
   4173.5110000              0.0018348
    627.4579000              0.0139950
    142.9021000              0.0685870
     40.2343300              0.2322410
     12.8202100              0.4690700
      4.3904370              0.3604550
SP   3   1.00
     11.6263580             -0.1149610              0.0675800
      2.7162800             -0.1691180              0.3239070
      0.7722180              1.1458520              0.7408950
SP   1   1.00
      0.2120313              1.0000000              1.0000000
D    1   1.00
      1.8260000              1.0000000
D    1   1.00
      0.4565000              1.0000000
F    1   1.00
      1.0000000              1.0000000
****
O     0
S    6   1.00
   5484.6717000              0.0018311
    825.2349500              0.0139501
    188.0469600              0.0684451
     52.9645000              0.2327143
     16.8975700              0.4701930
      5.7996353              0.3585209
SP   3   1.00
     15.5396160             -0.1107775              0.0708743
      3.5999336             -0.1480263              0.3397528
      1.0137618              1.1307670              0.7271586
SP   1   1.00
      0.2700058              1.0000000              1.0000000
D    1   1.00
      2.5840000              1.0000000
D    1   1.00
      0.6460000              1.0000000
F    1   1.00
      1.4000000              1.0000000
****
F     0
S    6   1.00
   7001.7130900              0.0018196169
   1051.3660900              0.0139160796
    239.2856900              0.0684053245
     67.3974453              0.233185760
     21.5199573              0.471267439
      7.40310130             0.356618546
SP   3   1.00
     20.8479528             -0.108506975            0.0716287243
      4.80830834            -0.146451658            0.3459121030
      1.34406986             1.128688580            0.7224699570
SP   1   1.00
      0.358151393            1.0000000              1.0000000
D    1   1.00
      3.5000000              1.0000000
D    1   1.00
      0.8750000              1.0000000
F    1   1.00
      1.8500000              1.0000000
****
Al     0
S    6   1.00
  13983.1000000              0.00194267
   2098.7500000              0.0148599
    477.7050000              0.0728494
    134.3600000              0.2468300
     42.8709000              0.4872580
     14.5189000              0.3234960
SP   6   1.00
    239.6680000             -0.00292619             0.00460285
     57.4419000             -0.0374080              0.0331990
     18.2859000             -0.1144870              0.1362820
      6.5991400              0.1156350              0.3304760
      2.4904900              0.6125950              0.4491460
      0.9445400              0.3937990              0.2657040
SP   3   1.00
      1.2779000             -0.2276060             -0.0175130
      0.3975900              0.00144583             0.2445330
      0.1600950              1.0927900              0.8049340
SP   1   1.00
      0.0556577              1.0000000              1.0000000
D    1   1.00
      0.6500000              1.0000000
D    1   1.00
      0.1625000              1.0000000
F    1   1.00
      0.2500000              1.0000000
****
Si     0
S    6   1.00
  16115.9000000              0.00195948
   2425.5800000              0.01492880
    553.8670000              0.07284780
    156.3400000              0.24613000
     50.0683000              0.48591400
     17.0178000              0.32500200
SP   6   1.00
    292.7180000             -0.00278094             0.00443826
     69.8731000             -0.03571460             0.03266790
     22.3363000             -0.11498500             0.13472100
      8.1503900              0.09356340             0.32867800
      3.1345800              0.60301700             0.44964000
      1.2254300              0.41895900             0.26137200
SP   3   1.00
      1.7273800             -0.24463000            -0.01779510
      0.5729220              0.00431572             0.25353900
      0.2221920              1.09818000             0.80066900
SP   1   1.00
      0.0778369              1.00000000             1.00000000
D    1   1.00
      0.9000000              1.0000000
D    1   1.00
      0.2250000              1.0000000
F    1   1.00
      0.3200000              1.0000000
****
P     0
S    6   1.00
  19413.3000000              0.0018516
   2909.4200000              0.0142062
    661.3640000              0.0699995
    185.7590000              0.2400790
     59.1943000              0.4847620
     20.0310000              0.3352000
SP   6   1.00
    339.4780000             -0.00278217             0.00456462
     81.0101000             -0.0360499              0.03369360
     25.8780000             -0.1166310              0.13975500
      9.4522100              0.0968328              0.33936200
      3.6656600              0.6144180              0.45092100
      1.4674600              0.4037980              0.23858600
SP   3   1.00
      2.1562300             -0.2529230             -0.01776530
      0.7489970              0.0328517              0.27405800
      0.2831450              1.0812500              0.78542100
SP   1   1.00
      0.0998317              1.0000000              1.00000000
D    1   1.00
      1.1000000              1.0000000
D    1   1.00
      0.2750000              1.0000000
F    1   1.00
      0.4500000              1.0000000
****
S     0
S    6   1.00
  21917.1000000              0.0018690
   3301.4900000              0.0142300
    754.1460000              0.0696960
    212.7110000              0.2384870
     67.9896000              0.4833070
     23.0515000              0.3380740
SP   6   1.00
    423.7350000             -0.0023767              0.0040610
    100.7100000             -0.0316930              0.0306810
     32.1599000             -0.1133170              0.1304520
     11.8079000              0.0560900              0.3272050
      4.6311000              0.5922550              0.4528510
      1.8702500              0.4550060              0.2560420
SP   3   1.00
      2.6158400             -0.2503740             -0.0145110
      0.9221670              0.0669570              0.3102630
      0.3412870              1.0545100              0.7544830
SP   1   1.00
      0.1171670              1.0000000              1.0000000
D    1   1.00
      1.3000000              1.0000000
D    1   1.00
      0.3250000              1.0000000
F    1   1.00
      0.5500000              1.0000000
****
Cl     0
S    6   1.00
  25180.1000000              0.0018330
   3780.3500000              0.0140340
    860.4740000              0.0690970
    242.1450000              0.2374520
     77.3349000              0.4830340
     26.2470000              0.3398560
SP   6   1.00
    491.7650000             -0.0022974              0.0039894
    116.9840000             -0.0307140              0.0303180
     37.4153000             -0.1125280              0.1298800
     13.7834000              0.0450160              0.3279510
      5.4521500              0.5893530              0.4535270
      2.2258800              0.4652060              0.2521540
SP   3   1.00
      3.1864900             -0.2518300             -0.0142990
      1.1442700              0.0615890              0.3235720
      0.4203770              1.0601800              0.7435070
SP   1   1.00
      0.1426570              1.0000000              1.0000000
D    1   1.00
      1.5000000              1.0000000
D    1   1.00
      0.3750000              1.0000000
F    1   1.00
      0.7000000              1.0000000
****
}

set {
reference uhf
freeze_core true
e_convergence 10
d_convergence 10
dft_spherical_points 1202
dft_radial_points 99
}

e = energy('b3lyp')

print_out('Grab this energy {0}'.format(e))
--------------------------------------------------------------------------

    Molecular point group: cs

    Geometry (in Bohr), charge = 0, multiplicity = 2:

       Center              X                  Y                   Z               Mass
    ------------   -----------------  -----------------  -----------------  -----------------
         C           -0.321547507409     0.003978116608     0.000000000000    12.000000000000
         C            0.061161906491    -1.401310025592    -2.426675089100    12.000000000000
         C            0.060824372791     2.800271929408     0.000000000000    12.000000000000
         C            0.061161906491    -1.401310025592     2.426675089100    12.000000000000
         H            2.085108711591    -1.646227324692    -2.847036829800     1.007825032230
         H           -0.768562224209    -0.390615202192    -4.024784304500     1.007825032230
         H           -0.767272097709    -3.294099933892    -2.350174226500     1.007825032230
         H            2.085330633491     3.285873518308     0.000000000000     1.007825032230
         H           -0.767991200209     3.678301667008     1.676487870000     1.007825032230
         H           -0.767991200209     3.678301667008    -1.676487870000     1.007825032230
         H            2.085108711591    -1.646227324692     2.847036829800     1.007825032230
         H           -0.767272097709    -3.294099933892     2.350174226500     1.007825032230
         H           -0.768562224209    -0.390615202192     4.024784304500     1.007825032230

  Charge       = 0
  Multiplicity = 2
  Basis Set: ANONYMOUSB8A3BBEA
    Blend: 6-31G_2DFP_
  Basis Set: (ANONYMOUSB8A3BBEA AUX)
    Blend: DEF2-UNIVERSAL-JKFIT

    Orbital Energies [Eh]
    ---------------------

    Alpha Occupied:

       1Ap   -10.180229     1App  -10.167023     2Ap   -10.167003
       3Ap   -10.166947     4Ap    -0.797823     5Ap    -0.686388
       2App   -0.686010     6Ap    -0.530754     7Ap    -0.441365
       3App   -0.434741     8Ap    -0.434307     9Ap    -0.382964
       4App   -0.382733     5App   -0.363327    10Ap    -0.338469
       6App   -0.337428    11Ap    -0.168845

    Alpha Virtual:

      12Ap     0.076056    13Ap     0.134134     7App    0.134160
       8App    0.142372    14Ap     0.142720    15Ap     0.154944
       9App    0.178878    16Ap     0.178889    17Ap     0.203589
      10App    0.214670    11App    0.275834    18Ap     0.276413
      12App    0.399125    19Ap     0.399368    20Ap     0.403384
      13App    0.424103    21Ap     0.424104    22Ap     0.456597
      14App    0.495290    23Ap     0.495387    15App    0.512265
      24Ap     0.513974    16App    0.578530    25Ap     0.578918
      26Ap     0.591942    17App    0.591952    27Ap     0.602884
      28Ap     0.624609    18App    0.631634    19App    0.635963
      29Ap     0.636285    30Ap     0.663518    20App    0.663651
      31Ap     0.683777    21App    0.683879    32Ap     0.735122
      22App    0.825471    33Ap     0.825690    23App    0.853869
      34Ap     0.915073    24App    0.915303    25App    0.944230
      35Ap     0.944636    26App    0.961018    36Ap     0.961382
      37Ap     1.002573    27App    1.127630    38Ap     1.128072
      39Ap     1.142634    28App    1.163044    40Ap     1.163806
      41Ap     1.223746    42Ap     1.274310    29App    1.275245
      43Ap     1.279498    30App    1.324148    44Ap     1.324334
      45Ap     1.357027    31App    1.365436    46Ap     1.365981
      32App    1.392363    33App    1.404615    47Ap     1.404720
      48Ap     1.417411    34App    1.418031    35App    1.428109
      36App    1.491026    49Ap     1.499583    37App    1.542426
      50Ap     1.542432    51Ap     1.574351    38App    1.574397
      52Ap     1.669289    39App    1.739433    53Ap     1.739835
      54Ap     1.768523    40App    1.830809    55Ap     1.831328
      41App    1.971172    56Ap     2.018539    57Ap     2.018801
      42App    2.019929    43App    2.052481    58Ap     2.053566
      44App    2.738577    59Ap     2.739057    60Ap     2.791147
      45App    2.811147    46App    2.889570    61Ap     2.890683
      62Ap     2.894901    47App    2.928960    63Ap     2.929735
      48App    2.958828    64Ap     2.964246    49App    2.964572
      65Ap     3.034043    50App    3.071395    66Ap     3.072427
      51App    3.084288    67Ap     3.168673    52App    3.168875
      68Ap     3.180459    53App    3.284657    69Ap     3.285265
      70Ap     3.325841    54App    3.326616    71Ap     3.375902
      55App    3.489797    72Ap     3.490876    56App    3.514483
      73Ap     3.525178    74Ap     3.568580    57App    3.569039
      58App    3.575602    75Ap     3.666079    59App    3.666708
      76Ap     3.678629    77Ap     3.694375    60App    3.694431
      61App    3.776962    78Ap     3.778379    79Ap     3.790491
      62App    3.911659    80Ap     3.912587    81Ap     4.035608
      63App    4.110676    82Ap     4.111313    64App    4.146913
      83Ap     4.148870    84Ap     4.173391    85Ap     4.202725
      65App    4.202929    86Ap     4.204154    66App    4.210972
      67App    4.315617    87Ap     4.316732    68App    4.358865
      69App    4.425006    88Ap     4.425103    70App    4.442572
      71App    4.516571    89Ap     4.516861    90Ap     4.577747
      72App    4.578324    91Ap     4.618656    92Ap     4.709909
      73App    4.774287    93Ap     4.775424    74App    4.837123
      94Ap     4.962757    95Ap     5.003442    75App    5.003923
      96Ap     5.228126    76App    5.246768    97Ap     5.246832
      77App    5.354510    98Ap     5.355613    78App    5.479859

    Beta Occupied:

       1App  -10.167775     1Ap   -10.167761     2Ap   -10.167717
       3Ap   -10.166404     4Ap    -0.781132     5Ap    -0.684174
       2App   -0.683821     6Ap    -0.511720     3App   -0.431097
       7Ap    -0.430679     8Ap    -0.422060     9Ap    -0.377020
       4App   -0.376872     5App   -0.362309    10Ap    -0.333604
       6App   -0.332545

    Beta Virtual:

      11Ap    -0.025594    12Ap     0.077063     7App    0.135001
      13Ap     0.135009     8App    0.144262    14Ap     0.144590
      15Ap     0.163372     9App    0.182548    16Ap     0.182583
      10App    0.214904    17Ap     0.218994    11App    0.282204
      18Ap     0.282714    12App    0.400293    19Ap     0.400530
      20Ap     0.419771    13App    0.426906    21Ap     0.426929
      22Ap     0.468569    14App    0.497547    23Ap     0.497650
      15App    0.513995    24Ap     0.556364    16App    0.584067
      25Ap     0.584503    17App    0.598105    26Ap     0.598113
      27Ap     0.610282    28Ap     0.628016    18App    0.631790
      19App    0.639252    29Ap     0.639604    30Ap     0.667061
      20App    0.667181    31Ap     0.686413    21App    0.686518
      32Ap     0.757639    22App    0.830623    33Ap     0.830833
      23App    0.855220    34Ap     0.923013    24App    0.923297
      25App    0.946067    35Ap     0.953599    26App    0.966334
      36Ap     0.966715    37Ap     1.007765    27App    1.131788
      38Ap     1.132199    39Ap     1.155985    28App    1.168060
      40Ap     1.168812    41Ap     1.232725    42Ap     1.279944
      29App    1.280772    43Ap     1.285259    30App    1.329092
      44Ap     1.329253    45Ap     1.366459    31App    1.370723
      46Ap     1.371176    32App    1.393410    33App    1.408042
      47Ap     1.408260    48Ap     1.422481    34App    1.423087
      35App    1.428399    36App    1.492070    49Ap     1.510047
      37App    1.546726    50Ap     1.546742    38App    1.582338
      51Ap     1.582350    52Ap     1.674151    39App    1.745182
      53Ap     1.745591    54Ap     1.779296    40App    1.834655
      55Ap     1.835205    41App    1.972033    56Ap     2.025211
      42App    2.026356    57Ap     2.039927    43App    2.059184
      58Ap     2.060250    44App    2.746879    59Ap     2.747421
      45App    2.811559    60Ap     2.816334    46App    2.902332
      61Ap     2.903268    62Ap     2.924695    47App    2.931412
      63Ap     2.932299    48App    2.959891    64Ap     2.968778
      49App    2.969097    65Ap     3.041938    50App    3.081358
      66Ap     3.082233    51App    3.086098    67Ap     3.184457
      52App    3.184614    68Ap     3.188209    53App    3.289541
      69Ap     3.290066    70Ap     3.329628    54App    3.330404
      71Ap     3.383759    55App    3.492507    72Ap     3.493606
      56App    3.512849    73Ap     3.528261    57App    3.575463
      74Ap     3.581898    58App    3.582272    75Ap     3.670971
      59App    3.671445    76Ap     3.691943    77Ap     3.725853
      60App    3.726165    61App    3.781456    78Ap     3.782886
      79Ap     3.818976    62App    3.921475    80Ap     3.922406
      81Ap     4.046484    63App    4.117560    82Ap     4.118108
      64App    4.154130    83Ap     4.156037    84Ap     4.187422
      65App    4.208877    85Ap     4.209508    86Ap     4.211281
      66App    4.215415    67App    4.323004    87Ap     4.324249
      68App    4.362214    69App    4.433159    88Ap     4.433254
      70App    4.445493    71App    4.524314    89Ap     4.524696
      90Ap     4.588353    72App    4.588946    91Ap     4.625945
      92Ap     4.720165    73App    4.781227    93Ap     4.782438
      74App    4.840042    94Ap     4.967533    95Ap     5.007486
      75App    5.007935    96Ap     5.233873    76App    5.248567
      97Ap     5.248621    77App    5.360982    98Ap     5.362137
      78App    5.482181

    Final Occupation by Irrep:
             Ap   App
    DOCC [    10,    6 ]
    SOCC [     1,    0 ]

  @DF-UKS Final Energy:  -157.81306705982155

   => Energetics <=

    Nuclear Repulsion Energy =            125.4034329019516747
    One-Electron Energy =                -458.7666132266706427
    Two-Electron Energy =                 195.8575143650656969
    DFT Exchange-Correlation Energy =     -20.3074011001682493
    Empirical Dispersion Energy =           0.0000000000000000
    VV10 Nonlocal Energy =                  0.0000000000000000
    Total Energy =                       -157.8130670598215488

  UHF NO Occupations:
  HONO-2 :    9 Ap 1.9996018
  HONO-1 :   10 Ap 1.9989796
  HONO-0 :   11 Ap 1.0000000
  LUNO+0 :   12 Ap 0.0010204
  LUNO+1 :   13 Ap 0.0003982
  LUNO+2 :    7App 0.0001985
  LUNO+3 :   14 Ap 0.0001964

Computation Completed

Properties will be evaluated at   0.000000,   0.000000,   0.000000 [a0]

Properties computed using the SCF density matrix

  Nuclear Dipole Moment: [e a0]
     X:     0.8175      Y:    -0.0096      Z:     0.0000

  Electronic Dipole Moment: [e a0]
     X:    -0.7395      Y:     0.0109      Z:     0.0000

  Dipole Moment: [e a0]
     X:     0.0780      Y:     0.0012      Z:     0.0000     Total:     0.0780

  Dipole Moment: [D]
     X:     0.1983      Y:     0.0031      Z:     0.0000     Total:     0.1984

*** tstop() called on n080 at Fri Nov  5 13:30:22 2021
Module time:
	user time   =     493.68 seconds =       8.23 minutes
	system time =       4.61 seconds =       0.08 minutes
	total time  =        125 seconds =       2.08 minutes
Total time:
	user time   =     493.68 seconds =       8.23 minutes
	system time =       4.61 seconds =       0.08 minutes
	total time  =        125 seconds =       2.08 minutes
Grab this energy -157.81306705982155
    Psi4 stopped on: Friday, 05 November 2021 01:30PM
    Psi4 wall time for execution: 0:02:05.31

*** Psi4 exiting successfully. Buy a developer a beer!
