                               Psi4 1.4a2.dev629

  ==> Input File <==

--------------------------------------------------------------------------
import os
memory 14 GB

molecule {
 C   -0.3233406202    0.0002227625   -0.0002258545
 C    0.0610785553   -1.3998908809   -2.4259918341
 C    0.0608524423    2.7994900378   -0.0004838083
 C    0.0613681646   -1.4022737773    2.4291520105
 H    2.0869075363   -1.6444418322   -2.8475324338
 H   -0.7654414858   -0.3885084761   -4.0256149091
 H   -0.7654374072   -3.2921737707   -2.3491505845
 H    2.0867144568    3.2887892053    0.0001841425
 H   -0.7654540516    3.6809075501    1.6764351001
 H   -0.7655766055    3.6809288077   -1.6762523090
 H    2.0870435204   -1.6436922992    2.8466022750
 H   -0.7657204099   -3.2917560635    2.3480849176
 H   -0.7656019722   -0.3876255773    4.0247932874
units bohr
0 2
}

basis {

assign 6-31g_2dfp_

[ 6-31g_2dfp_ ]

spherical

!----------------------------------------------------------------------
! Basis Set Exchange
! Version v0.8.13
! https://www.basissetexchange.org
!----------------------------------------------------------------------
!   Basis set: 6-31G(2df,p)
! Description: 6-31G(2df,p)
!        Role: orbital
!     Version: 0  (Data from the original Basis Set Exchange)
!----------------------------------------------------------------------

****
H     0
S    3   1.00
     18.7311370              0.03349460
      2.8253937              0.23472695
      0.6401217              0.81375733
S    1   1.00
      0.1612778              1.00000000
P    1   1.00
      1.5000000              1.0000000
P    1   1.00
      0.3750000              1.0000000
****
B     0
S    6   1.00
   2068.8823000              0.0018663
    310.6495700              0.0142515
     70.6830330              0.0695516
     19.8610800              0.2325729
      6.2993048              0.4670787
      2.1270270              0.3634314
SP   3   1.00
      4.7279710             -0.1303938              0.0745976
      1.1903377             -0.1307889              0.3078467
      0.3594117              1.1309444              0.7434568
SP   1   1.00
      0.1267512              1.0000000              1.0000000
D    1   1.00
      0.8020000              1.0000000
D    1   1.00
      0.2005000              1.0000000
F    1   1.00
      0.5000000              1.0000000
****
C     0
S    6   1.00
   3047.5249000              0.0018347
    457.3695100              0.0140373
    103.9486900              0.0688426
     29.2101550              0.2321844
      9.2866630              0.4679413
      3.1639270              0.3623120
SP   3   1.00
      7.8682724             -0.1193324              0.0689991
      1.8812885             -0.1608542              0.3164240
      0.5442493              1.1434564              0.7443083
SP   1   1.00
      0.1687144              1.0000000              1.0000000
D    1   1.00
      1.2520000              1.0000000
D    1   1.00
      0.3130000              1.0000000
F    1   1.00
      0.8000000              1.0000000
****
N     0
S    6   1.00
   4173.5110000              0.0018348
    627.4579000              0.0139950
    142.9021000              0.0685870
     40.2343300              0.2322410
     12.8202100              0.4690700
      4.3904370              0.3604550
SP   3   1.00
     11.6263580             -0.1149610              0.0675800
      2.7162800             -0.1691180              0.3239070
      0.7722180              1.1458520              0.7408950
SP   1   1.00
      0.2120313              1.0000000              1.0000000
D    1   1.00
      1.8260000              1.0000000
D    1   1.00
      0.4565000              1.0000000
F    1   1.00
      1.0000000              1.0000000
****
O     0
S    6   1.00
   5484.6717000              0.0018311
    825.2349500              0.0139501
    188.0469600              0.0684451
     52.9645000              0.2327143
     16.8975700              0.4701930
      5.7996353              0.3585209
SP   3   1.00
     15.5396160             -0.1107775              0.0708743
      3.5999336             -0.1480263              0.3397528
      1.0137618              1.1307670              0.7271586
SP   1   1.00
      0.2700058              1.0000000              1.0000000
D    1   1.00
      2.5840000              1.0000000
D    1   1.00
      0.6460000              1.0000000
F    1   1.00
      1.4000000              1.0000000
****
F     0
S    6   1.00
   7001.7130900              0.0018196169
   1051.3660900              0.0139160796
    239.2856900              0.0684053245
     67.3974453              0.233185760
     21.5199573              0.471267439
      7.40310130             0.356618546
SP   3   1.00
     20.8479528             -0.108506975            0.0716287243
      4.80830834            -0.146451658            0.3459121030
      1.34406986             1.128688580            0.7224699570
SP   1   1.00
      0.358151393            1.0000000              1.0000000
D    1   1.00
      3.5000000              1.0000000
D    1   1.00
      0.8750000              1.0000000
F    1   1.00
      1.8500000              1.0000000
****
Al     0
S    6   1.00
  13983.1000000              0.00194267
   2098.7500000              0.0148599
    477.7050000              0.0728494
    134.3600000              0.2468300
     42.8709000              0.4872580
     14.5189000              0.3234960
SP   6   1.00
    239.6680000             -0.00292619             0.00460285
     57.4419000             -0.0374080              0.0331990
     18.2859000             -0.1144870              0.1362820
      6.5991400              0.1156350              0.3304760
      2.4904900              0.6125950              0.4491460
      0.9445400              0.3937990              0.2657040
SP   3   1.00
      1.2779000             -0.2276060             -0.0175130
      0.3975900              0.00144583             0.2445330
      0.1600950              1.0927900              0.8049340
SP   1   1.00
      0.0556577              1.0000000              1.0000000
D    1   1.00
      0.6500000              1.0000000
D    1   1.00
      0.1625000              1.0000000
F    1   1.00
      0.2500000              1.0000000
****
Si     0
S    6   1.00
  16115.9000000              0.00195948
   2425.5800000              0.01492880
    553.8670000              0.07284780
    156.3400000              0.24613000
     50.0683000              0.48591400
     17.0178000              0.32500200
SP   6   1.00
    292.7180000             -0.00278094             0.00443826
     69.8731000             -0.03571460             0.03266790
     22.3363000             -0.11498500             0.13472100
      8.1503900              0.09356340             0.32867800
      3.1345800              0.60301700             0.44964000
      1.2254300              0.41895900             0.26137200
SP   3   1.00
      1.7273800             -0.24463000            -0.01779510
      0.5729220              0.00431572             0.25353900
      0.2221920              1.09818000             0.80066900
SP   1   1.00
      0.0778369              1.00000000             1.00000000
D    1   1.00
      0.9000000              1.0000000
D    1   1.00
      0.2250000              1.0000000
F    1   1.00
      0.3200000              1.0000000
****
P     0
S    6   1.00
  19413.3000000              0.0018516
   2909.4200000              0.0142062
    661.3640000              0.0699995
    185.7590000              0.2400790
     59.1943000              0.4847620
     20.0310000              0.3352000
SP   6   1.00
    339.4780000             -0.00278217             0.00456462
     81.0101000             -0.0360499              0.03369360
     25.8780000             -0.1166310              0.13975500
      9.4522100              0.0968328              0.33936200
      3.6656600              0.6144180              0.45092100
      1.4674600              0.4037980              0.23858600
SP   3   1.00
      2.1562300             -0.2529230             -0.01776530
      0.7489970              0.0328517              0.27405800
      0.2831450              1.0812500              0.78542100
SP   1   1.00
      0.0998317              1.0000000              1.00000000
D    1   1.00
      1.1000000              1.0000000
D    1   1.00
      0.2750000              1.0000000
F    1   1.00
      0.4500000              1.0000000
****
S     0
S    6   1.00
  21917.1000000              0.0018690
   3301.4900000              0.0142300
    754.1460000              0.0696960
    212.7110000              0.2384870
     67.9896000              0.4833070
     23.0515000              0.3380740
SP   6   1.00
    423.7350000             -0.0023767              0.0040610
    100.7100000             -0.0316930              0.0306810
     32.1599000             -0.1133170              0.1304520
     11.8079000              0.0560900              0.3272050
      4.6311000              0.5922550              0.4528510
      1.8702500              0.4550060              0.2560420
SP   3   1.00
      2.6158400             -0.2503740             -0.0145110
      0.9221670              0.0669570              0.3102630
      0.3412870              1.0545100              0.7544830
SP   1   1.00
      0.1171670              1.0000000              1.0000000
D    1   1.00
      1.3000000              1.0000000
D    1   1.00
      0.3250000              1.0000000
F    1   1.00
      0.5500000              1.0000000
****
Cl     0
S    6   1.00
  25180.1000000              0.0018330
   3780.3500000              0.0140340
    860.4740000              0.0690970
    242.1450000              0.2374520
     77.3349000              0.4830340
     26.2470000              0.3398560
SP   6   1.00
    491.7650000             -0.0022974              0.0039894
    116.9840000             -0.0307140              0.0303180
     37.4153000             -0.1125280              0.1298800
     13.7834000              0.0450160              0.3279510
      5.4521500              0.5893530              0.4535270
      2.2258800              0.4652060              0.2521540
SP   3   1.00
      3.1864900             -0.2518300             -0.0142990
      1.1442700              0.0615890              0.3235720
      0.4203770              1.0601800              0.7435070
SP   1   1.00
      0.1426570              1.0000000              1.0000000
D    1   1.00
      1.5000000              1.0000000
D    1   1.00
      0.3750000              1.0000000
F    1   1.00
      0.7000000              1.0000000
****
}

set {
reference uhf
freeze_core true
e_convergence 10
d_convergence 10
dft_spherical_points 1202
dft_radial_points 99
}

e = energy('b3lyp')

print_out('Grab this energy {0}'.format(e))
--------------------------------------------------------------------------

    Molecular point group: c1

    Geometry (in Bohr), charge = 0, multiplicity = 2:

       Center              X                  Y                   Z               Mass
    ------------   -----------------  -----------------  -----------------  -----------------
         C           -0.323340336460     0.000695437357    -0.000697841066    12.000000000000
         C            0.061078839040    -1.399418206043    -2.426463820666    12.000000000000
         C            0.060852726040     2.799962712657    -0.000955794866    12.000000000000
         C            0.061368448340    -1.401801102443     2.428680023934    12.000000000000
         H            2.086907820040    -1.643969157343    -2.848004420366     1.007825032230
         H           -0.765441202060    -0.388035801243    -4.026086895666     1.007825032230
         H           -0.765437123460    -3.291701095843    -2.349622571066     1.007825032230
         H            2.086714740540     3.289261880157    -0.000287844066     1.007825032230
         H           -0.765453767860     3.681380224957     1.675963113534     1.007825032230
         H           -0.765576321760     3.681401482557    -1.676724295566     1.007825032230
         H            2.087043804140    -1.643219624343     2.846130288434     1.007825032230
         H           -0.765720126160    -3.291283388643     2.347612931034     1.007825032230
         H           -0.765601688460    -0.387152902443     4.024321300834     1.007825032230

  Charge       = 0
  Multiplicity = 2
  Basis Set: ANONYMOUS93C14F57
    Blend: 6-31G_2DFP_
  Basis Set: (ANONYMOUS93C14F57 AUX)
    Blend: DEF2-UNIVERSAL-JKFIT

    Orbital Energies [Eh]
    ---------------------

    Alpha Occupied:

       1A    -10.180342     2A    -10.167065     3A    -10.167029
       4A    -10.166951     5A     -0.797766     6A     -0.686220
       7A     -0.686154     8A     -0.530777     9A     -0.441124
      10A     -0.434787    11A     -0.434555    12A     -0.382726
      13A     -0.382472    14A     -0.363613    15A     -0.338291
      16A     -0.337704    17A     -0.168961

    Alpha Virtual:

      18A      0.076073    19A      0.134129    20A      0.134179
      21A      0.142539    22A      0.142720    23A      0.154880
      24A      0.178662    25A      0.178894    26A      0.203544
      27A      0.214802    28A      0.275668    29A      0.276305
      30A      0.399212    31A      0.399241    32A      0.403348
      33A      0.424035    34A      0.424160    35A      0.456594
      36A      0.495357    37A      0.495420    38A      0.512160
      39A      0.513981    40A      0.578761    41A      0.578864
      42A      0.591551    43A      0.591722    44A      0.602575
      45A      0.624761    46A      0.631769    47A      0.636014
      48A      0.636488    49A      0.663325    50A      0.663498
      51A      0.683823    52A      0.683881    53A      0.734994
      54A      0.825332    55A      0.825484    56A      0.853916
      57A      0.915002    58A      0.915050    59A      0.944126
      60A      0.944613    61A      0.961251    62A      0.961333
      63A      1.003451    64A      1.127997    65A      1.128212
      66A      1.142233    67A      1.162872    68A      1.163667
      69A      1.223325    70A      1.274040    71A      1.274913
      72A      1.279388    73A      1.324267    74A      1.324450
      75A      1.355990    76A      1.365845    77A      1.366274
      78A      1.392443    79A      1.403796    80A      1.404291
      81A      1.416893    82A      1.417320    83A      1.427936
      84A      1.491488    85A      1.499079    86A      1.542725
      87A      1.542929    88A      1.574171    89A      1.574717
      90A      1.669817    91A      1.739224    92A      1.739623
      93A      1.768314    94A      1.830683    95A      1.832119
      96A      1.971730    97A      2.018017    98A      2.018550
      99A      2.019821   100A      2.051694   101A      2.053604
     102A      2.738314   103A      2.738656   104A      2.790923
     105A      2.811426   106A      2.889836   107A      2.890061
     108A      2.894955   109A      2.929413   110A      2.929578
     111A      2.958992   112A      2.964268   113A      2.964483
     114A      3.034009   115A      3.071097   116A      3.071470
     117A      3.084353   118A      3.168479   119A      3.169044
     120A      3.180626   121A      3.285301   122A      3.285328
     123A      3.326894   124A      3.327422   125A      3.375611
     126A      3.489677   127A      3.490622   128A      3.514015
     129A      3.525331   130A      3.568272   131A      3.568519
     132A      3.575142   133A      3.665414   134A      3.667301
     135A      3.679683   136A      3.693961   137A      3.694305
     138A      3.776553   139A      3.777043   140A      3.789124
     141A      3.911170   142A      3.913286   143A      4.034451
     144A      4.111153   145A      4.111589   146A      4.147697
     147A      4.148543   148A      4.173251   149A      4.202032
     150A      4.203083   151A      4.203696   152A      4.210873
     153A      4.314938   154A      4.316941   155A      4.358984
     156A      4.423115   157A      4.425607   158A      4.443635
     159A      4.515907   160A      4.517777   161A      4.578227
     162A      4.578308   163A      4.617544   164A      4.709452
     165A      4.774091   166A      4.775027   167A      4.836939
     168A      4.962795   169A      5.001964   170A      5.004021
     171A      5.228038   172A      5.246530   173A      5.247092
     174A      5.355417   175A      5.355589   176A      5.479346

    Beta Occupied:

       1A    -10.167823     2A    -10.167790     3A    -10.167711
       4A    -10.166519     5A     -0.781091     6A     -0.684030
       7A     -0.683949     8A     -0.511748     9A     -0.431160
      10A     -0.430924    11A     -0.421821    12A     -0.376838
      13A     -0.376529    14A     -0.362597    15A     -0.333416
      16A     -0.332826

    Beta Virtual:

      17A     -0.025743    18A      0.077082    19A      0.135040
      20A      0.135049    21A      0.144433    22A      0.144567
      23A      0.163339    24A      0.182350    25A      0.182549
      26A      0.215032    27A      0.218926    28A      0.282028
      29A      0.282640    30A      0.400388    31A      0.400406
      32A      0.419792    33A      0.426844    34A      0.426973
      35A      0.468501    36A      0.497610    37A      0.497690
      38A      0.513895    39A      0.556325    40A      0.584304
      41A      0.584423    42A      0.597730    43A      0.597902
      44A      0.610000    45A      0.628135    46A      0.631928
      47A      0.639306    48A      0.639764    49A      0.666881
      50A      0.667070    51A      0.686475    52A      0.686499
      53A      0.757517    54A      0.830493    55A      0.830660
      56A      0.855269    57A      0.922970    58A      0.923025
      59A      0.945962    60A      0.953541    61A      0.966561
      62A      0.966635    63A      1.008691    64A      1.132040
      65A      1.132234    66A      1.155597    67A      1.167924
      68A      1.168767    69A      1.232297    70A      1.279632
      71A      1.280515    72A      1.285142    73A      1.329276
      74A      1.329420    75A      1.365406    76A      1.371127
      77A      1.371478    78A      1.393503    79A      1.407331
      80A      1.407687    81A      1.421966    82A      1.422334
      83A      1.428217    84A      1.492536    85A      1.509523
      86A      1.547122    87A      1.547347    88A      1.582034
      89A      1.582599    90A      1.674664    91A      1.744980
      92A      1.745389    93A      1.779096    94A      1.834552
      95A      1.835959    96A      1.972590    97A      2.024680
      98A      2.026226    99A      2.039647   100A      2.058420
     101A      2.060321   102A      2.746682   103A      2.746960
     104A      2.811838   105A      2.816058   106A      2.902565
     107A      2.902719   108A      2.924644   109A      2.931923
     110A      2.932036   111A      2.960055   112A      2.968792
     113A      2.969047   114A      3.041944   115A      3.081008
     116A      3.081372   117A      3.086178   118A      3.184128
     119A      3.184805   120A      3.188397   121A      3.290088
     122A      3.290138   123A      3.330710   124A      3.331214
     125A      3.383431   126A      3.492376   127A      3.493382
     128A      3.512383   129A      3.528376   130A      3.574992
     131A      3.581586   132A      3.581892   133A      3.670118
     134A      3.672108   135A      3.692974   136A      3.725581
     137A      3.725940   138A      3.781016   139A      3.781628
     140A      3.817671   141A      3.921059   142A      3.923031
     143A      4.045339   144A      4.117822   145A      4.118548
     146A      4.155046   147A      4.155616   148A      4.187308
     149A      4.208318   150A      4.209525   151A      4.210806
     152A      4.215353   153A      4.322338   154A      4.324418
     155A      4.362347   156A      4.431368   157A      4.433720
     158A      4.446587   159A      4.523705   160A      4.525557
     161A      4.588804   162A      4.588933   163A      4.624738
     164A      4.719797   165A      4.781070   166A      4.781953
     167A      4.839858   168A      4.967591   169A      5.006024
     170A      5.008038   171A      5.233754   172A      5.248325
     173A      5.248866   174A      5.361868   175A      5.362099
     176A      5.481668

    Final Occupation by Irrep:
              A
    DOCC [    16 ]
    SOCC [     1 ]

  @DF-UKS Final Energy:  -157.81306947604486

   => Energetics <=

    Nuclear Repulsion Energy =            125.3946093844360519
    One-Electron Energy =                -458.7488811662249191
    Two-Electron Energy =                 195.8483451384207683
    DFT Exchange-Correlation Energy =     -20.3071428326767993
    Empirical Dispersion Energy =           0.0000000000000000
    VV10 Nonlocal Energy =                  0.0000000000000000
    Total Energy =                       -157.8130694760448591

  UHF NO Occupations:
  HONO-2 :   15  A 1.9996008
  HONO-1 :   16  A 1.9989805
  HONO-0 :   17  A 1.0000000
  LUNO+0 :   18  A 0.0010195
  LUNO+1 :   19  A 0.0003992
  LUNO+2 :   20  A 0.0001981
  LUNO+3 :   21  A 0.0001970

Computation Completed

Properties will be evaluated at   0.000000,   0.000000,   0.000000 [a0]

Properties computed using the SCF density matrix

  Nuclear Dipole Moment: [e a0]
     X:     0.8272      Y:     0.0033      Z:    -0.0033

  Electronic Dipole Moment: [e a0]
     X:    -0.7493      Y:    -0.0034      Z:     0.0034

  Dipole Moment: [e a0]
     X:     0.0779      Y:    -0.0001      Z:     0.0001     Total:     0.0779

  Dipole Moment: [D]
     X:     0.1980      Y:    -0.0002      Z:     0.0002     Total:     0.1980

*** tstop() called on n066 at Fri Nov  5 12:54:29 2021
Module time:
	user time   =     511.34 seconds =       8.52 minutes
	system time =      11.50 seconds =       0.19 minutes
	total time  =        132 seconds =       2.20 minutes
Total time:
	user time   =     511.34 seconds =       8.52 minutes
	system time =      11.50 seconds =       0.19 minutes
	total time  =        132 seconds =       2.20 minutes
Grab this energy -157.81306947604486
    Psi4 stopped on: Friday, 05 November 2021 12:54PM
    Psi4 wall time for execution: 0:02:11.53

*** Psi4 exiting successfully. Buy a developer a beer!
