                               Psi4 1.4a2.dev629

  ==> Input File <==

--------------------------------------------------------------------------
import os
memory 14 GB

molecule {
 C   -0.3233383794   -0.0000032734   -0.0053443855
 C    0.0610120820   -1.4004205808   -2.4267017624
 C    0.0610198422    2.8017555574   -0.0011069504
 C    0.0612681168   -1.4013299385    2.4260629016
 H    2.0871433499   -1.6442687307   -2.8467411107
 H   -0.7657755391   -0.3876691277   -4.0244756789
 H   -0.7651037750   -3.2924622597   -2.3483859022
 H    2.0867972518    3.2880999541    0.0010001608
 H   -0.7648100779    3.6811060025    1.6772337386
 H   -0.7664827690    3.6793911538   -1.6757682686
 H    2.0867315138   -1.6439239340    2.8481442080
 H   -0.7660352041   -3.2915318371    2.3495922147
 H   -0.7650342886   -0.3887672996    4.0264908348
units bohr
0 2
}

basis {

assign 6-31g_2dfp_

[ 6-31g_2dfp_ ]

spherical

!----------------------------------------------------------------------
! Basis Set Exchange
! Version v0.8.13
! https://www.basissetexchange.org
!----------------------------------------------------------------------
!   Basis set: 6-31G(2df,p)
! Description: 6-31G(2df,p)
!        Role: orbital
!     Version: 0  (Data from the original Basis Set Exchange)
!----------------------------------------------------------------------

****
H     0
S    3   1.00
     18.7311370              0.03349460
      2.8253937              0.23472695
      0.6401217              0.81375733
S    1   1.00
      0.1612778              1.00000000
P    1   1.00
      1.5000000              1.0000000
P    1   1.00
      0.3750000              1.0000000
****
B     0
S    6   1.00
   2068.8823000              0.0018663
    310.6495700              0.0142515
     70.6830330              0.0695516
     19.8610800              0.2325729
      6.2993048              0.4670787
      2.1270270              0.3634314
SP   3   1.00
      4.7279710             -0.1303938              0.0745976
      1.1903377             -0.1307889              0.3078467
      0.3594117              1.1309444              0.7434568
SP   1   1.00
      0.1267512              1.0000000              1.0000000
D    1   1.00
      0.8020000              1.0000000
D    1   1.00
      0.2005000              1.0000000
F    1   1.00
      0.5000000              1.0000000
****
C     0
S    6   1.00
   3047.5249000              0.0018347
    457.3695100              0.0140373
    103.9486900              0.0688426
     29.2101550              0.2321844
      9.2866630              0.4679413
      3.1639270              0.3623120
SP   3   1.00
      7.8682724             -0.1193324              0.0689991
      1.8812885             -0.1608542              0.3164240
      0.5442493              1.1434564              0.7443083
SP   1   1.00
      0.1687144              1.0000000              1.0000000
D    1   1.00
      1.2520000              1.0000000
D    1   1.00
      0.3130000              1.0000000
F    1   1.00
      0.8000000              1.0000000
****
N     0
S    6   1.00
   4173.5110000              0.0018348
    627.4579000              0.0139950
    142.9021000              0.0685870
     40.2343300              0.2322410
     12.8202100              0.4690700
      4.3904370              0.3604550
SP   3   1.00
     11.6263580             -0.1149610              0.0675800
      2.7162800             -0.1691180              0.3239070
      0.7722180              1.1458520              0.7408950
SP   1   1.00
      0.2120313              1.0000000              1.0000000
D    1   1.00
      1.8260000              1.0000000
D    1   1.00
      0.4565000              1.0000000
F    1   1.00
      1.0000000              1.0000000
****
O     0
S    6   1.00
   5484.6717000              0.0018311
    825.2349500              0.0139501
    188.0469600              0.0684451
     52.9645000              0.2327143
     16.8975700              0.4701930
      5.7996353              0.3585209
SP   3   1.00
     15.5396160             -0.1107775              0.0708743
      3.5999336             -0.1480263              0.3397528
      1.0137618              1.1307670              0.7271586
SP   1   1.00
      0.2700058              1.0000000              1.0000000
D    1   1.00
      2.5840000              1.0000000
D    1   1.00
      0.6460000              1.0000000
F    1   1.00
      1.4000000              1.0000000
****
F     0
S    6   1.00
   7001.7130900              0.0018196169
   1051.3660900              0.0139160796
    239.2856900              0.0684053245
     67.3974453              0.233185760
     21.5199573              0.471267439
      7.40310130             0.356618546
SP   3   1.00
     20.8479528             -0.108506975            0.0716287243
      4.80830834            -0.146451658            0.3459121030
      1.34406986             1.128688580            0.7224699570
SP   1   1.00
      0.358151393            1.0000000              1.0000000
D    1   1.00
      3.5000000              1.0000000
D    1   1.00
      0.8750000              1.0000000
F    1   1.00
      1.8500000              1.0000000
****
Al     0
S    6   1.00
  13983.1000000              0.00194267
   2098.7500000              0.0148599
    477.7050000              0.0728494
    134.3600000              0.2468300
     42.8709000              0.4872580
     14.5189000              0.3234960
SP   6   1.00
    239.6680000             -0.00292619             0.00460285
     57.4419000             -0.0374080              0.0331990
     18.2859000             -0.1144870              0.1362820
      6.5991400              0.1156350              0.3304760
      2.4904900              0.6125950              0.4491460
      0.9445400              0.3937990              0.2657040
SP   3   1.00
      1.2779000             -0.2276060             -0.0175130
      0.3975900              0.00144583             0.2445330
      0.1600950              1.0927900              0.8049340
SP   1   1.00
      0.0556577              1.0000000              1.0000000
D    1   1.00
      0.6500000              1.0000000
D    1   1.00
      0.1625000              1.0000000
F    1   1.00
      0.2500000              1.0000000
****
Si     0
S    6   1.00
  16115.9000000              0.00195948
   2425.5800000              0.01492880
    553.8670000              0.07284780
    156.3400000              0.24613000
     50.0683000              0.48591400
     17.0178000              0.32500200
SP   6   1.00
    292.7180000             -0.00278094             0.00443826
     69.8731000             -0.03571460             0.03266790
     22.3363000             -0.11498500             0.13472100
      8.1503900              0.09356340             0.32867800
      3.1345800              0.60301700             0.44964000
      1.2254300              0.41895900             0.26137200
SP   3   1.00
      1.7273800             -0.24463000            -0.01779510
      0.5729220              0.00431572             0.25353900
      0.2221920              1.09818000             0.80066900
SP   1   1.00
      0.0778369              1.00000000             1.00000000
D    1   1.00
      0.9000000              1.0000000
D    1   1.00
      0.2250000              1.0000000
F    1   1.00
      0.3200000              1.0000000
****
P     0
S    6   1.00
  19413.3000000              0.0018516
   2909.4200000              0.0142062
    661.3640000              0.0699995
    185.7590000              0.2400790
     59.1943000              0.4847620
     20.0310000              0.3352000
SP   6   1.00
    339.4780000             -0.00278217             0.00456462
     81.0101000             -0.0360499              0.03369360
     25.8780000             -0.1166310              0.13975500
      9.4522100              0.0968328              0.33936200
      3.6656600              0.6144180              0.45092100
      1.4674600              0.4037980              0.23858600
SP   3   1.00
      2.1562300             -0.2529230             -0.01776530
      0.7489970              0.0328517              0.27405800
      0.2831450              1.0812500              0.78542100
SP   1   1.00
      0.0998317              1.0000000              1.00000000
D    1   1.00
      1.1000000              1.0000000
D    1   1.00
      0.2750000              1.0000000
F    1   1.00
      0.4500000              1.0000000
****
S     0
S    6   1.00
  21917.1000000              0.0018690
   3301.4900000              0.0142300
    754.1460000              0.0696960
    212.7110000              0.2384870
     67.9896000              0.4833070
     23.0515000              0.3380740
SP   6   1.00
    423.7350000             -0.0023767              0.0040610
    100.7100000             -0.0316930              0.0306810
     32.1599000             -0.1133170              0.1304520
     11.8079000              0.0560900              0.3272050
      4.6311000              0.5922550              0.4528510
      1.8702500              0.4550060              0.2560420
SP   3   1.00
      2.6158400             -0.2503740             -0.0145110
      0.9221670              0.0669570              0.3102630
      0.3412870              1.0545100              0.7544830
SP   1   1.00
      0.1171670              1.0000000              1.0000000
D    1   1.00
      1.3000000              1.0000000
D    1   1.00
      0.3250000              1.0000000
F    1   1.00
      0.5500000              1.0000000
****
Cl     0
S    6   1.00
  25180.1000000              0.0018330
   3780.3500000              0.0140340
    860.4740000              0.0690970
    242.1450000              0.2374520
     77.3349000              0.4830340
     26.2470000              0.3398560
SP   6   1.00
    491.7650000             -0.0022974              0.0039894
    116.9840000             -0.0307140              0.0303180
     37.4153000             -0.1125280              0.1298800
     13.7834000              0.0450160              0.3279510
      5.4521500              0.5893530              0.4535270
      2.2258800              0.4652060              0.2521540
SP   3   1.00
      3.1864900             -0.2518300             -0.0142990
      1.1442700              0.0615890              0.3235720
      0.4203770              1.0601800              0.7435070
SP   1   1.00
      0.1426570              1.0000000              1.0000000
D    1   1.00
      1.5000000              1.0000000
D    1   1.00
      0.3750000              1.0000000
F    1   1.00
      0.7000000              1.0000000
****
}

set {
reference uhf
freeze_core true
e_convergence 10
d_convergence 10
dft_spherical_points 1202
dft_radial_points 99
}

e = energy('b3lyp')

print_out('Grab this energy {0}'.format(e))
--------------------------------------------------------------------------

    Molecular point group: c1

    Geometry (in Bohr), charge = 0, multiplicity = 2:

       Center              X                  Y                   Z               Mass
    ------------   -----------------  -----------------  -----------------  -----------------
         C           -0.323338696519    -0.000003183930    -0.003978762544    12.000000000000
         C            0.061011764881    -1.400420491330    -2.425336139444    12.000000000000
         C            0.061019525081     2.801755646870     0.000258672556    12.000000000000
         C            0.061267799681    -1.401329849030     2.427428524556    12.000000000000
         H            2.087143032781    -1.644268641230    -2.845375487744     1.007825032230
         H           -0.765775856219    -0.387669038230    -4.023110055944     1.007825032230
         H           -0.765104092119    -3.292462170230    -2.347020279244     1.007825032230
         H            2.086796934681     3.288100043570     0.002365783756     1.007825032230
         H           -0.764810395019     3.681106091970     1.678599361556     1.007825032230
         H           -0.766483086119     3.679391243270    -1.674402645644     1.007825032230
         H            2.086731196681    -1.643923844530     2.849509830956     1.007825032230
         H           -0.766035521219    -3.291531747630     2.350957837656     1.007825032230
         H           -0.765034605719    -0.388767210130     4.027856457756     1.007825032230

  Charge       = 0
  Multiplicity = 2
  Basis Set: ANONYMOUSE974C244
    Blend: 6-31G_2DFP_
  Basis Set: (ANONYMOUSE974C244 AUX)
    Blend: DEF2-UNIVERSAL-JKFIT

    Orbital Energies [Eh]
    ---------------------

    Alpha Occupied:

       1A    -10.180341     2A    -10.167051     3A    -10.167020
       4A    -10.166973     5A     -0.797769     6A     -0.686375
       7A     -0.685997     8A     -0.530775     9A     -0.441130
      10A     -0.434883    11A     -0.434455    12A     -0.382717
      13A     -0.382484    14A     -0.363609    15A     -0.338518
      16A     -0.337478    17A     -0.168960

    Alpha Virtual:

      18A      0.076072    19A      0.134142    20A      0.134170
      21A      0.142452    22A      0.142802    23A      0.154879
      24A      0.178772    25A      0.178785    26A      0.203543
      27A      0.214803    28A      0.275696    29A      0.276273
      30A      0.399105    31A      0.399353    32A      0.403344
      33A      0.424097    34A      0.424097    35A      0.456593
      36A      0.495341    37A      0.495438    38A      0.512160
      39A      0.513977    40A      0.578620    41A      0.579009
      42A      0.591639    43A      0.591645    44A      0.602573
      45A      0.624752    46A      0.631775    47A      0.636102
      48A      0.636405    49A      0.663346    50A      0.663479
      51A      0.683802    52A      0.683902    53A      0.734994
      54A      0.825299    55A      0.825515    56A      0.853916
      57A      0.914909    58A      0.915135    59A      0.944126
      60A      0.944620    61A      0.961117    62A      0.961467
      63A      1.003454    64A      1.127844    65A      1.128337
      66A      1.142263    67A      1.162880    68A      1.163655
      69A      1.223328    70A      1.274025    71A      1.274960
      72A      1.279349    73A      1.324262    74A      1.324452
      75A      1.355995    76A      1.365787    77A      1.366327
      78A      1.392443    79A      1.403996    80A      1.404099
      81A      1.416792    82A      1.417427    83A      1.427923
      84A      1.491491    85A      1.499078    86A      1.542827
      87A      1.542836    88A      1.574424    89A      1.574467
      90A      1.669822    91A      1.739221    92A      1.739625
      93A      1.768311    94A      1.831132    95A      1.831651
      96A      1.971730    97A      2.018274    98A      2.018500
      99A      2.019621   100A      2.052112   101A      2.053176
     102A      2.738248   103A      2.738725   104A      2.790924
     105A      2.811423   106A      2.889391   107A      2.890512
     108A      2.894937   109A      2.929105   110A      2.929885
     111A      2.958990   112A      2.964224   113A      2.964532
     114A      3.034001   115A      3.070785   116A      3.071796
     117A      3.084349   118A      3.168683   119A      3.168828
     120A      3.180654   121A      3.285014   122A      3.285610
     123A      3.326773   124A      3.327539   125A      3.375605
     126A      3.489623   127A      3.490676   128A      3.514025
     129A      3.525338   130A      3.568156   131A      3.568622
     132A      3.575145   133A      3.666080   134A      3.666693
     135A      3.679658   136A      3.694083   137A      3.694143
     138A      3.776053   139A      3.777525   140A      3.789169
     141A      3.911762   142A      3.912687   143A      4.034437
     144A      4.111050   145A      4.111688   146A      4.147142
     147A      4.149098   148A      4.173259   149A      4.202161
     150A      4.202936   151A      4.203687   152A      4.210876
     153A      4.315406   154A      4.316531   155A      4.358980
     156A      4.424386   157A      4.424510   158A      4.443440
     159A      4.516708   160A      4.516971   161A      4.577912
     162A      4.578337   163A      4.617834   164A      4.709463
     165A      4.774043   166A      4.775164   167A      4.836888
     168A      4.962824   169A      5.002718   170A      5.003235
     171A      5.228041   172A      5.246787   173A      5.246846
     174A      5.354943   175A      5.356063   176A      5.479348

    Beta Occupied:

       1A    -10.167803     2A    -10.167776     3A    -10.167744
       4A    -10.166519     5A     -0.781094     6A     -0.684166
       7A     -0.683812     8A     -0.511747     9A     -0.431255
      10A     -0.430833    11A     -0.421818    12A     -0.376761
      13A     -0.376610    14A     -0.362592    15A     -0.333651
      16A     -0.332592

    Beta Virtual:

      17A     -0.025742    18A      0.077081    19A      0.135043
      20A      0.135048    21A      0.144333    22A      0.144663
      23A      0.163339    24A      0.182431    25A      0.182468
      26A      0.215032    27A      0.218926    28A      0.282079
      29A      0.282586    30A      0.400277    31A      0.400520
      32A      0.419791    33A      0.426897    34A      0.426919
      35A      0.468500    36A      0.497599    37A      0.497701
      38A      0.513896    39A      0.556321    40A      0.584148
      41A      0.584584    42A      0.597814    43A      0.597827
      44A      0.609998    45A      0.628125    46A      0.631930
      47A      0.639375    48A      0.639706    49A      0.666916
      50A      0.667037    51A      0.686436    52A      0.686538
      53A      0.757517    54A      0.830472    55A      0.830680
      56A      0.855269    57A      0.922853    58A      0.923133
      59A      0.945963    60A      0.953548    61A      0.966416
      62A      0.966781    63A      1.008694    64A      1.131907
      65A      1.132349    66A      1.155624    67A      1.167958
      68A      1.168721    69A      1.232300    70A      1.279676
      71A      1.280505    72A      1.285102    73A      1.329263
      74A      1.329430    75A      1.365411    76A      1.371080
      77A      1.371523    78A      1.393502    79A      1.407406
      80A      1.407617    81A      1.421849    82A      1.422469
      83A      1.428195    84A      1.492539    85A      1.509522
      86A      1.547229    87A      1.547249    88A      1.582312
      89A      1.582323    90A      1.674669    91A      1.744978
      92A      1.745390    93A      1.779091    94A      1.834973
      95A      1.835521    96A      1.972589    97A      2.024888
      98A      2.026007    99A      2.039675   100A      2.058842
     101A      2.059881   102A      2.746553   103A      2.747091
     104A      2.811836   105A      2.816060   106A      2.902167
     107A      2.903111   108A      2.924645   109A      2.931533
     110A      2.932421   111A      2.960055   112A      2.968770
     113A      2.969074   114A      3.041936   115A      3.080772
     116A      3.081629   117A      3.086164   118A      3.184357
     119A      3.184542   120A      3.188449   121A      3.289853
     122A      3.290368   123A      3.330576   124A      3.331346
     125A      3.383425   126A      3.492341   127A      3.493411
     128A      3.512394   129A      3.528383   130A      3.574997
     131A      3.581548   132A      3.581923   133A      3.670899
     134A      3.671359   135A      3.692952   136A      3.725601
     137A      3.725897   138A      3.780599   139A      3.782055
     140A      3.817683   141A      3.921584   142A      3.922505
     143A      4.045324   144A      4.117911   145A      4.118459
     146A      4.154374   147A      4.156281   148A      4.187320
     149A      4.208496   150A      4.209289   151A      4.210836
     152A      4.215354   153A      4.322783   154A      4.324035
     155A      4.362343   156A      4.432603   157A      4.432718
     158A      4.446328   159A      4.524452   160A      4.524808
     161A      4.588495   162A      4.588933   163A      4.625048
     164A      4.719810   165A      4.780960   166A      4.782154
     167A      4.839805   168A      4.967616   169A      5.006774
     170A      5.007261   171A      5.233757   172A      5.248576
     173A      5.248624   174A      5.361398   175A      5.362569
     176A      5.481669

    Final Occupation by Irrep:
              A
    DOCC [    16 ]
    SOCC [     1 ]

  @DF-UKS Final Energy:  -157.81306556084519

   => Energetics <=

    Nuclear Repulsion Energy =            125.3946664241194213
    One-Electron Energy =                -458.7489864095279017
    Two-Electron Energy =                 195.8483994096753520
    DFT Exchange-Correlation Energy =     -20.3071449851120391
    Empirical Dispersion Energy =           0.0000000000000000
    VV10 Nonlocal Energy =                  0.0000000000000000
    Total Energy =                       -157.8130655608451889

  UHF NO Occupations:
  HONO-2 :   15  A 1.9996009
  HONO-1 :   16  A 1.9989805
  HONO-0 :   17  A 1.0000000
  LUNO+0 :   18  A 0.0010195
  LUNO+1 :   19  A 0.0003991
  LUNO+2 :   20  A 0.0001986
  LUNO+3 :   21  A 0.0001965

Computation Completed

Properties will be evaluated at   0.000000,   0.000000,   0.000000 [a0]

Properties computed using the SCF density matrix

  Nuclear Dipole Moment: [e a0]
     X:     0.8272      Y:    -0.0000      Z:     0.0096

  Electronic Dipole Moment: [e a0]
     X:    -0.7493      Y:     0.0000      Z:    -0.0108

  Dipole Moment: [e a0]
     X:     0.0779      Y:     0.0000      Z:    -0.0012     Total:     0.0779

  Dipole Moment: [D]
     X:     0.1980      Y:     0.0000      Z:    -0.0031     Total:     0.1981

*** tstop() called on n091 at Fri Nov  5 13:52:28 2021
Module time:
	user time   =     576.50 seconds =       9.61 minutes
	system time =       5.48 seconds =       0.09 minutes
	total time  =        146 seconds =       2.43 minutes
Total time:
	user time   =     576.50 seconds =       9.61 minutes
	system time =       5.48 seconds =       0.09 minutes
	total time  =        146 seconds =       2.43 minutes
Grab this energy -157.8130655608452
    Psi4 stopped on: Friday, 05 November 2021 01:52PM
    Psi4 wall time for execution: 0:02:26.22

*** Psi4 exiting successfully. Buy a developer a beer!
