                               Psi4 1.4a2.dev629

  ==> Input File <==

--------------------------------------------------------------------------
import os
memory 14 GB

molecule {
 C   -0.3265086569   -0.0000021226    0.0000000000
 C    0.0598147617   -1.4009673427   -2.4265361303
 C    0.0596949455    2.8019388711    0.0000000000
 C    0.0598147617   -1.4009673427    2.4265361303
 H    2.0872705590   -1.6442289305   -2.8476683286
 H   -0.7643812960   -0.3877508655   -4.0254697975
 H   -0.7645446270   -3.2922246980   -2.3485743951
 H    2.0871316321    3.2883655048   -0.0000000000
 H   -0.7646222964    3.6800085532    1.6769017206
 H   -0.7646222964    3.6800085532   -1.6769017206
 H    2.0872705590   -1.6442289305    2.8476683286
 H   -0.7645446270   -3.2922246980    2.3485743951
 H   -0.7643812960   -0.3877508655    4.0254697975
units bohr
0 2
}

basis {

assign 6-31g_2dfp_

[ 6-31g_2dfp_ ]

spherical

!----------------------------------------------------------------------
! Basis Set Exchange
! Version v0.8.13
! https://www.basissetexchange.org
!----------------------------------------------------------------------
!   Basis set: 6-31G(2df,p)
! Description: 6-31G(2df,p)
!        Role: orbital
!     Version: 0  (Data from the original Basis Set Exchange)
!----------------------------------------------------------------------

****
H     0
S    3   1.00
     18.7311370              0.03349460
      2.8253937              0.23472695
      0.6401217              0.81375733
S    1   1.00
      0.1612778              1.00000000
P    1   1.00
      1.5000000              1.0000000
P    1   1.00
      0.3750000              1.0000000
****
B     0
S    6   1.00
   2068.8823000              0.0018663
    310.6495700              0.0142515
     70.6830330              0.0695516
     19.8610800              0.2325729
      6.2993048              0.4670787
      2.1270270              0.3634314
SP   3   1.00
      4.7279710             -0.1303938              0.0745976
      1.1903377             -0.1307889              0.3078467
      0.3594117              1.1309444              0.7434568
SP   1   1.00
      0.1267512              1.0000000              1.0000000
D    1   1.00
      0.8020000              1.0000000
D    1   1.00
      0.2005000              1.0000000
F    1   1.00
      0.5000000              1.0000000
****
C     0
S    6   1.00
   3047.5249000              0.0018347
    457.3695100              0.0140373
    103.9486900              0.0688426
     29.2101550              0.2321844
      9.2866630              0.4679413
      3.1639270              0.3623120
SP   3   1.00
      7.8682724             -0.1193324              0.0689991
      1.8812885             -0.1608542              0.3164240
      0.5442493              1.1434564              0.7443083
SP   1   1.00
      0.1687144              1.0000000              1.0000000
D    1   1.00
      1.2520000              1.0000000
D    1   1.00
      0.3130000              1.0000000
F    1   1.00
      0.8000000              1.0000000
****
N     0
S    6   1.00
   4173.5110000              0.0018348
    627.4579000              0.0139950
    142.9021000              0.0685870
     40.2343300              0.2322410
     12.8202100              0.4690700
      4.3904370              0.3604550
SP   3   1.00
     11.6263580             -0.1149610              0.0675800
      2.7162800             -0.1691180              0.3239070
      0.7722180              1.1458520              0.7408950
SP   1   1.00
      0.2120313              1.0000000              1.0000000
D    1   1.00
      1.8260000              1.0000000
D    1   1.00
      0.4565000              1.0000000
F    1   1.00
      1.0000000              1.0000000
****
O     0
S    6   1.00
   5484.6717000              0.0018311
    825.2349500              0.0139501
    188.0469600              0.0684451
     52.9645000              0.2327143
     16.8975700              0.4701930
      5.7996353              0.3585209
SP   3   1.00
     15.5396160             -0.1107775              0.0708743
      3.5999336             -0.1480263              0.3397528
      1.0137618              1.1307670              0.7271586
SP   1   1.00
      0.2700058              1.0000000              1.0000000
D    1   1.00
      2.5840000              1.0000000
D    1   1.00
      0.6460000              1.0000000
F    1   1.00
      1.4000000              1.0000000
****
F     0
S    6   1.00
   7001.7130900              0.0018196169
   1051.3660900              0.0139160796
    239.2856900              0.0684053245
     67.3974453              0.233185760
     21.5199573              0.471267439
      7.40310130             0.356618546
SP   3   1.00
     20.8479528             -0.108506975            0.0716287243
      4.80830834            -0.146451658            0.3459121030
      1.34406986             1.128688580            0.7224699570
SP   1   1.00
      0.358151393            1.0000000              1.0000000
D    1   1.00
      3.5000000              1.0000000
D    1   1.00
      0.8750000              1.0000000
F    1   1.00
      1.8500000              1.0000000
****
Al     0
S    6   1.00
  13983.1000000              0.00194267
   2098.7500000              0.0148599
    477.7050000              0.0728494
    134.3600000              0.2468300
     42.8709000              0.4872580
     14.5189000              0.3234960
SP   6   1.00
    239.6680000             -0.00292619             0.00460285
     57.4419000             -0.0374080              0.0331990
     18.2859000             -0.1144870              0.1362820
      6.5991400              0.1156350              0.3304760
      2.4904900              0.6125950              0.4491460
      0.9445400              0.3937990              0.2657040
SP   3   1.00
      1.2779000             -0.2276060             -0.0175130
      0.3975900              0.00144583             0.2445330
      0.1600950              1.0927900              0.8049340
SP   1   1.00
      0.0556577              1.0000000              1.0000000
D    1   1.00
      0.6500000              1.0000000
D    1   1.00
      0.1625000              1.0000000
F    1   1.00
      0.2500000              1.0000000
****
Si     0
S    6   1.00
  16115.9000000              0.00195948
   2425.5800000              0.01492880
    553.8670000              0.07284780
    156.3400000              0.24613000
     50.0683000              0.48591400
     17.0178000              0.32500200
SP   6   1.00
    292.7180000             -0.00278094             0.00443826
     69.8731000             -0.03571460             0.03266790
     22.3363000             -0.11498500             0.13472100
      8.1503900              0.09356340             0.32867800
      3.1345800              0.60301700             0.44964000
      1.2254300              0.41895900             0.26137200
SP   3   1.00
      1.7273800             -0.24463000            -0.01779510
      0.5729220              0.00431572             0.25353900
      0.2221920              1.09818000             0.80066900
SP   1   1.00
      0.0778369              1.00000000             1.00000000
D    1   1.00
      0.9000000              1.0000000
D    1   1.00
      0.2250000              1.0000000
F    1   1.00
      0.3200000              1.0000000
****
P     0
S    6   1.00
  19413.3000000              0.0018516
   2909.4200000              0.0142062
    661.3640000              0.0699995
    185.7590000              0.2400790
     59.1943000              0.4847620
     20.0310000              0.3352000
SP   6   1.00
    339.4780000             -0.00278217             0.00456462
     81.0101000             -0.0360499              0.03369360
     25.8780000             -0.1166310              0.13975500
      9.4522100              0.0968328              0.33936200
      3.6656600              0.6144180              0.45092100
      1.4674600              0.4037980              0.23858600
SP   3   1.00
      2.1562300             -0.2529230             -0.01776530
      0.7489970              0.0328517              0.27405800
      0.2831450              1.0812500              0.78542100
SP   1   1.00
      0.0998317              1.0000000              1.00000000
D    1   1.00
      1.1000000              1.0000000
D    1   1.00
      0.2750000              1.0000000
F    1   1.00
      0.4500000              1.0000000
****
S     0
S    6   1.00
  21917.1000000              0.0018690
   3301.4900000              0.0142300
    754.1460000              0.0696960
    212.7110000              0.2384870
     67.9896000              0.4833070
     23.0515000              0.3380740
SP   6   1.00
    423.7350000             -0.0023767              0.0040610
    100.7100000             -0.0316930              0.0306810
     32.1599000             -0.1133170              0.1304520
     11.8079000              0.0560900              0.3272050
      4.6311000              0.5922550              0.4528510
      1.8702500              0.4550060              0.2560420
SP   3   1.00
      2.6158400             -0.2503740             -0.0145110
      0.9221670              0.0669570              0.3102630
      0.3412870              1.0545100              0.7544830
SP   1   1.00
      0.1171670              1.0000000              1.0000000
D    1   1.00
      1.3000000              1.0000000
D    1   1.00
      0.3250000              1.0000000
F    1   1.00
      0.5500000              1.0000000
****
Cl     0
S    6   1.00
  25180.1000000              0.0018330
   3780.3500000              0.0140340
    860.4740000              0.0690970
    242.1450000              0.2374520
     77.3349000              0.4830340
     26.2470000              0.3398560
SP   6   1.00
    491.7650000             -0.0022974              0.0039894
    116.9840000             -0.0307140              0.0303180
     37.4153000             -0.1125280              0.1298800
     13.7834000              0.0450160              0.3279510
      5.4521500              0.5893530              0.4535270
      2.2258800              0.4652060              0.2521540
SP   3   1.00
      3.1864900             -0.2518300             -0.0142990
      1.1442700              0.0615890              0.3235720
      0.4203770              1.0601800              0.7435070
SP   1   1.00
      0.1426570              1.0000000              1.0000000
D    1   1.00
      1.5000000              1.0000000
D    1   1.00
      0.3750000              1.0000000
F    1   1.00
      0.7000000              1.0000000
****
}

set {
reference uhf
freeze_core true
e_convergence 10
d_convergence 10
dft_spherical_points 1202
dft_radial_points 99
}

e = energy('b3lyp')

print_out('Grab this energy {0}'.format(e))
--------------------------------------------------------------------------

    Molecular point group: cs

    Geometry (in Bohr), charge = 0, multiplicity = 2:

       Center              X                  Y                   Z               Mass
    ------------   -----------------  -----------------  -----------------  -----------------
         C           -0.325132631915    -0.000002090604     0.000000000000    12.000000000000
         C            0.061190786685    -1.400967310704    -2.426536130300    12.000000000000
         C            0.061070970485     2.801938903096     0.000000000000    12.000000000000
         C            0.061190786685    -1.400967310704     2.426536130300    12.000000000000
         H            2.088646583985    -1.644228898504    -2.847668328600     1.007825032230
         H           -0.763005271015    -0.387750833504    -4.025469797500     1.007825032230
         H           -0.763168602015    -3.292224666004    -2.348574395100     1.007825032230
         H            2.088507657085     3.288365536796     0.000000000000     1.007825032230
         H           -0.763246271415     3.680008585196     1.676901720600     1.007825032230
         H           -0.763246271415     3.680008585196    -1.676901720600     1.007825032230
         H            2.088646583985    -1.644228898504     2.847668328600     1.007825032230
         H           -0.763168602015    -3.292224666004     2.348574395100     1.007825032230
         H           -0.763005271015    -0.387750833504     4.025469797500     1.007825032230

  Charge       = 0
  Multiplicity = 2
  Basis Set: ANONYMOUS0FBEEE42
    Blend: 6-31G_2DFP_
  Basis Set: (ANONYMOUS0FBEEE42 AUX)
    Blend: DEF2-UNIVERSAL-JKFIT

    Orbital Energies [Eh]
    ---------------------

    Alpha Occupied:

       1Ap   -10.180455     2Ap   -10.167054     1App  -10.167054
       3Ap   -10.167008     4Ap    -0.797712     5Ap    -0.686174
       2App   -0.686174     6Ap    -0.530797     7Ap    -0.440888
       3App   -0.434817     8Ap    -0.434816     9Ap    -0.382352
       4App   -0.382350     5App   -0.363893     6App   -0.338048
      10Ap    -0.338048    11Ap    -0.169077

    Alpha Virtual:

      12Ap     0.076090    13Ap     0.134161     7App    0.134162
      14Ap     0.142711     8App    0.142711    15Ap     0.154814
      16Ap     0.178674     9App    0.178675    17Ap     0.203501
      10App    0.214934    11App    0.275846    18Ap     0.275847
      19Ap     0.399209    12App    0.399214    20Ap     0.403302
      13App    0.424090    21Ap     0.424091    22Ap     0.456589
      23Ap     0.495441    14App    0.495442    15App    0.512056
      24Ap     0.513982    25Ap     0.578903    16App    0.578912
      17App    0.591328    26Ap     0.591330    27Ap     0.602260
      28Ap     0.624905    18App    0.631918    19App    0.636375
      29Ap     0.636378    30Ap     0.663240    20App    0.663240
      31Ap     0.683875    21App    0.683876    32Ap     0.734865
      22App    0.825231    33Ap     0.825234    23App    0.853963
      24App    0.914858    34Ap     0.914864    25App    0.944023
      35Ap     0.944595    26App    0.961375    36Ap     0.961392
      37Ap     1.004334    38Ap     1.128326    27App    1.128339
      39Ap     1.141849    40Ap     1.163125    28App    1.163137
      41Ap     1.222903    42Ap     1.274204    29App    1.274207
      43Ap     1.279202    30App    1.324468    44Ap     1.324471
      45Ap     1.354966    31App    1.366400    46Ap     1.366404
      32App    1.392533    47Ap     1.403425    33App    1.403427
      34App    1.416500    48Ap     1.416507    35App    1.427728
      36App    1.491960    49Ap     1.498575    37App    1.543208
      50Ap     1.543211    51Ap     1.574542    38App    1.574545
      52Ap     1.670358    53Ap     1.739202    39App    1.739214
      54Ap     1.768104    40App    1.831721    55Ap     1.831722
      41App    1.972284    56Ap     2.018027    57Ap     2.018738
      42App    2.018741    58Ap     2.052263    43App    2.052264
      44App    2.738154    59Ap     2.738155    60Ap     2.790705
      45App    2.811701    61Ap     2.889775    46App    2.889781
      62Ap     2.894976    63Ap     2.929643    47App    2.929651
      48App    2.959161    64Ap     2.964335    49App    2.964349
      65Ap     3.033969    50App    3.070659    66Ap     3.070672
      51App    3.084413    67Ap     3.168762    52App    3.168769
      68Ap     3.180775    53App    3.285665    69Ap     3.285665
      70Ap     3.328091    54App    3.328097    71Ap     3.375319
      55App    3.489972    72Ap     3.489992    56App    3.513556
      73Ap     3.525490    57App    3.567957    74Ap     3.567977
      58App    3.574692    75Ap     3.666380    59App    3.666389
      76Ap     3.680681    60App    3.693824    77Ap     3.693841
      78Ap     3.775914    61App    3.775939    79Ap     3.787797
      80Ap     3.912323    62App    3.912329    81Ap     4.033286
      82Ap     4.111751    63App    4.111755    83Ap     4.148348
      64App    4.148356    84Ap     4.173101    85Ap     4.202266
      65App    4.202750    86Ap     4.202754    66App    4.210742
      87Ap     4.315744    67App    4.315764    68App    4.359069
      88Ap     4.423820    69App    4.423822    70App    4.444319
      71App    4.516978    89Ap     4.516979    72App    4.578366
      90Ap     4.578379    91Ap     4.616657    92Ap     4.709037
      93Ap     4.774340    73App    4.774347    74App    4.836665
      94Ap     4.962925    75App    5.002235    95Ap     5.002247
      96Ap     5.227975    76App    5.246819    97Ap     5.246819
      98Ap     5.355948    77App    5.355961    78App    5.478832

    Beta Occupied:

       1Ap   -10.167806     1App  -10.167806     2Ap   -10.167782
       3Ap   -10.166634     4Ap    -0.781053     5Ap    -0.683981
       2App   -0.683980     6Ap    -0.511773     3App   -0.431199
       7Ap    -0.431198     8Ap    -0.421579     9Ap    -0.376425
       4App   -0.376424     5App   -0.362879     6App   -0.333168
      10Ap    -0.333168

    Beta Virtual:

      11Ap    -0.025891    12Ap     0.077100    13Ap     0.135083
       7App    0.135084    14Ap     0.144572     8App    0.144572
      15Ap     0.163305    16Ap     0.182335     9App    0.182335
      10App    0.215160    17Ap     0.218862    11App    0.282205
      18Ap     0.282207    19Ap     0.400383    12App    0.400387
      20Ap     0.419809    13App    0.426898    21Ap     0.426899
      22Ap     0.468434    23Ap     0.497702    14App    0.497702
      15App    0.513796    24Ap     0.556281    25Ap     0.584444
      16App    0.584453    17App    0.597525    26Ap     0.597526
      27Ap     0.609710    28Ap     0.628248    18App    0.632073
      19App    0.639644    29Ap     0.639648    30Ap     0.666831
      20App    0.666831    31Ap     0.686507    21App    0.686509
      32Ap     0.757395    22App    0.830420    33Ap     0.830423
      23App    0.855318    24App    0.922833    34Ap     0.922840
      25App    0.945859    35Ap     0.953490    26App    0.966663
      36Ap     0.966679    37Ap     1.009622    38Ap     1.132250
      27App    1.132261    39Ap     1.155240    40Ap     1.168258
      28App    1.168271    41Ap     1.231868    42Ap     1.279818
      29App    1.279821    43Ap     1.284947    30App    1.329517
      44Ap     1.329519    45Ap     1.364365    31App    1.371646
      46Ap     1.371651    32App    1.393600    47Ap     1.406872
      33App    1.406875    34App    1.421536    48Ap     1.421542
      35App    1.427978    36App    1.493011    49Ap     1.508999
      37App    1.547726    50Ap     1.547726    38App    1.582311
      51Ap     1.582311    52Ap     1.675190    53Ap     1.744972
      39App    1.744983    54Ap     1.778891    40App    1.835570
      55Ap     1.835570    41App    1.973141    56Ap     2.025104
      42App    2.025107    57Ap     2.039426    58Ap     2.059000
      43App    2.059001    44App    2.746492    59Ap     2.746493
      45App    2.812112    60Ap     2.815789    61Ap     2.902477
      46App    2.902483    62Ap     2.924603    63Ap     2.932096
      47App    2.932105    48App    2.960223    64Ap     2.968894
      49App    2.968908    65Ap     3.041944    50App    3.080595
      66Ap     3.080606    51App    3.086234    67Ap     3.184442
      52App    3.184446    68Ap     3.188512    69Ap     3.290420
      53App    3.290420    70Ap     3.331911    54App    3.331916
      71Ap     3.383099    55App    3.492710    72Ap     3.492731
      56App    3.511922    73Ap     3.528499    57App    3.574545
      58App    3.581364    74Ap     3.581386    75Ap     3.671055
      59App    3.671067    76Ap     3.693956    60App    3.725486
      77Ap     3.725502    78Ap     3.780478    61App    3.780504
      79Ap     3.816370    80Ap     3.922141    62App    3.922148
      81Ap     4.044185    82Ap     4.118544    63App    4.118546
      83Ap     4.155571    64App    4.155580    84Ap     4.187194
      65App    4.208685    85Ap     4.208689    86Ap     4.210220
      66App    4.215248    87Ap     4.323173    67App    4.323193
      68App    4.362444    88Ap     4.432095    69App    4.432097
      70App    4.447169    71App    4.524772    89Ap     4.524773
      72App    4.588944    90Ap     4.588956    91Ap     4.623776
      92Ap     4.719472    93Ap     4.781269    73App    4.781277
      74App    4.839579    94Ap     4.967736    75App    5.006286
      95Ap     5.006299    96Ap     5.233660    76App    5.248593
      97Ap     5.248594    98Ap     5.362411    77App    5.362424
      78App    5.481152

    Final Occupation by Irrep:
             Ap   App
    DOCC [    10,    6 ]
    SOCC [     1,    0 ]

  @DF-UKS Final Energy:  -157.81306711466263

   => Energetics <=

    Nuclear Repulsion Energy =            125.3858473326285292
    One-Electron Energy =                -458.7312661543182912
    Two-Electron Energy =                 195.8392382017486852
    DFT Exchange-Correlation Energy =     -20.3068864947215637
    Empirical Dispersion Energy =           0.0000000000000000
    VV10 Nonlocal Energy =                  0.0000000000000000
    Total Energy =                       -157.8130671146626298

  UHF NO Occupations:
  HONO-2 :    9 Ap 1.9995999
  HONO-1 :   10 Ap 1.9989813
  HONO-0 :   11 Ap 1.0000000
  LUNO+0 :   12 Ap 0.0010187
  LUNO+1 :   13 Ap 0.0004001
  LUNO+2 :    7App 0.0001976
  LUNO+3 :   14 Ap 0.0001976

Computation Completed

Properties will be evaluated at   0.000000,   0.000000,   0.000000 [a0]

Properties computed using the SCF density matrix

  Nuclear Dipole Moment: [e a0]
     X:     0.8369      Y:    -0.0000      Z:    -0.0000

  Electronic Dipole Moment: [e a0]
     X:    -0.7591      Y:     0.0000      Z:     0.0000

  Dipole Moment: [e a0]
     X:     0.0778      Y:    -0.0000      Z:    -0.0000     Total:     0.0778

  Dipole Moment: [D]
     X:     0.1977      Y:    -0.0000      Z:    -0.0000     Total:     0.1977

*** tstop() called on n059 at Fri Nov  5 13:30:38 2021
Module time:
	user time   =     545.94 seconds =       9.10 minutes
	system time =      12.04 seconds =       0.20 minutes
	total time  =        140 seconds =       2.33 minutes
Total time:
	user time   =     545.94 seconds =       9.10 minutes
	system time =      12.04 seconds =       0.20 minutes
	total time  =        140 seconds =       2.33 minutes
Grab this energy -157.81306711466263
    Psi4 stopped on: Friday, 05 November 2021 01:30PM
    Psi4 wall time for execution: 0:02:20.70

*** Psi4 exiting successfully. Buy a developer a beer!
