                               Psi4 1.4a2.dev629

  ==> Input File <==

--------------------------------------------------------------------------
import os
memory 14 GB

molecule {
 C   -0.3233525519   -0.0000016205    0.0002234988
 C    0.0611020100   -1.4012486631   -2.4265423892
 C    0.0608372214    2.8001210586    0.0004815744
 C    0.0608112166   -1.3988657458    2.4233777075
 H    2.0869561336   -1.6439705015   -2.8474076132
 H   -0.7653676190   -0.3881078470   -4.0254388004
 H   -0.7655923286   -3.2919432968   -2.3489257612
 H    2.0867452294    3.2886029579   -0.0001862043
 H   -0.7655877278    3.6807500993    1.6763011119
 H   -0.7654647478    3.6807281897   -1.6764887181
 H    2.0868077232   -1.6447260291    2.8483440324
 H   -0.7653021003   -3.2923565526    2.3500016990
 H   -0.7652003354   -0.3890063628    4.0262598625
units bohr
0 2
}

basis {

assign 6-31g_2dfp_

[ 6-31g_2dfp_ ]

spherical

!----------------------------------------------------------------------
! Basis Set Exchange
! Version v0.8.13
! https://www.basissetexchange.org
!----------------------------------------------------------------------
!   Basis set: 6-31G(2df,p)
! Description: 6-31G(2df,p)
!        Role: orbital
!     Version: 0  (Data from the original Basis Set Exchange)
!----------------------------------------------------------------------

****
H     0
S    3   1.00
     18.7311370              0.03349460
      2.8253937              0.23472695
      0.6401217              0.81375733
S    1   1.00
      0.1612778              1.00000000
P    1   1.00
      1.5000000              1.0000000
P    1   1.00
      0.3750000              1.0000000
****
B     0
S    6   1.00
   2068.8823000              0.0018663
    310.6495700              0.0142515
     70.6830330              0.0695516
     19.8610800              0.2325729
      6.2993048              0.4670787
      2.1270270              0.3634314
SP   3   1.00
      4.7279710             -0.1303938              0.0745976
      1.1903377             -0.1307889              0.3078467
      0.3594117              1.1309444              0.7434568
SP   1   1.00
      0.1267512              1.0000000              1.0000000
D    1   1.00
      0.8020000              1.0000000
D    1   1.00
      0.2005000              1.0000000
F    1   1.00
      0.5000000              1.0000000
****
C     0
S    6   1.00
   3047.5249000              0.0018347
    457.3695100              0.0140373
    103.9486900              0.0688426
     29.2101550              0.2321844
      9.2866630              0.4679413
      3.1639270              0.3623120
SP   3   1.00
      7.8682724             -0.1193324              0.0689991
      1.8812885             -0.1608542              0.3164240
      0.5442493              1.1434564              0.7443083
SP   1   1.00
      0.1687144              1.0000000              1.0000000
D    1   1.00
      1.2520000              1.0000000
D    1   1.00
      0.3130000              1.0000000
F    1   1.00
      0.8000000              1.0000000
****
N     0
S    6   1.00
   4173.5110000              0.0018348
    627.4579000              0.0139950
    142.9021000              0.0685870
     40.2343300              0.2322410
     12.8202100              0.4690700
      4.3904370              0.3604550
SP   3   1.00
     11.6263580             -0.1149610              0.0675800
      2.7162800             -0.1691180              0.3239070
      0.7722180              1.1458520              0.7408950
SP   1   1.00
      0.2120313              1.0000000              1.0000000
D    1   1.00
      1.8260000              1.0000000
D    1   1.00
      0.4565000              1.0000000
F    1   1.00
      1.0000000              1.0000000
****
O     0
S    6   1.00
   5484.6717000              0.0018311
    825.2349500              0.0139501
    188.0469600              0.0684451
     52.9645000              0.2327143
     16.8975700              0.4701930
      5.7996353              0.3585209
SP   3   1.00
     15.5396160             -0.1107775              0.0708743
      3.5999336             -0.1480263              0.3397528
      1.0137618              1.1307670              0.7271586
SP   1   1.00
      0.2700058              1.0000000              1.0000000
D    1   1.00
      2.5840000              1.0000000
D    1   1.00
      0.6460000              1.0000000
F    1   1.00
      1.4000000              1.0000000
****
F     0
S    6   1.00
   7001.7130900              0.0018196169
   1051.3660900              0.0139160796
    239.2856900              0.0684053245
     67.3974453              0.233185760
     21.5199573              0.471267439
      7.40310130             0.356618546
SP   3   1.00
     20.8479528             -0.108506975            0.0716287243
      4.80830834            -0.146451658            0.3459121030
      1.34406986             1.128688580            0.7224699570
SP   1   1.00
      0.358151393            1.0000000              1.0000000
D    1   1.00
      3.5000000              1.0000000
D    1   1.00
      0.8750000              1.0000000
F    1   1.00
      1.8500000              1.0000000
****
Al     0
S    6   1.00
  13983.1000000              0.00194267
   2098.7500000              0.0148599
    477.7050000              0.0728494
    134.3600000              0.2468300
     42.8709000              0.4872580
     14.5189000              0.3234960
SP   6   1.00
    239.6680000             -0.00292619             0.00460285
     57.4419000             -0.0374080              0.0331990
     18.2859000             -0.1144870              0.1362820
      6.5991400              0.1156350              0.3304760
      2.4904900              0.6125950              0.4491460
      0.9445400              0.3937990              0.2657040
SP   3   1.00
      1.2779000             -0.2276060             -0.0175130
      0.3975900              0.00144583             0.2445330
      0.1600950              1.0927900              0.8049340
SP   1   1.00
      0.0556577              1.0000000              1.0000000
D    1   1.00
      0.6500000              1.0000000
D    1   1.00
      0.1625000              1.0000000
F    1   1.00
      0.2500000              1.0000000
****
Si     0
S    6   1.00
  16115.9000000              0.00195948
   2425.5800000              0.01492880
    553.8670000              0.07284780
    156.3400000              0.24613000
     50.0683000              0.48591400
     17.0178000              0.32500200
SP   6   1.00
    292.7180000             -0.00278094             0.00443826
     69.8731000             -0.03571460             0.03266790
     22.3363000             -0.11498500             0.13472100
      8.1503900              0.09356340             0.32867800
      3.1345800              0.60301700             0.44964000
      1.2254300              0.41895900             0.26137200
SP   3   1.00
      1.7273800             -0.24463000            -0.01779510
      0.5729220              0.00431572             0.25353900
      0.2221920              1.09818000             0.80066900
SP   1   1.00
      0.0778369              1.00000000             1.00000000
D    1   1.00
      0.9000000              1.0000000
D    1   1.00
      0.2250000              1.0000000
F    1   1.00
      0.3200000              1.0000000
****
P     0
S    6   1.00
  19413.3000000              0.0018516
   2909.4200000              0.0142062
    661.3640000              0.0699995
    185.7590000              0.2400790
     59.1943000              0.4847620
     20.0310000              0.3352000
SP   6   1.00
    339.4780000             -0.00278217             0.00456462
     81.0101000             -0.0360499              0.03369360
     25.8780000             -0.1166310              0.13975500
      9.4522100              0.0968328              0.33936200
      3.6656600              0.6144180              0.45092100
      1.4674600              0.4037980              0.23858600
SP   3   1.00
      2.1562300             -0.2529230             -0.01776530
      0.7489970              0.0328517              0.27405800
      0.2831450              1.0812500              0.78542100
SP   1   1.00
      0.0998317              1.0000000              1.00000000
D    1   1.00
      1.1000000              1.0000000
D    1   1.00
      0.2750000              1.0000000
F    1   1.00
      0.4500000              1.0000000
****
S     0
S    6   1.00
  21917.1000000              0.0018690
   3301.4900000              0.0142300
    754.1460000              0.0696960
    212.7110000              0.2384870
     67.9896000              0.4833070
     23.0515000              0.3380740
SP   6   1.00
    423.7350000             -0.0023767              0.0040610
    100.7100000             -0.0316930              0.0306810
     32.1599000             -0.1133170              0.1304520
     11.8079000              0.0560900              0.3272050
      4.6311000              0.5922550              0.4528510
      1.8702500              0.4550060              0.2560420
SP   3   1.00
      2.6158400             -0.2503740             -0.0145110
      0.9221670              0.0669570              0.3102630
      0.3412870              1.0545100              0.7544830
SP   1   1.00
      0.1171670              1.0000000              1.0000000
D    1   1.00
      1.3000000              1.0000000
D    1   1.00
      0.3250000              1.0000000
F    1   1.00
      0.5500000              1.0000000
****
Cl     0
S    6   1.00
  25180.1000000              0.0018330
   3780.3500000              0.0140340
    860.4740000              0.0690970
    242.1450000              0.2374520
     77.3349000              0.4830340
     26.2470000              0.3398560
SP   6   1.00
    491.7650000             -0.0022974              0.0039894
    116.9840000             -0.0307140              0.0303180
     37.4153000             -0.1125280              0.1298800
     13.7834000              0.0450160              0.3279510
      5.4521500              0.5893530              0.4535270
      2.2258800              0.4652060              0.2521540
SP   3   1.00
      3.1864900             -0.2518300             -0.0142990
      1.1442700              0.0615890              0.3235720
      0.4203770              1.0601800              0.7435070
SP   1   1.00
      0.1426570              1.0000000              1.0000000
D    1   1.00
      1.5000000              1.0000000
D    1   1.00
      0.3750000              1.0000000
F    1   1.00
      0.7000000              1.0000000
****
}

set {
reference uhf
freeze_core true
e_convergence 10
d_convergence 10
dft_spherical_points 1202
dft_radial_points 99
}

e = energy('b3lyp')

print_out('Grab this energy {0}'.format(e))
--------------------------------------------------------------------------

    Molecular point group: c1

    Geometry (in Bohr), charge = 0, multiplicity = 2:

       Center              X                  Y                   Z               Mass
    ------------   -----------------  -----------------  -----------------  -----------------
         C           -0.323244283723    -0.000002159797     0.000697237111    12.000000000000
         C            0.061210278177    -1.401249202397    -2.426068650889    12.000000000000
         C            0.060945489577     2.800120519303     0.000955312711    12.000000000000
         C            0.060919484777    -1.398866285097     2.423851445811    12.000000000000
         H            2.087064401777    -1.643971040797    -2.846933874889     1.007825032230
         H           -0.765259350823    -0.388108386297    -4.024965062089     1.007825032230
         H           -0.765484060423    -3.291943836097    -2.348452022889     1.007825032230
         H            2.086853497577     3.288602418603     0.000287534011     1.007825032230
         H           -0.765479459623     3.680749560003     1.676774850211     1.007825032230
         H           -0.765356479623     3.680727650403    -1.676014979789     1.007825032230
         H            2.086915991377    -1.644726568397     2.848817770711     1.007825032230
         H           -0.765193832123    -3.292357091897     2.350475437311     1.007825032230
         H           -0.765092067223    -0.389006902097     4.026733600811     1.007825032230

  Charge       = 0
  Multiplicity = 2
  Basis Set: ANONYMOUSFD8581F9
    Blend: 6-31G_2DFP_
  Basis Set: (ANONYMOUSFD8581F9 AUX)
    Blend: DEF2-UNIVERSAL-JKFIT

    Orbital Energies [Eh]
    ---------------------

    Alpha Occupied:

       1A    -10.180290     2A    -10.167110     3A    -10.167071
       4A    -10.167021     5A     -0.798023     6A     -0.686219
       7A     -0.686173     8A     -0.530943     9A     -0.441134
      10A     -0.434821    11A     -0.434657    12A     -0.382551
      13A     -0.382371    14A     -0.363411    15A     -0.338366
      16A     -0.337950    17A     -0.168982

    Alpha Virtual:

      18A      0.076065    19A      0.134079    20A      0.134115
      21A      0.142431    22A      0.142560    23A      0.154986
      24A      0.178530    25A      0.178695    26A      0.203835
      27A      0.214678    28A      0.276002    29A      0.276452
      30A      0.399211    31A      0.399232    32A      0.403255
      33A      0.424000    34A      0.424087    35A      0.456774
      36A      0.495358    37A      0.495401    38A      0.512105
      39A      0.513922    40A      0.578737    41A      0.578807
      42A      0.591476    43A      0.591594    44A      0.602530
      45A      0.624642    46A      0.631543    47A      0.636140
      48A      0.636471    49A      0.663465    50A      0.663588
      51A      0.683817    52A      0.683858    53A      0.734862
      54A      0.825373    55A      0.825484    56A      0.854052
      57A      0.914969    58A      0.915000    59A      0.944173
      60A      0.944925    61A      0.961192    62A      0.961259
      63A      1.003282    64A      1.128110    65A      1.128260
      66A      1.142644    67A      1.162373    68A      1.162947
      69A      1.223753    70A      1.274310    71A      1.274912
      72A      1.279536    73A      1.324492    74A      1.324624
      75A      1.356328    76A      1.366045    77A      1.366350
      78A      1.391956    79A      1.403158    80A      1.403499
      81A      1.416943    82A      1.417242    83A      1.427670
      84A      1.492014    85A      1.498496    86A      1.542915
      87A      1.543058    88A      1.574353    89A      1.574741
      90A      1.669037    91A      1.739782    92A      1.740061
      93A      1.768291    94A      1.830470    95A      1.831476
      96A      1.972328    97A      2.018044    98A      2.019275
      99A      2.020342   100A      2.052394   101A      2.053764
     102A      2.738540   103A      2.738782   104A      2.791146
     105A      2.811514   106A      2.889980   107A      2.890136
     108A      2.895354   109A      2.929275   110A      2.929399
     111A      2.958944   112A      2.964269   113A      2.964425
     114A      3.034182   115A      3.071097   116A      3.071367
     117A      3.084757   118A      3.168686   119A      3.169061
     120A      3.181200   121A      3.284971   122A      3.284995
     123A      3.327215   124A      3.327591   125A      3.375516
     126A      3.489909   127A      3.490575   128A      3.514162
     129A      3.525676   130A      3.568557   131A      3.568716
     132A      3.575005   133A      3.664891   134A      3.666269
     135A      3.679100   136A      3.693917   137A      3.694149
     138A      3.776673   139A      3.777042   140A      3.788827
     141A      3.912576   142A      3.914079   143A      4.035013
     144A      4.110946   145A      4.111245   146A      4.147818
     147A      4.148424   148A      4.173928   149A      4.203096
     150A      4.203648   151A      4.204273   152A      4.211216
     153A      4.315096   154A      4.316551   155A      4.358343
     156A      4.422316   157A      4.424163   158A      4.441569
     159A      4.516524   160A      4.517834   161A      4.578967
     162A      4.579014   163A      4.617914   164A      4.710736
     165A      4.775045   166A      4.775688   167A      4.838242
     168A      4.961519   169A      5.001390   170A      5.002804
     171A      5.227513   172A      5.246330   173A      5.246726
     174A      5.355598   175A      5.355729   176A      5.480567

    Beta Occupied:

       1A    -10.167870     2A    -10.167830     3A    -10.167786
       4A    -10.166478     5A     -0.781333     6A     -0.684022
       7A     -0.683964     8A     -0.511960     9A     -0.431175
      10A     -0.431008    11A     -0.421789    12A     -0.376640
      13A     -0.376420    14A     -0.362391    15A     -0.333505
      16A     -0.333087

    Beta Virtual:

      17A     -0.025913    18A      0.077077    19A      0.134992
      20A      0.134999    21A      0.144320    22A      0.144415
      23A      0.163487    24A      0.182229    25A      0.182369
      26A      0.214910    27A      0.219168    28A      0.282339
      29A      0.282771    30A      0.400390    31A      0.400406
      32A      0.419708    33A      0.426812    34A      0.426901
      35A      0.468759    36A      0.497619    37A      0.497676
      38A      0.513849    39A      0.556236    40A      0.584280
      41A      0.584362    42A      0.597646    43A      0.597764
      44A      0.609949    45A      0.628053    46A      0.631704
      47A      0.639447    48A      0.639769    49A      0.667025
      50A      0.667160    51A      0.686476    52A      0.686491
      53A      0.757309    54A      0.830552    55A      0.830673
      56A      0.855417    57A      0.922935    58A      0.922971
      59A      0.946016    60A      0.953866    61A      0.966510
      62A      0.966571    63A      1.008513    64A      1.132138
      65A      1.132279    66A      1.156054    67A      1.167419
      68A      1.168029    69A      1.232667    70A      1.279936
      71A      1.280545    72A      1.285265    73A      1.329517
      74A      1.329622    75A      1.365755    76A      1.371254
      77A      1.371502    78A      1.393023    79A      1.406707
      80A      1.406948    81A      1.422008    82A      1.422274
      83A      1.427933    84A      1.493075    85A      1.508961
      86A      1.547337    87A      1.547496    88A      1.582201
      89A      1.582600    90A      1.673878    91A      1.745537
      92A      1.745823    93A      1.779112    94A      1.834360
      95A      1.835346    96A      1.973195    97A      2.025711
      98A      2.026799    99A      2.039453   100A      2.059071
     101A      2.060443   102A      2.746867   103A      2.747063
     104A      2.811924   105A      2.816248   106A      2.902652
     107A      2.902765   108A      2.925092   109A      2.931802
     110A      2.931895   111A      2.960004   112A      2.968830
     113A      2.969015   114A      3.042160   115A      3.081056
     116A      3.081314   117A      3.086584   118A      3.184310
     119A      3.184713   120A      3.188891   121A      3.289816
     122A      3.289845   123A      3.331022   124A      3.331382
     125A      3.383367   126A      3.492626   127A      3.493335
     128A      3.512525   129A      3.528684   130A      3.574865
     131A      3.581809   132A      3.582005   133A      3.669445
     134A      3.670874   135A      3.692391   136A      3.725639
     137A      3.725900   138A      3.781217   139A      3.781672
     140A      3.817319   141A      3.922405   142A      3.923806
     143A      4.045822   144A      4.117755   145A      4.118257
     146A      4.155070   147A      4.155486   148A      4.188041
     149A      4.209229   150A      4.210032   151A      4.211633
     152A      4.215710   153A      4.322415   154A      4.323926
     155A      4.361727   156A      4.430616   157A      4.432395
     158A      4.444486   159A      4.524383   160A      4.525682
     161A      4.589571   162A      4.589650   163A      4.625127
     164A      4.721084   165A      4.782015   166A      4.782619
     167A      4.841158   168A      4.966337   169A      5.005466
     170A      5.006851   171A      5.233246   172A      5.248132
     173A      5.248513   174A      5.362086   175A      5.362259
     176A      5.482896

    Final Occupation by Irrep:
              A
    DOCC [    16 ]
    SOCC [     1 ]

  @DF-UKS Final Energy:  -157.81309193751275

   => Energetics <=

    Nuclear Repulsion Energy =            125.4225541140539946
    One-Electron Energy =                -458.8038709211115247
    Two-Electron Energy =                 195.8752514646756993
    DFT Exchange-Correlation Energy =     -20.3070265951309139
    Empirical Dispersion Energy =           0.0000000000000000
    VV10 Nonlocal Energy =                  0.0000000000000000
    Total Energy =                       -157.8130919375127519

  UHF NO Occupations:
  HONO-2 :   15  A 1.9995992
  HONO-1 :   16  A 1.9989827
  HONO-0 :   17  A 1.0000000
  LUNO+0 :   18  A 0.0010173
  LUNO+1 :   19  A 0.0004008
  LUNO+2 :   20  A 0.0001971
  LUNO+3 :   21  A 0.0001964

Computation Completed

Properties will be evaluated at   0.000000,   0.000000,   0.000000 [a0]

Properties computed using the SCF density matrix

  Nuclear Dipole Moment: [e a0]
     X:     0.8280      Y:    -0.0000      Z:     0.0033

  Electronic Dipole Moment: [e a0]
     X:    -0.7502      Y:     0.0000      Z:    -0.0034

  Dipole Moment: [e a0]
     X:     0.0778      Y:     0.0000      Z:    -0.0001     Total:     0.0778

  Dipole Moment: [D]
     X:     0.1977      Y:     0.0000      Z:    -0.0002     Total:     0.1977

*** tstop() called on n023 at Fri Nov  5 13:07:21 2021
Module time:
	user time   =     598.21 seconds =       9.97 minutes
	system time =      11.37 seconds =       0.19 minutes
	total time  =        153 seconds =       2.55 minutes
Total time:
	user time   =     598.21 seconds =       9.97 minutes
	system time =      11.37 seconds =       0.19 minutes
	total time  =        153 seconds =       2.55 minutes
Grab this energy -157.81309193751275
    Psi4 stopped on: Friday, 05 November 2021 01:07PM
    Psi4 wall time for execution: 0:02:33.65

*** Psi4 exiting successfully. Buy a developer a beer!
