                               Psi4 1.4a2.dev629

  ==> Input File <==

--------------------------------------------------------------------------
import os
memory 14 GB

molecule {
 C   -0.3233409131   -0.0000019620   -0.0004814173
 C    0.0592205943   -1.4000217878   -2.4246134840
 C    0.0610197102    2.8017596389    0.0002850050
 C    0.0630619611   -1.4017323611    2.4281472557
 H    2.0870409914   -1.6443712945   -2.8479667286
 H   -0.7646995647   -0.3884345939   -4.0260137318
 H   -0.7649376474   -3.2923064484   -2.3495030500
 H    2.0867984311    3.2881030226   -0.0000502815
 H   -0.7657222140    3.6802870001    1.6764273244
 H   -0.7655721209    3.6802213905   -1.6765739161
 H    2.0868321645   -1.6438287882    2.8469260416
 H   -0.7661985448   -3.2916854843    2.3484726883
 H   -0.7661107244   -0.3880126454    4.0249442943
units bohr
0 2
}

basis {

assign 6-31g_2dfp_

[ 6-31g_2dfp_ ]

spherical

!----------------------------------------------------------------------
! Basis Set Exchange
! Version v0.8.13
! https://www.basissetexchange.org
!----------------------------------------------------------------------
!   Basis set: 6-31G(2df,p)
! Description: 6-31G(2df,p)
!        Role: orbital
!     Version: 0  (Data from the original Basis Set Exchange)
!----------------------------------------------------------------------

****
H     0
S    3   1.00
     18.7311370              0.03349460
      2.8253937              0.23472695
      0.6401217              0.81375733
S    1   1.00
      0.1612778              1.00000000
P    1   1.00
      1.5000000              1.0000000
P    1   1.00
      0.3750000              1.0000000
****
B     0
S    6   1.00
   2068.8823000              0.0018663
    310.6495700              0.0142515
     70.6830330              0.0695516
     19.8610800              0.2325729
      6.2993048              0.4670787
      2.1270270              0.3634314
SP   3   1.00
      4.7279710             -0.1303938              0.0745976
      1.1903377             -0.1307889              0.3078467
      0.3594117              1.1309444              0.7434568
SP   1   1.00
      0.1267512              1.0000000              1.0000000
D    1   1.00
      0.8020000              1.0000000
D    1   1.00
      0.2005000              1.0000000
F    1   1.00
      0.5000000              1.0000000
****
C     0
S    6   1.00
   3047.5249000              0.0018347
    457.3695100              0.0140373
    103.9486900              0.0688426
     29.2101550              0.2321844
      9.2866630              0.4679413
      3.1639270              0.3623120
SP   3   1.00
      7.8682724             -0.1193324              0.0689991
      1.8812885             -0.1608542              0.3164240
      0.5442493              1.1434564              0.7443083
SP   1   1.00
      0.1687144              1.0000000              1.0000000
D    1   1.00
      1.2520000              1.0000000
D    1   1.00
      0.3130000              1.0000000
F    1   1.00
      0.8000000              1.0000000
****
N     0
S    6   1.00
   4173.5110000              0.0018348
    627.4579000              0.0139950
    142.9021000              0.0685870
     40.2343300              0.2322410
     12.8202100              0.4690700
      4.3904370              0.3604550
SP   3   1.00
     11.6263580             -0.1149610              0.0675800
      2.7162800             -0.1691180              0.3239070
      0.7722180              1.1458520              0.7408950
SP   1   1.00
      0.2120313              1.0000000              1.0000000
D    1   1.00
      1.8260000              1.0000000
D    1   1.00
      0.4565000              1.0000000
F    1   1.00
      1.0000000              1.0000000
****
O     0
S    6   1.00
   5484.6717000              0.0018311
    825.2349500              0.0139501
    188.0469600              0.0684451
     52.9645000              0.2327143
     16.8975700              0.4701930
      5.7996353              0.3585209
SP   3   1.00
     15.5396160             -0.1107775              0.0708743
      3.5999336             -0.1480263              0.3397528
      1.0137618              1.1307670              0.7271586
SP   1   1.00
      0.2700058              1.0000000              1.0000000
D    1   1.00
      2.5840000              1.0000000
D    1   1.00
      0.6460000              1.0000000
F    1   1.00
      1.4000000              1.0000000
****
F     0
S    6   1.00
   7001.7130900              0.0018196169
   1051.3660900              0.0139160796
    239.2856900              0.0684053245
     67.3974453              0.233185760
     21.5199573              0.471267439
      7.40310130             0.356618546
SP   3   1.00
     20.8479528             -0.108506975            0.0716287243
      4.80830834            -0.146451658            0.3459121030
      1.34406986             1.128688580            0.7224699570
SP   1   1.00
      0.358151393            1.0000000              1.0000000
D    1   1.00
      3.5000000              1.0000000
D    1   1.00
      0.8750000              1.0000000
F    1   1.00
      1.8500000              1.0000000
****
Al     0
S    6   1.00
  13983.1000000              0.00194267
   2098.7500000              0.0148599
    477.7050000              0.0728494
    134.3600000              0.2468300
     42.8709000              0.4872580
     14.5189000              0.3234960
SP   6   1.00
    239.6680000             -0.00292619             0.00460285
     57.4419000             -0.0374080              0.0331990
     18.2859000             -0.1144870              0.1362820
      6.5991400              0.1156350              0.3304760
      2.4904900              0.6125950              0.4491460
      0.9445400              0.3937990              0.2657040
SP   3   1.00
      1.2779000             -0.2276060             -0.0175130
      0.3975900              0.00144583             0.2445330
      0.1600950              1.0927900              0.8049340
SP   1   1.00
      0.0556577              1.0000000              1.0000000
D    1   1.00
      0.6500000              1.0000000
D    1   1.00
      0.1625000              1.0000000
F    1   1.00
      0.2500000              1.0000000
****
Si     0
S    6   1.00
  16115.9000000              0.00195948
   2425.5800000              0.01492880
    553.8670000              0.07284780
    156.3400000              0.24613000
     50.0683000              0.48591400
     17.0178000              0.32500200
SP   6   1.00
    292.7180000             -0.00278094             0.00443826
     69.8731000             -0.03571460             0.03266790
     22.3363000             -0.11498500             0.13472100
      8.1503900              0.09356340             0.32867800
      3.1345800              0.60301700             0.44964000
      1.2254300              0.41895900             0.26137200
SP   3   1.00
      1.7273800             -0.24463000            -0.01779510
      0.5729220              0.00431572             0.25353900
      0.2221920              1.09818000             0.80066900
SP   1   1.00
      0.0778369              1.00000000             1.00000000
D    1   1.00
      0.9000000              1.0000000
D    1   1.00
      0.2250000              1.0000000
F    1   1.00
      0.3200000              1.0000000
****
P     0
S    6   1.00
  19413.3000000              0.0018516
   2909.4200000              0.0142062
    661.3640000              0.0699995
    185.7590000              0.2400790
     59.1943000              0.4847620
     20.0310000              0.3352000
SP   6   1.00
    339.4780000             -0.00278217             0.00456462
     81.0101000             -0.0360499              0.03369360
     25.8780000             -0.1166310              0.13975500
      9.4522100              0.0968328              0.33936200
      3.6656600              0.6144180              0.45092100
      1.4674600              0.4037980              0.23858600
SP   3   1.00
      2.1562300             -0.2529230             -0.01776530
      0.7489970              0.0328517              0.27405800
      0.2831450              1.0812500              0.78542100
SP   1   1.00
      0.0998317              1.0000000              1.00000000
D    1   1.00
      1.1000000              1.0000000
D    1   1.00
      0.2750000              1.0000000
F    1   1.00
      0.4500000              1.0000000
****
S     0
S    6   1.00
  21917.1000000              0.0018690
   3301.4900000              0.0142300
    754.1460000              0.0696960
    212.7110000              0.2384870
     67.9896000              0.4833070
     23.0515000              0.3380740
SP   6   1.00
    423.7350000             -0.0023767              0.0040610
    100.7100000             -0.0316930              0.0306810
     32.1599000             -0.1133170              0.1304520
     11.8079000              0.0560900              0.3272050
      4.6311000              0.5922550              0.4528510
      1.8702500              0.4550060              0.2560420
SP   3   1.00
      2.6158400             -0.2503740             -0.0145110
      0.9221670              0.0669570              0.3102630
      0.3412870              1.0545100              0.7544830
SP   1   1.00
      0.1171670              1.0000000              1.0000000
D    1   1.00
      1.3000000              1.0000000
D    1   1.00
      0.3250000              1.0000000
F    1   1.00
      0.5500000              1.0000000
****
Cl     0
S    6   1.00
  25180.1000000              0.0018330
   3780.3500000              0.0140340
    860.4740000              0.0690970
    242.1450000              0.2374520
     77.3349000              0.4830340
     26.2470000              0.3398560
SP   6   1.00
    491.7650000             -0.0022974              0.0039894
    116.9840000             -0.0307140              0.0303180
     37.4153000             -0.1125280              0.1298800
     13.7834000              0.0450160              0.3279510
      5.4521500              0.5893530              0.4535270
      2.2258800              0.4652060              0.2521540
SP   3   1.00
      3.1864900             -0.2518300             -0.0142990
      1.1442700              0.0615890              0.3235720
      0.4203770              1.0601800              0.7435070
SP   1   1.00
      0.1426570              1.0000000              1.0000000
D    1   1.00
      1.5000000              1.0000000
D    1   1.00
      0.3750000              1.0000000
F    1   1.00
      0.7000000              1.0000000
****
}

set {
reference uhf
freeze_core true
e_convergence 10
d_convergence 10
dft_spherical_points 1202
dft_radial_points 99
}

e = energy('b3lyp')

print_out('Grab this energy {0}'.format(e))
--------------------------------------------------------------------------

    Molecular point group: c1

    Geometry (in Bohr), charge = 0, multiplicity = 2:

       Center              X                  Y                   Z               Mass
    ------------   -----------------  -----------------  -----------------  -----------------
         C           -0.323341170682    -0.000002212158    -0.001124216758    12.000000000000
         C            0.059220336718    -1.400022037958    -2.425256283458    12.000000000000
         C            0.061019452618     2.801759388742    -0.000357794458    12.000000000000
         C            0.063061703518    -1.401732611258     2.427504456242    12.000000000000
         H            2.087040733818    -1.644371544658    -2.848609528058     1.007825032230
         H           -0.764699822282    -0.388434844058    -4.026656531258     1.007825032230
         H           -0.764937904982    -3.292306698558    -2.350145849458     1.007825032230
         H            2.086798173518     3.288102772442    -0.000693080958     1.007825032230
         H           -0.765722471582     3.680286749942     1.675784524942     1.007825032230
         H           -0.765572378482     3.680221140342    -1.677216715558     1.007825032230
         H            2.086831906918    -1.643829038358     2.846283242142     1.007825032230
         H           -0.766198802382    -3.291685734458     2.347829888842     1.007825032230
         H           -0.766110981982    -0.388012895558     4.024301494842     1.007825032230

  Charge       = 0
  Multiplicity = 2
  Basis Set: ANONYMOUS43764094
    Blend: 6-31G_2DFP_
  Basis Set: (ANONYMOUS43764094 AUX)
    Blend: DEF2-UNIVERSAL-JKFIT

    Orbital Energies [Eh]
    ---------------------

    Alpha Occupied:

       1A    -10.180342     2A    -10.167084     3A    -10.167017
       4A    -10.166944     5A     -0.797766     6A     -0.686196
       7A     -0.686177     8A     -0.530776     9A     -0.441125
      10A     -0.434689    11A     -0.434652    12A     -0.382840
      13A     -0.382358    14A     -0.363611    15A     -0.338292
      16A     -0.337706    17A     -0.168961

    Alpha Virtual:

      18A      0.076073    19A      0.134104    20A      0.134206
      21A      0.142627    22A      0.142630    23A      0.154879
      24A      0.178582    25A      0.178974    26A      0.203545
      27A      0.214802    28A      0.275706    29A      0.276266
      30A      0.399061    31A      0.399396    32A      0.403343
      33A      0.424005    34A      0.424189    35A      0.456594
      36A      0.495338    37A      0.495440    38A      0.512161
      39A      0.513979    40A      0.578764    41A      0.578862
      42A      0.591455    43A      0.591816    44A      0.602576
      45A      0.624763    46A      0.631776    47A      0.636187
      48A      0.636304    49A      0.663306    50A      0.663522
      51A      0.683723    52A      0.683979    53A      0.734995
      54A      0.825367    55A      0.825449    56A      0.853916
      57A      0.915020    58A      0.915032    59A      0.944126
      60A      0.944612    61A      0.961181    62A      0.961401
      63A      1.003454    64A      1.128078    65A      1.128137
      66A      1.142223    67A      1.163077    68A      1.163459
      69A      1.223322    70A      1.274330    71A      1.274652
      72A      1.279358    73A      1.324168    74A      1.324545
      75A      1.355992    76A      1.365601    77A      1.366516
      78A      1.392437    79A      1.403764    80A      1.404356
      81A      1.416963    82A      1.417243    83A      1.427922
      84A      1.491490    85A      1.499082    86A      1.542793
      87A      1.542849    88A      1.574103    89A      1.574797
      90A      1.669822    91A      1.738879    92A      1.739963
      93A      1.768324    94A      1.831084    95A      1.831702
      96A      1.971736    97A      2.018290    98A      2.018971
      99A      2.019131   100A      2.052335   101A      2.052953
     102A      2.738325   103A      2.738646   104A      2.790924
     105A      2.811428   106A      2.889599   107A      2.890297
     108A      2.894958   109A      2.929404   110A      2.929588
     111A      2.958994   112A      2.964347   113A      2.964400
     114A      3.034012   115A      3.071261   116A      3.071292
     117A      3.084365   118A      3.168712   119A      3.168848
     120A      3.180592   121A      3.285290   122A      3.285338
     123A      3.327126   124A      3.327192   125A      3.375615
     126A      3.489519   127A      3.490799   128A      3.514013
     129A      3.525324   130A      3.568363   131A      3.568420
     132A      3.575138   133A      3.665401   134A      3.667357
     135A      3.679681   136A      3.694010   137A      3.694225
     138A      3.776662   139A      3.776937   140A      3.789120
     141A      3.911394   142A      3.913056   143A      4.034451
     144A      4.111130   145A      4.111623   146A      4.147766
     147A      4.148475   148A      4.173244   149A      4.202091
     150A      4.203041   151A      4.203683   152A      4.210850
     153A      4.314788   154A      4.317091   155A      4.359005
     156A      4.423341   157A      4.425447   158A      4.443581
     159A      4.516437   160A      4.517233   161A      4.578034
     162A      4.578496   163A      4.617540   164A      4.709444
     165A      4.773732   166A      4.775385   167A      4.836958
     168A      4.962814   169A      5.001810   170A      5.004140
     171A      5.228052   172A      5.246630   173A      5.246986
     174A      5.355174   175A      5.355836   176A      5.479348

    Beta Occupied:

       1A    -10.167845     2A    -10.167775     3A    -10.167704
       4A    -10.166519     5A     -0.781091     6A     -0.683994
       7A     -0.683985     8A     -0.511748     9A     -0.431064
      10A     -0.431019    11A     -0.421823    12A     -0.376952
      13A     -0.376414    14A     -0.362595    15A     -0.333417
      16A     -0.332827

    Beta Virtual:

      17A     -0.025743    18A      0.077082    19A      0.135024
      20A      0.135067    21A      0.144488    22A      0.144510
      23A      0.163338    24A      0.182264    25A      0.182635
      26A      0.215031    27A      0.218927    28A      0.282065
      29A      0.282602    30A      0.400232    31A      0.400564
      32A      0.419790    33A      0.426813    34A      0.427005
      35A      0.468501    36A      0.497597    37A      0.497703
      38A      0.513896    39A      0.556323    40A      0.584325
      41A      0.584403    42A      0.597630    43A      0.598000
      44A      0.610000    45A      0.628137    46A      0.631931
      47A      0.639479    48A      0.639585    49A      0.666891
      50A      0.667065    51A      0.686343    52A      0.686629
      53A      0.757518    54A      0.830528    55A      0.830625
      56A      0.855270    57A      0.922994    58A      0.923001
      59A      0.945963    60A      0.953542    61A      0.966483
      62A      0.966711    63A      1.008694    64A      1.132065
      65A      1.132209    66A      1.155598    67A      1.168085
      68A      1.168599    69A      1.232295    70A      1.279928
      71A      1.280247    72A      1.285113    73A      1.329133
      74A      1.329559    75A      1.365408    76A      1.370871
      77A      1.371732    78A      1.393498    79A      1.407265
      80A      1.407783    81A      1.422011    82A      1.422295
      83A      1.428193    84A      1.492538    85A      1.509524
      86A      1.547122    87A      1.547335    88A      1.582022
      89A      1.582621    90A      1.674668    91A      1.744644
      92A      1.745722    93A      1.779104    94A      1.834949
      95A      1.835547    96A      1.972595    97A      2.025361
      98A      2.025546    99A      2.039662   100A      2.059025
     101A      2.059696   102A      2.746688   103A      2.746954
     104A      2.811840   105A      2.816060   106A      2.902324
     107A      2.902962   108A      2.924650   109A      2.931904
     110A      2.932052   111A      2.960056   112A      2.968908
     113A      2.968928   114A      3.041948   115A      3.081150
     116A      3.081194   117A      3.086209   118A      3.184424
     119A      3.184629   120A      3.188282   121A      3.290071
     122A      3.290154   123A      3.330952   124A      3.330974
     125A      3.383434   126A      3.492228   127A      3.493549
     128A      3.512378   129A      3.528370   130A      3.574999
     131A      3.581675   132A      3.581787   133A      3.670178
     134A      3.672077   135A      3.692967   136A      3.725476
     137A      3.726030   138A      3.781132   139A      3.781517
     140A      3.817666   141A      3.921246   142A      3.922837
     143A      4.045338   144A      4.117896   145A      4.118487
     146A      4.155025   147A      4.155632   148A      4.187305
     149A      4.208631   150A      4.209126   151A      4.210903
     152A      4.215325   153A      4.322173   154A      4.324581
     155A      4.362374   156A      4.431577   157A      4.433595
     158A      4.446508   159A      4.524226   160A      4.525025
     161A      4.588633   162A      4.589100   163A      4.624734
     164A      4.719790   165A      4.780722   166A      4.782299
     167A      4.839878   168A      4.967612   169A      5.005881
     170A      5.008145   171A      5.233768   172A      5.248422
     173A      5.248762   174A      5.361634   175A      5.362336
     176A      5.481670

    Final Occupation by Irrep:
              A
    DOCC [    16 ]
    SOCC [     1 ]

  @DF-UKS Final Energy:  -157.81306980222860

   => Energetics <=

    Nuclear Repulsion Energy =            125.3946002721732782
    One-Electron Energy =                -458.7488646963565770
    Two-Electron Energy =                 195.8483372581424362
    DFT Exchange-Correlation Energy =     -20.3071426361877734
    Empirical Dispersion Energy =           0.0000000000000000
    VV10 Nonlocal Energy =                  0.0000000000000000
    Total Energy =                       -157.8130698022285969

  UHF NO Occupations:
  HONO-2 :   15  A 1.9996008
  HONO-1 :   16  A 1.9989804
  HONO-0 :   17  A 1.0000000
  LUNO+0 :   18  A 0.0010196
  LUNO+1 :   19  A 0.0003992
  LUNO+2 :   20  A 0.0001980
  LUNO+3 :   21  A 0.0001971

Computation Completed

Properties will be evaluated at   0.000000,   0.000000,   0.000000 [a0]

Properties computed using the SCF density matrix

  Nuclear Dipole Moment: [e a0]
     X:     0.8272      Y:    -0.0000      Z:    -0.0045

  Electronic Dipole Moment: [e a0]
     X:    -0.7493      Y:     0.0000      Z:     0.0045

  Dipole Moment: [e a0]
     X:     0.0779      Y:     0.0000      Z:    -0.0000     Total:     0.0779

  Dipole Moment: [D]
     X:     0.1980      Y:     0.0000      Z:    -0.0001     Total:     0.1980

*** tstop() called on n079 at Fri Nov  5 12:15:09 2021
Module time:
	user time   =     499.84 seconds =       8.33 minutes
	system time =       4.68 seconds =       0.08 minutes
	total time  =        127 seconds =       2.12 minutes
Total time:
	user time   =     499.84 seconds =       8.33 minutes
	system time =       4.68 seconds =       0.08 minutes
	total time  =        127 seconds =       2.12 minutes
Grab this energy -157.8130698022286
    Psi4 stopped on: Friday, 05 November 2021 12:15PM
    Psi4 wall time for execution: 0:02:06.87

*** Psi4 exiting successfully. Buy a developer a beer!
