                               Psi4 1.4a2.dev629

  ==> Input File <==

--------------------------------------------------------------------------
import os
memory 14 GB

molecule {
 C   -0.3233621969   -0.0000017558   -0.0010197814
 C    0.0616950914   -1.4011566399   -2.4250631883
 C    0.0609261949    2.8011000601    0.0018027937
 C    0.0603983386   -1.3999378730    2.4265577653
 H    2.0900206329   -1.6436550059   -2.8473750058
 H   -0.7670420661   -0.3858635383   -4.0270969660
 H   -0.7673548052   -3.2943760870   -2.3479746482
 H    2.0899502000    3.2877405869   -0.0007019897
 H   -0.7673215579    3.6805426210    1.6790072892
 H   -0.7670225791    3.6803591042   -1.6795732400
 H    2.0901614072   -1.6441801325    2.8468806195
 H   -0.7668351687   -3.2946508873    2.3475551834
 H   -0.7668213677   -0.3859447661    4.0270011684
units bohr
0 2
}

basis {

assign 6-31g_2dfp_

[ 6-31g_2dfp_ ]

spherical

!----------------------------------------------------------------------
! Basis Set Exchange
! Version v0.8.13
! https://www.basissetexchange.org
!----------------------------------------------------------------------
!   Basis set: 6-31G(2df,p)
! Description: 6-31G(2df,p)
!        Role: orbital
!     Version: 0  (Data from the original Basis Set Exchange)
!----------------------------------------------------------------------

****
H     0
S    3   1.00
     18.7311370              0.03349460
      2.8253937              0.23472695
      0.6401217              0.81375733
S    1   1.00
      0.1612778              1.00000000
P    1   1.00
      1.5000000              1.0000000
P    1   1.00
      0.3750000              1.0000000
****
B     0
S    6   1.00
   2068.8823000              0.0018663
    310.6495700              0.0142515
     70.6830330              0.0695516
     19.8610800              0.2325729
      6.2993048              0.4670787
      2.1270270              0.3634314
SP   3   1.00
      4.7279710             -0.1303938              0.0745976
      1.1903377             -0.1307889              0.3078467
      0.3594117              1.1309444              0.7434568
SP   1   1.00
      0.1267512              1.0000000              1.0000000
D    1   1.00
      0.8020000              1.0000000
D    1   1.00
      0.2005000              1.0000000
F    1   1.00
      0.5000000              1.0000000
****
C     0
S    6   1.00
   3047.5249000              0.0018347
    457.3695100              0.0140373
    103.9486900              0.0688426
     29.2101550              0.2321844
      9.2866630              0.4679413
      3.1639270              0.3623120
SP   3   1.00
      7.8682724             -0.1193324              0.0689991
      1.8812885             -0.1608542              0.3164240
      0.5442493              1.1434564              0.7443083
SP   1   1.00
      0.1687144              1.0000000              1.0000000
D    1   1.00
      1.2520000              1.0000000
D    1   1.00
      0.3130000              1.0000000
F    1   1.00
      0.8000000              1.0000000
****
N     0
S    6   1.00
   4173.5110000              0.0018348
    627.4579000              0.0139950
    142.9021000              0.0685870
     40.2343300              0.2322410
     12.8202100              0.4690700
      4.3904370              0.3604550
SP   3   1.00
     11.6263580             -0.1149610              0.0675800
      2.7162800             -0.1691180              0.3239070
      0.7722180              1.1458520              0.7408950
SP   1   1.00
      0.2120313              1.0000000              1.0000000
D    1   1.00
      1.8260000              1.0000000
D    1   1.00
      0.4565000              1.0000000
F    1   1.00
      1.0000000              1.0000000
****
O     0
S    6   1.00
   5484.6717000              0.0018311
    825.2349500              0.0139501
    188.0469600              0.0684451
     52.9645000              0.2327143
     16.8975700              0.4701930
      5.7996353              0.3585209
SP   3   1.00
     15.5396160             -0.1107775              0.0708743
      3.5999336             -0.1480263              0.3397528
      1.0137618              1.1307670              0.7271586
SP   1   1.00
      0.2700058              1.0000000              1.0000000
D    1   1.00
      2.5840000              1.0000000
D    1   1.00
      0.6460000              1.0000000
F    1   1.00
      1.4000000              1.0000000
****
F     0
S    6   1.00
   7001.7130900              0.0018196169
   1051.3660900              0.0139160796
    239.2856900              0.0684053245
     67.3974453              0.233185760
     21.5199573              0.471267439
      7.40310130             0.356618546
SP   3   1.00
     20.8479528             -0.108506975            0.0716287243
      4.80830834            -0.146451658            0.3459121030
      1.34406986             1.128688580            0.7224699570
SP   1   1.00
      0.358151393            1.0000000              1.0000000
D    1   1.00
      3.5000000              1.0000000
D    1   1.00
      0.8750000              1.0000000
F    1   1.00
      1.8500000              1.0000000
****
Al     0
S    6   1.00
  13983.1000000              0.00194267
   2098.7500000              0.0148599
    477.7050000              0.0728494
    134.3600000              0.2468300
     42.8709000              0.4872580
     14.5189000              0.3234960
SP   6   1.00
    239.6680000             -0.00292619             0.00460285
     57.4419000             -0.0374080              0.0331990
     18.2859000             -0.1144870              0.1362820
      6.5991400              0.1156350              0.3304760
      2.4904900              0.6125950              0.4491460
      0.9445400              0.3937990              0.2657040
SP   3   1.00
      1.2779000             -0.2276060             -0.0175130
      0.3975900              0.00144583             0.2445330
      0.1600950              1.0927900              0.8049340
SP   1   1.00
      0.0556577              1.0000000              1.0000000
D    1   1.00
      0.6500000              1.0000000
D    1   1.00
      0.1625000              1.0000000
F    1   1.00
      0.2500000              1.0000000
****
Si     0
S    6   1.00
  16115.9000000              0.00195948
   2425.5800000              0.01492880
    553.8670000              0.07284780
    156.3400000              0.24613000
     50.0683000              0.48591400
     17.0178000              0.32500200
SP   6   1.00
    292.7180000             -0.00278094             0.00443826
     69.8731000             -0.03571460             0.03266790
     22.3363000             -0.11498500             0.13472100
      8.1503900              0.09356340             0.32867800
      3.1345800              0.60301700             0.44964000
      1.2254300              0.41895900             0.26137200
SP   3   1.00
      1.7273800             -0.24463000            -0.01779510
      0.5729220              0.00431572             0.25353900
      0.2221920              1.09818000             0.80066900
SP   1   1.00
      0.0778369              1.00000000             1.00000000
D    1   1.00
      0.9000000              1.0000000
D    1   1.00
      0.2250000              1.0000000
F    1   1.00
      0.3200000              1.0000000
****
P     0
S    6   1.00
  19413.3000000              0.0018516
   2909.4200000              0.0142062
    661.3640000              0.0699995
    185.7590000              0.2400790
     59.1943000              0.4847620
     20.0310000              0.3352000
SP   6   1.00
    339.4780000             -0.00278217             0.00456462
     81.0101000             -0.0360499              0.03369360
     25.8780000             -0.1166310              0.13975500
      9.4522100              0.0968328              0.33936200
      3.6656600              0.6144180              0.45092100
      1.4674600              0.4037980              0.23858600
SP   3   1.00
      2.1562300             -0.2529230             -0.01776530
      0.7489970              0.0328517              0.27405800
      0.2831450              1.0812500              0.78542100
SP   1   1.00
      0.0998317              1.0000000              1.00000000
D    1   1.00
      1.1000000              1.0000000
D    1   1.00
      0.2750000              1.0000000
F    1   1.00
      0.4500000              1.0000000
****
S     0
S    6   1.00
  21917.1000000              0.0018690
   3301.4900000              0.0142300
    754.1460000              0.0696960
    212.7110000              0.2384870
     67.9896000              0.4833070
     23.0515000              0.3380740
SP   6   1.00
    423.7350000             -0.0023767              0.0040610
    100.7100000             -0.0316930              0.0306810
     32.1599000             -0.1133170              0.1304520
     11.8079000              0.0560900              0.3272050
      4.6311000              0.5922550              0.4528510
      1.8702500              0.4550060              0.2560420
SP   3   1.00
      2.6158400             -0.2503740             -0.0145110
      0.9221670              0.0669570              0.3102630
      0.3412870              1.0545100              0.7544830
SP   1   1.00
      0.1171670              1.0000000              1.0000000
D    1   1.00
      1.3000000              1.0000000
D    1   1.00
      0.3250000              1.0000000
F    1   1.00
      0.5500000              1.0000000
****
Cl     0
S    6   1.00
  25180.1000000              0.0018330
   3780.3500000              0.0140340
    860.4740000              0.0690970
    242.1450000              0.2374520
     77.3349000              0.4830340
     26.2470000              0.3398560
SP   6   1.00
    491.7650000             -0.0022974              0.0039894
    116.9840000             -0.0307140              0.0303180
     37.4153000             -0.1125280              0.1298800
     13.7834000              0.0450160              0.3279510
      5.4521500              0.5893530              0.4535270
      2.2258800              0.4652060              0.2521540
SP   3   1.00
      3.1864900             -0.2518300             -0.0142990
      1.1442700              0.0615890              0.3235720
      0.4203770              1.0601800              0.7435070
SP   1   1.00
      0.1426570              1.0000000              1.0000000
D    1   1.00
      1.5000000              1.0000000
D    1   1.00
      0.3750000              1.0000000
F    1   1.00
      0.7000000              1.0000000
****
}

set {
reference uhf
freeze_core true
e_convergence 10
d_convergence 10
dft_spherical_points 1202
dft_radial_points 99
}

e = energy('b3lyp')

print_out('Grab this energy {0}'.format(e))
--------------------------------------------------------------------------

    Molecular point group: c1

    Geometry (in Bohr), charge = 0, multiplicity = 2:

       Center              X                  Y                   Z               Mass
    ------------   -----------------  -----------------  -----------------  -----------------
         C           -0.323303916436    -0.000002056689    -0.001458461506    12.000000000000
         C            0.061753371864    -1.401156940789    -2.425501868406    12.000000000000
         C            0.060984475364     2.801099759211     0.001364113594    12.000000000000
         C            0.060456619064    -1.399938173889     2.426119085194    12.000000000000
         H            2.090078913364    -1.643655306789    -2.847813685906     1.007825032230
         H           -0.766983785636    -0.385863839189    -4.027535646106     1.007825032230
         H           -0.767296524736    -3.294376387889    -2.348413328306     1.007825032230
         H            2.090008480464     3.287740286011    -0.001140669806     1.007825032230
         H           -0.767263277436     3.680542320111     1.678568609094     1.007825032230
         H           -0.766964298636     3.680358803311    -1.680011920106     1.007825032230
         H            2.090219687664    -1.644180433389     2.846441939394     1.007825032230
         H           -0.766776888236    -3.294651188189     2.347116503294     1.007825032230
         H           -0.766763087236    -0.385945066989     4.026562488294     1.007825032230

  Charge       = 0
  Multiplicity = 2
  Basis Set: ANONYMOUS8BC63045
    Blend: 6-31G_2DFP_
  Basis Set: (ANONYMOUS8BC63045 AUX)
    Blend: DEF2-UNIVERSAL-JKFIT

    Orbital Energies [Eh]
    ---------------------

    Alpha Occupied:

       1A    -10.180410     2A    -10.167584     3A    -10.167556
       4A    -10.167511     5A     -0.797806     6A     -0.685907
       7A     -0.685748     8A     -0.530465     9A     -0.441025
      10A     -0.434540    11A     -0.434523    12A     -0.382379
      13A     -0.382303    14A     -0.363294    15A     -0.338287
      16A     -0.337700    17A     -0.169023

    Alpha Virtual:

      18A      0.075740    19A      0.133749    20A      0.133827
      21A      0.142156    22A      0.142281    23A      0.154581
      24A      0.178221    25A      0.178321    26A      0.203657
      27A      0.214347    28A      0.275837    29A      0.276089
      30A      0.399175    31A      0.399392    32A      0.403134
      33A      0.423819    34A      0.423828    35A      0.456459
      36A      0.495131    37A      0.495202    38A      0.511891
      39A      0.513846    40A      0.578439    41A      0.578524
      42A      0.591013    43A      0.591050    44A      0.601922
      45A      0.623788    46A      0.631070    47A      0.635686
      48A      0.635695    49A      0.662988    50A      0.663168
      51A      0.683295    52A      0.683320    53A      0.734684
      54A      0.824587    55A      0.824594    56A      0.853399
      57A      0.914209    58A      0.914420    59A      0.943503
      60A      0.943823    61A      0.960575    62A      0.960702
      63A      1.003354    64A      1.127674    65A      1.127710
      66A      1.141339    67A      1.162993    68A      1.163037
      69A      1.222881    70A      1.273775    71A      1.274133
      72A      1.279805    73A      1.323586    74A      1.323705
      75A      1.355140    76A      1.365311    77A      1.365793
      78A      1.391853    79A      1.402793    80A      1.403269
      81A      1.415910    82A      1.416437    83A      1.427162
      84A      1.490605    85A      1.497723    86A      1.542141
      87A      1.542485    88A      1.573966    89A      1.574600
      90A      1.667653    91A      1.737872    92A      1.738089
      93A      1.766822    94A      1.828857    95A      1.828992
      96A      1.970095    97A      2.017035    98A      2.017556
      99A      2.018320   100A      2.050957   101A      2.052162
     102A      2.737464   103A      2.737555   104A      2.790712
     105A      2.810916   106A      2.888724   107A      2.890053
     108A      2.894864   109A      2.928948   110A      2.929285
     111A      2.958375   112A      2.963447   113A      2.964021
     114A      3.033109   115A      3.070208   116A      3.070472
     117A      3.083430   118A      3.169318   119A      3.169558
     120A      3.180311   121A      3.285132   122A      3.285573
     123A      3.327626   124A      3.327717   125A      3.376315
     126A      3.491106   127A      3.491196   128A      3.514311
     129A      3.525955   130A      3.568101   131A      3.568301
     132A      3.576820   133A      3.665407   134A      3.665846
     135A      3.677860   136A      3.693294   137A      3.693322
     138A      3.776247   139A      3.776274   140A      3.788555
     141A      3.910929   142A      3.911630   143A      4.032107
     144A      4.108686   145A      4.109120   146A      4.144632
     147A      4.144988   148A      4.170297   149A      4.201194
     150A      4.201665   151A      4.201743   152A      4.207162
     153A      4.312936   154A      4.314517   155A      4.356560
     156A      4.421304   157A      4.422420   158A      4.441433
     159A      4.514227   160A      4.514598   161A      4.576503
     162A      4.577084   163A      4.616842   164A      4.707439
     165A      4.772665   166A      4.772977   167A      4.834557
     168A      4.962088   169A      5.001578   170A      5.002145
     171A      5.222742   172A      5.241284   173A      5.241761
     174A      5.350895   175A      5.350943   176A      5.476134

    Beta Occupied:

       1A    -10.168343     2A    -10.168314     3A    -10.168278
       4A    -10.166602     5A     -0.781104     6A     -0.683709
       7A     -0.683555     8A     -0.511494     9A     -0.430910
      10A     -0.430879    11A     -0.421685    12A     -0.376463
      13A     -0.376372    14A     -0.362274    15A     -0.333419
      16A     -0.332833

    Beta Virtual:

      17A     -0.025976    18A      0.076752    19A      0.134618
      20A      0.134721    21A      0.144072    22A      0.144161
      23A      0.163103    24A      0.181914    25A      0.181990
      26A      0.214579    27A      0.219020    28A      0.282189
      29A      0.282413    30A      0.400349    31A      0.400566
      32A      0.419566    33A      0.426628    34A      0.426639
      35A      0.468385    36A      0.497395    37A      0.497460
      38A      0.513632    39A      0.556134    40A      0.583973
      41A      0.584057    42A      0.597162    43A      0.597218
      44A      0.609358    45A      0.627175    46A      0.631235
      47A      0.638994    48A      0.639000    49A      0.666543
      50A      0.666731    51A      0.685963    52A      0.685992
      53A      0.757183    54A      0.829760    55A      0.829762
      56A      0.854776    57A      0.922195    58A      0.922406
      59A      0.945340    60A      0.952729    61A      0.965899
      62A      0.966006    63A      1.008582    64A      1.131725
      65A      1.131742    66A      1.154722    67A      1.168029
      68A      1.168096    69A      1.231870    70A      1.279357
      71A      1.279768    72A      1.285573    73A      1.328538
      74A      1.328679    75A      1.364532    76A      1.370530
      77A      1.371062    78A      1.392918    79A      1.406250
      80A      1.406747    81A      1.420980    82A      1.421465
      83A      1.427444    84A      1.491648    85A      1.508166
      86A      1.546666    87A      1.547039    88A      1.581736
      89A      1.582356    90A      1.672427    91A      1.743630
      92A      1.743843    93A      1.777656    94A      1.832744
      95A      1.832875    96A      1.970959    97A      2.023855
      98A      2.024673    99A      2.038617   100A      2.057653
     101A      2.058900   102A      2.745794   103A      2.745873
     104A      2.811325   105A      2.815822   106A      2.901382
     107A      2.902680   108A      2.924533   109A      2.931445
     110A      2.931854   111A      2.959433   112A      2.967961
     113A      2.968512   114A      3.041124   115A      3.080053
     116A      3.080333   117A      3.085241   118A      3.185067
     119A      3.185354   120A      3.187983   121A      3.290016
     122A      3.290395   123A      3.331410   124A      3.331526
     125A      3.384110   126A      3.493776   127A      3.493896
     128A      3.512669   129A      3.528985   130A      3.576670
     131A      3.581470   132A      3.581581   133A      3.669827
     134A      3.670423   135A      3.691082   136A      3.724894
     137A      3.725266   138A      3.780744   139A      3.780861
     140A      3.817072   141A      3.920738   142A      3.921483
     143A      4.042871   144A      4.115423   145A      4.115856
     146A      4.151917   147A      4.152200   148A      4.184501
     149A      4.207560   150A      4.207642   151A      4.209321
     152A      4.211660   153A      4.320425   154A      4.322071
     155A      4.359932   156A      4.429545   157A      4.430657
     158A      4.444342   159A      4.522043   160A      4.522386
     161A      4.587159   162A      4.587696   163A      4.624043
     164A      4.717788   165A      4.779642   166A      4.779915
     167A      4.837468   168A      4.966909   169A      5.005636
     170A      5.006205   171A      5.228482   172A      5.243083
     173A      5.243543   174A      5.357383   175A      5.357470
     176A      5.478467

    Final Occupation by Irrep:
              A
    DOCC [    16 ]
    SOCC [     1 ]

  @DF-UKS Final Energy:  -157.81309097896423

   => Energetics <=

    Nuclear Repulsion Energy =            125.3572850458612322
    One-Electron Energy =                -458.6780991184399454
    Two-Electron Energy =                 195.8108457027057625
    DFT Exchange-Correlation Energy =     -20.3031226090912433
    Empirical Dispersion Energy =           0.0000000000000000
    VV10 Nonlocal Energy =                  0.0000000000000000
    Total Energy =                       -157.8130909789642260

  UHF NO Occupations:
  HONO-2 :   15  A 1.9995983
  HONO-1 :   16  A 1.9989811
  HONO-0 :   17  A 1.0000000
  LUNO+0 :   18  A 0.0010189
  LUNO+1 :   19  A 0.0004017
  LUNO+2 :   20  A 0.0001976
  LUNO+3 :   21  A 0.0001968

Computation Completed

Properties will be evaluated at   0.000000,   0.000000,   0.000000 [a0]

Properties computed using the SCF density matrix

  Nuclear Dipole Moment: [e a0]
     X:     0.8276      Y:    -0.0000      Z:    -0.0031

  Electronic Dipole Moment: [e a0]
     X:    -0.7503      Y:     0.0000      Z:     0.0030

  Dipole Moment: [e a0]
     X:     0.0773      Y:     0.0000      Z:    -0.0000     Total:     0.0773

  Dipole Moment: [D]
     X:     0.1964      Y:     0.0000      Z:    -0.0001     Total:     0.1964

*** tstop() called on n091 at Fri Nov  5 12:05:53 2021
Module time:
	user time   =     496.47 seconds =       8.27 minutes
	system time =       4.69 seconds =       0.08 minutes
	total time  =        126 seconds =       2.10 minutes
Total time:
	user time   =     496.47 seconds =       8.27 minutes
	system time =       4.69 seconds =       0.08 minutes
	total time  =        126 seconds =       2.10 minutes
Grab this energy -157.81309097896423
    Psi4 stopped on: Friday, 05 November 2021 12:05PM
    Psi4 wall time for execution: 0:02:06.04

*** Psi4 exiting successfully. Buy a developer a beer!
