                               Psi4 1.4a2.dev629

  ==> Input File <==

--------------------------------------------------------------------------
import os
memory 14 GB

molecule {
 C   -0.3233633047    0.0002214012    0.0000000000
 C    0.0611302328   -1.4007542942   -2.4270014648
 C    0.0607590197    2.7988300146    0.0000000000
 C    0.0611302328   -1.4007542942    2.4270014648
 H    2.0901313116   -1.6438873193   -2.8467513623
 H   -0.7670495251   -0.3857496770   -4.0267698298
 H   -0.7671063321   -3.2944812758   -2.3473906049
 H    2.0898674301    3.2884312144   -0.0000000000
 H   -0.7670411980    3.6811190944    1.6791318599
 H   -0.7670411980    3.6811190944   -1.6791318599
 H    2.0901313116   -1.6438873193    2.8467513623
 H   -0.7671063321   -3.2944812758    2.3473906049
 H   -0.7670495251   -0.3857496770    4.0267698298
units bohr
0 2
}

basis {

assign 6-31g_2dfp_

[ 6-31g_2dfp_ ]

spherical

!----------------------------------------------------------------------
! Basis Set Exchange
! Version v0.8.13
! https://www.basissetexchange.org
!----------------------------------------------------------------------
!   Basis set: 6-31G(2df,p)
! Description: 6-31G(2df,p)
!        Role: orbital
!     Version: 0  (Data from the original Basis Set Exchange)
!----------------------------------------------------------------------

****
H     0
S    3   1.00
     18.7311370              0.03349460
      2.8253937              0.23472695
      0.6401217              0.81375733
S    1   1.00
      0.1612778              1.00000000
P    1   1.00
      1.5000000              1.0000000
P    1   1.00
      0.3750000              1.0000000
****
B     0
S    6   1.00
   2068.8823000              0.0018663
    310.6495700              0.0142515
     70.6830330              0.0695516
     19.8610800              0.2325729
      6.2993048              0.4670787
      2.1270270              0.3634314
SP   3   1.00
      4.7279710             -0.1303938              0.0745976
      1.1903377             -0.1307889              0.3078467
      0.3594117              1.1309444              0.7434568
SP   1   1.00
      0.1267512              1.0000000              1.0000000
D    1   1.00
      0.8020000              1.0000000
D    1   1.00
      0.2005000              1.0000000
F    1   1.00
      0.5000000              1.0000000
****
C     0
S    6   1.00
   3047.5249000              0.0018347
    457.3695100              0.0140373
    103.9486900              0.0688426
     29.2101550              0.2321844
      9.2866630              0.4679413
      3.1639270              0.3623120
SP   3   1.00
      7.8682724             -0.1193324              0.0689991
      1.8812885             -0.1608542              0.3164240
      0.5442493              1.1434564              0.7443083
SP   1   1.00
      0.1687144              1.0000000              1.0000000
D    1   1.00
      1.2520000              1.0000000
D    1   1.00
      0.3130000              1.0000000
F    1   1.00
      0.8000000              1.0000000
****
N     0
S    6   1.00
   4173.5110000              0.0018348
    627.4579000              0.0139950
    142.9021000              0.0685870
     40.2343300              0.2322410
     12.8202100              0.4690700
      4.3904370              0.3604550
SP   3   1.00
     11.6263580             -0.1149610              0.0675800
      2.7162800             -0.1691180              0.3239070
      0.7722180              1.1458520              0.7408950
SP   1   1.00
      0.2120313              1.0000000              1.0000000
D    1   1.00
      1.8260000              1.0000000
D    1   1.00
      0.4565000              1.0000000
F    1   1.00
      1.0000000              1.0000000
****
O     0
S    6   1.00
   5484.6717000              0.0018311
    825.2349500              0.0139501
    188.0469600              0.0684451
     52.9645000              0.2327143
     16.8975700              0.4701930
      5.7996353              0.3585209
SP   3   1.00
     15.5396160             -0.1107775              0.0708743
      3.5999336             -0.1480263              0.3397528
      1.0137618              1.1307670              0.7271586
SP   1   1.00
      0.2700058              1.0000000              1.0000000
D    1   1.00
      2.5840000              1.0000000
D    1   1.00
      0.6460000              1.0000000
F    1   1.00
      1.4000000              1.0000000
****
F     0
S    6   1.00
   7001.7130900              0.0018196169
   1051.3660900              0.0139160796
    239.2856900              0.0684053245
     67.3974453              0.233185760
     21.5199573              0.471267439
      7.40310130             0.356618546
SP   3   1.00
     20.8479528             -0.108506975            0.0716287243
      4.80830834            -0.146451658            0.3459121030
      1.34406986             1.128688580            0.7224699570
SP   1   1.00
      0.358151393            1.0000000              1.0000000
D    1   1.00
      3.5000000              1.0000000
D    1   1.00
      0.8750000              1.0000000
F    1   1.00
      1.8500000              1.0000000
****
Al     0
S    6   1.00
  13983.1000000              0.00194267
   2098.7500000              0.0148599
    477.7050000              0.0728494
    134.3600000              0.2468300
     42.8709000              0.4872580
     14.5189000              0.3234960
SP   6   1.00
    239.6680000             -0.00292619             0.00460285
     57.4419000             -0.0374080              0.0331990
     18.2859000             -0.1144870              0.1362820
      6.5991400              0.1156350              0.3304760
      2.4904900              0.6125950              0.4491460
      0.9445400              0.3937990              0.2657040
SP   3   1.00
      1.2779000             -0.2276060             -0.0175130
      0.3975900              0.00144583             0.2445330
      0.1600950              1.0927900              0.8049340
SP   1   1.00
      0.0556577              1.0000000              1.0000000
D    1   1.00
      0.6500000              1.0000000
D    1   1.00
      0.1625000              1.0000000
F    1   1.00
      0.2500000              1.0000000
****
Si     0
S    6   1.00
  16115.9000000              0.00195948
   2425.5800000              0.01492880
    553.8670000              0.07284780
    156.3400000              0.24613000
     50.0683000              0.48591400
     17.0178000              0.32500200
SP   6   1.00
    292.7180000             -0.00278094             0.00443826
     69.8731000             -0.03571460             0.03266790
     22.3363000             -0.11498500             0.13472100
      8.1503900              0.09356340             0.32867800
      3.1345800              0.60301700             0.44964000
      1.2254300              0.41895900             0.26137200
SP   3   1.00
      1.7273800             -0.24463000            -0.01779510
      0.5729220              0.00431572             0.25353900
      0.2221920              1.09818000             0.80066900
SP   1   1.00
      0.0778369              1.00000000             1.00000000
D    1   1.00
      0.9000000              1.0000000
D    1   1.00
      0.2250000              1.0000000
F    1   1.00
      0.3200000              1.0000000
****
P     0
S    6   1.00
  19413.3000000              0.0018516
   2909.4200000              0.0142062
    661.3640000              0.0699995
    185.7590000              0.2400790
     59.1943000              0.4847620
     20.0310000              0.3352000
SP   6   1.00
    339.4780000             -0.00278217             0.00456462
     81.0101000             -0.0360499              0.03369360
     25.8780000             -0.1166310              0.13975500
      9.4522100              0.0968328              0.33936200
      3.6656600              0.6144180              0.45092100
      1.4674600              0.4037980              0.23858600
SP   3   1.00
      2.1562300             -0.2529230             -0.01776530
      0.7489970              0.0328517              0.27405800
      0.2831450              1.0812500              0.78542100
SP   1   1.00
      0.0998317              1.0000000              1.00000000
D    1   1.00
      1.1000000              1.0000000
D    1   1.00
      0.2750000              1.0000000
F    1   1.00
      0.4500000              1.0000000
****
S     0
S    6   1.00
  21917.1000000              0.0018690
   3301.4900000              0.0142300
    754.1460000              0.0696960
    212.7110000              0.2384870
     67.9896000              0.4833070
     23.0515000              0.3380740
SP   6   1.00
    423.7350000             -0.0023767              0.0040610
    100.7100000             -0.0316930              0.0306810
     32.1599000             -0.1133170              0.1304520
     11.8079000              0.0560900              0.3272050
      4.6311000              0.5922550              0.4528510
      1.8702500              0.4550060              0.2560420
SP   3   1.00
      2.6158400             -0.2503740             -0.0145110
      0.9221670              0.0669570              0.3102630
      0.3412870              1.0545100              0.7544830
SP   1   1.00
      0.1171670              1.0000000              1.0000000
D    1   1.00
      1.3000000              1.0000000
D    1   1.00
      0.3250000              1.0000000
F    1   1.00
      0.5500000              1.0000000
****
Cl     0
S    6   1.00
  25180.1000000              0.0018330
   3780.3500000              0.0140340
    860.4740000              0.0690970
    242.1450000              0.2374520
     77.3349000              0.4830340
     26.2470000              0.3398560
SP   6   1.00
    491.7650000             -0.0022974              0.0039894
    116.9840000             -0.0307140              0.0303180
     37.4153000             -0.1125280              0.1298800
     13.7834000              0.0450160              0.3279510
      5.4521500              0.5893530              0.4535270
      2.2258800              0.4652060              0.2521540
SP   3   1.00
      3.1864900             -0.2518300             -0.0142990
      1.1442700              0.0615890              0.3235720
      0.4203770              1.0601800              0.7435070
SP   1   1.00
      0.1426570              1.0000000              1.0000000
D    1   1.00
      1.5000000              1.0000000
D    1   1.00
      0.3750000              1.0000000
F    1   1.00
      0.7000000              1.0000000
****
}

set {
reference uhf
freeze_core true
e_convergence 10
d_convergence 10
dft_spherical_points 1202
dft_radial_points 99
}

e = energy('b3lyp')

print_out('Grab this energy {0}'.format(e))
--------------------------------------------------------------------------

    Molecular point group: cs

    Geometry (in Bohr), charge = 0, multiplicity = 2:

       Center              X                  Y                   Z               Mass
    ------------   -----------------  -----------------  -----------------  -----------------
         C           -0.323304783980     0.000695099703     0.000000000000    12.000000000000
         C            0.061188753520    -1.400280595697    -2.427001464800    12.000000000000
         C            0.060817540420     2.799303713103     0.000000000000    12.000000000000
         C            0.061188753520    -1.400280595697     2.427001464800    12.000000000000
         H            2.090189832320    -1.643413620797    -2.846751362300     1.007825032230
         H           -0.766991004380    -0.385275978497    -4.026769829800     1.007825032230
         H           -0.767047811380    -3.294007577297    -2.347390604900     1.007825032230
         H            2.089925950820     3.288904912903     0.000000000000     1.007825032230
         H           -0.766982677280     3.681592792903     1.679131859900     1.007825032230
         H           -0.766982677280     3.681592792903    -1.679131859900     1.007825032230
         H            2.090189832320    -1.643413620797     2.846751362300     1.007825032230
         H           -0.767047811380    -3.294007577297     2.347390604900     1.007825032230
         H           -0.766991004380    -0.385275978497     4.026769829800     1.007825032230

  Charge       = 0
  Multiplicity = 2
  Basis Set: ANONYMOUS4251C6C2
    Blend: 6-31G_2DFP_
  Basis Set: (ANONYMOUS4251C6C2 AUX)
    Blend: DEF2-UNIVERSAL-JKFIT

    Orbital Energies [Eh]
    ---------------------

    Alpha Occupied:

       1Ap   -10.180410     2Ap   -10.167598     1App  -10.167545
       3Ap   -10.167509     4Ap    -0.797806     2App   -0.685851
       5Ap    -0.685805     6Ap    -0.530465     7Ap    -0.441023
       8Ap    -0.434613     3App   -0.434451     4App   -0.382429
       9Ap    -0.382251     5App   -0.363297    10Ap    -0.338201
       6App   -0.337785    11Ap    -0.169023

    Alpha Virtual:

      12Ap     0.075740    13Ap     0.133770     7App    0.133803
       8App    0.142157    14Ap     0.142281    15Ap     0.154581
      16Ap     0.178189     9App    0.178353    17Ap     0.203655
      10App    0.214347    11App    0.275736    18Ap     0.276190
      12App    0.399275    19Ap     0.399289    20Ap     0.403138
      13App    0.423780    21Ap     0.423867    22Ap     0.456459
      14App    0.495145    23Ap     0.495187    15App    0.511891
      24Ap     0.513847    16App    0.578448    25Ap     0.578510
      26Ap     0.590973    17App    0.591093    27Ap     0.601924
      28Ap     0.623790    18App    0.631073    19App    0.635523
      29Ap     0.635854    20App    0.663017    30Ap     0.663140
      31Ap     0.683287    21App    0.683325    32Ap     0.734684
      33Ap     0.824537    22App    0.824645    23App    0.853399
      24App    0.914297    34Ap     0.914332    25App    0.943503
      35Ap     0.943823    36Ap     0.960615    26App    0.960663
      37Ap     1.003352    27App    1.127622    38Ap     1.127753
      39Ap     1.141355    28App    1.162730    40Ap     1.163296
      41Ap     1.222881    29App    1.273656    42Ap     1.274242
      43Ap     1.279819    30App    1.323579    44Ap     1.323711
      45Ap     1.355138    31App    1.365399    46Ap     1.365711
      32App    1.391866    47Ap     1.402840    33App    1.403201
      34App    1.416009    48Ap     1.416332    35App    1.427167
      36App    1.490603    49Ap     1.497722    37App    1.542243
      50Ap     1.542381    38App    1.574086    51Ap     1.574473
      52Ap     1.667657    53Ap     1.737846    39App    1.738131
      54Ap     1.766803    55Ap     1.828426    40App    1.829423
      41App    1.970100    56Ap     2.017175    42App    2.017316
      57Ap     2.018417    43App    2.050877    58Ap     2.052251
      59Ap     2.737388    44App    2.737631    60Ap     2.790712
      45App    2.810915    46App    2.889315    61Ap     2.889458
      62Ap     2.894873    47App    2.929060    63Ap     2.929171
      48App    2.958375    49App    2.963658    64Ap     2.963803
      65Ap     3.033108    66Ap     3.070211    50App    3.070466
      51App    3.083432    52App    3.169264    67Ap     3.169612
      68Ap     3.180312    53App    3.285340    69Ap     3.285366
      54App    3.327486    70Ap     3.327857    71Ap     3.376310
      55App    3.490804    72Ap     3.491493    56App    3.514309
      73Ap     3.525957    57App    3.568122    74Ap     3.568289
      58App    3.576816    75Ap     3.664912    59App    3.666343
      76Ap     3.677843    77Ap     3.693205    60App    3.693415
      61App    3.776069    78Ap     3.776444    79Ap     3.788560
      62App    3.910555    80Ap     3.912014    81Ap     4.032101
      63App    4.108740    82Ap     4.109062    64App    4.144538
      83Ap     4.145078    84Ap     4.170296    85Ap     4.201082
      65App    4.201246    86Ap     4.202278    66App    4.207179
      67App    4.312999    87Ap     4.314435    68App    4.356570
      69App    4.420868    88Ap     4.422811    70App    4.441492
      71App    4.513764    89Ap     4.515064    72App    4.576764
      90Ap     4.576816    91Ap     4.616852    92Ap     4.707433
      93Ap     4.772497    73App    4.773113    74App    4.834569
      94Ap     4.962055    95Ap     5.001208    75App    5.002562
      96Ap     5.222750    76App    5.241320    97Ap     5.241711
      77App    5.350856    98Ap     5.350980    78App    5.476130

    Beta Occupied:

       1Ap   -10.168359     1App  -10.168299     2Ap   -10.168277
       3Ap   -10.166602     4Ap    -0.781104     2App   -0.683661
       5Ap    -0.683604     6Ap    -0.511494     7Ap    -0.430977
       3App   -0.430811     8Ap    -0.421686     4App   -0.376526
       9Ap    -0.376307     5App   -0.362278    10Ap    -0.333335
       6App   -0.332917

    Beta Virtual:

      11Ap    -0.025976    12Ap     0.076753     7App    0.134664
      13Ap     0.134674     8App    0.144072    14Ap     0.144162
      15Ap     0.163103    16Ap     0.181882     9App    0.182022
      10App    0.214578    17Ap     0.219018    11App    0.282084
      18Ap     0.282520    12App    0.400452    19Ap     0.400462
      20Ap     0.419569    13App    0.426588    21Ap     0.426677
      22Ap     0.468385    14App    0.497400    23Ap     0.497456
      15App    0.513632    24Ap     0.556133    16App    0.583976
      25Ap     0.584050    26Ap     0.597132    17App    0.597252
      27Ap     0.609361    28Ap     0.627176    18App    0.631236
      19App    0.638834    29Ap     0.639158    20App    0.666570
      30Ap     0.666703    31Ap     0.685970    21App    0.685983
      32Ap     0.757182    33Ap     0.829702    22App    0.829821
      23App    0.854776    24App    0.922280    34Ap     0.922321
      25App    0.945340    35Ap     0.952730    36Ap     0.965932
      26App    0.965974    37Ap     1.008581    27App    1.131667
      38Ap     1.131795    39Ap     1.154737    28App    1.167756
      40Ap     1.168360    41Ap     1.231871    29App    1.279262
      42Ap     1.279854    43Ap     1.285586    30App    1.328556
      44Ap     1.328661    45Ap     1.364531    31App    1.370671
      46Ap     1.370928    32App    1.392929    47Ap     1.406361
      33App    1.406618    34App    1.421072    48Ap     1.421364
      35App    1.427451    36App    1.491645    49Ap     1.508164
      37App    1.546776    50Ap     1.546927    38App    1.581842
      51Ap     1.582244    52Ap     1.672432    53Ap     1.743598
      39App    1.743889    54Ap     1.777639    55Ap     1.832321
      40App    1.833298    41App    1.970963    42App    2.023728
      56Ap     2.024808    57Ap     2.038602    43App    2.057592
      58Ap     2.058975    59Ap     2.745735    44App    2.745932
      45App    2.811324    60Ap     2.815822    46App    2.901979
      61Ap     2.902085    62Ap     2.924534    47App    2.931606
      63Ap     2.931691    48App    2.959432    49App    2.968147
      64Ap     2.968321    65Ap     3.041124    66Ap     3.080069
      50App    3.080311    51App    3.085247    52App    3.185049
      67Ap     3.185339    68Ap     3.188017    69Ap     3.290192
      53App    3.290220    54App    3.331290    70Ap     3.331645
      71Ap     3.384105    55App    3.493465    72Ap     3.494201
      56App    3.512668    73Ap     3.528987    57App    3.576675
      58App    3.581425    74Ap     3.581624    75Ap     3.669387
      59App    3.670858    76Ap     3.691071    77Ap     3.724960
      60App    3.725208    61App    3.780566    78Ap     3.781026
      79Ap     3.817078    62App    3.920437    80Ap     3.921794
      81Ap     4.042865    63App    4.115374    82Ap     4.115900
      64App    4.151880    83Ap     4.152235    84Ap     4.184498
      65App    4.207173    85Ap     4.207903    86Ap     4.209446
      66App    4.211683    67App    4.320491    87Ap     4.321985
      68App    4.359942    69App    4.429121    88Ap     4.431024
      70App    4.444416    71App    4.521570    89Ap     4.522860
      72App    4.587383    90Ap     4.587466    91Ap     4.624053
      92Ap     4.717782    93Ap     4.779473    73App    4.780049
      74App    4.837481    94Ap     4.966877    95Ap     5.005281
      75App    5.006606    96Ap     5.228491    76App    5.243117
      97Ap     5.243494    77App    5.357343    98Ap     5.357508
      78App    5.478463

    Final Occupation by Irrep:
             Ap   App
    DOCC [    10,    6 ]
    SOCC [     1,    0 ]

  @DF-UKS Final Energy:  -157.81309116134005

   => Energetics <=

    Nuclear Repulsion Energy =            125.3572860162423410
    One-Electron Energy =                -458.6780999934352963
    Two-Electron Energy =                 195.8108455512468424
    DFT Exchange-Correlation Energy =     -20.3031227353939094
    Empirical Dispersion Energy =           0.0000000000000000
    VV10 Nonlocal Energy =                  0.0000000000000000
    Total Energy =                       -157.8130911613400542

  UHF NO Occupations:
  HONO-2 :    9 Ap 1.9995983
  HONO-1 :   10 Ap 1.9989811
  HONO-0 :   11 Ap 1.0000000
  LUNO+0 :   12 Ap 0.0010189
  LUNO+1 :   13 Ap 0.0004017
  LUNO+2 :    7App 0.0001976
  LUNO+3 :   14 Ap 0.0001968

Computation Completed

Properties will be evaluated at   0.000000,   0.000000,   0.000000 [a0]

Properties computed using the SCF density matrix

  Nuclear Dipole Moment: [e a0]
     X:     0.8276      Y:     0.0033      Z:     0.0000

  Electronic Dipole Moment: [e a0]
     X:    -0.7503      Y:    -0.0034      Z:     0.0000

  Dipole Moment: [e a0]
     X:     0.0773      Y:    -0.0001      Z:     0.0000     Total:     0.0773

  Dipole Moment: [D]
     X:     0.1964      Y:    -0.0002      Z:     0.0000     Total:     0.1964

*** tstop() called on n082 at Fri Nov  5 12:59:23 2021
Module time:
	user time   =     495.74 seconds =       8.26 minutes
	system time =       4.54 seconds =       0.08 minutes
	total time  =        126 seconds =       2.10 minutes
Total time:
	user time   =     495.74 seconds =       8.26 minutes
	system time =       4.54 seconds =       0.08 minutes
	total time  =        126 seconds =       2.10 minutes
Grab this energy -157.81309116134005
    Psi4 stopped on: Friday, 05 November 2021 12:59PM
    Psi4 wall time for execution: 0:02:05.80

*** Psi4 exiting successfully. Buy a developer a beer!
