                               Psi4 1.4a2.dev629

  ==> Input File <==

--------------------------------------------------------------------------
import os
memory 14 GB

molecule {
 C   -0.3243644893   -0.0000020864   -0.0000000140
 C    0.0600805340   -1.4017900422   -2.4260316111
 C    0.0599606619    2.8019133108   -0.0009647497
 C    0.0600805213   -1.4001191434    2.4269963135
 H    2.0902492590   -1.6465616159   -2.8465014939
 H   -0.7687239970   -0.3888571695   -4.0254081503
 H   -0.7641611189   -3.2880555782   -2.3503810706
 H    2.0901108458    3.2885214387   -0.0026031891
 H   -0.7689649859    3.6805081003    1.6759122177
 H   -0.7642392877    3.6794887162   -1.6723875981
 H    2.0902499011   -1.6420529549    2.8491045281
 H   -0.7688867889   -3.2916171736    2.3495020319
 H   -0.7639989322   -0.3914001155    4.0227627857
units bohr
0 2
}

basis {

assign 6-31g_2dfp_

[ 6-31g_2dfp_ ]

spherical

!----------------------------------------------------------------------
! Basis Set Exchange
! Version v0.8.13
! https://www.basissetexchange.org
!----------------------------------------------------------------------
!   Basis set: 6-31G(2df,p)
! Description: 6-31G(2df,p)
!        Role: orbital
!     Version: 0  (Data from the original Basis Set Exchange)
!----------------------------------------------------------------------

****
H     0
S    3   1.00
     18.7311370              0.03349460
      2.8253937              0.23472695
      0.6401217              0.81375733
S    1   1.00
      0.1612778              1.00000000
P    1   1.00
      1.5000000              1.0000000
P    1   1.00
      0.3750000              1.0000000
****
B     0
S    6   1.00
   2068.8823000              0.0018663
    310.6495700              0.0142515
     70.6830330              0.0695516
     19.8610800              0.2325729
      6.2993048              0.4670787
      2.1270270              0.3634314
SP   3   1.00
      4.7279710             -0.1303938              0.0745976
      1.1903377             -0.1307889              0.3078467
      0.3594117              1.1309444              0.7434568
SP   1   1.00
      0.1267512              1.0000000              1.0000000
D    1   1.00
      0.8020000              1.0000000
D    1   1.00
      0.2005000              1.0000000
F    1   1.00
      0.5000000              1.0000000
****
C     0
S    6   1.00
   3047.5249000              0.0018347
    457.3695100              0.0140373
    103.9486900              0.0688426
     29.2101550              0.2321844
      9.2866630              0.4679413
      3.1639270              0.3623120
SP   3   1.00
      7.8682724             -0.1193324              0.0689991
      1.8812885             -0.1608542              0.3164240
      0.5442493              1.1434564              0.7443083
SP   1   1.00
      0.1687144              1.0000000              1.0000000
D    1   1.00
      1.2520000              1.0000000
D    1   1.00
      0.3130000              1.0000000
F    1   1.00
      0.8000000              1.0000000
****
N     0
S    6   1.00
   4173.5110000              0.0018348
    627.4579000              0.0139950
    142.9021000              0.0685870
     40.2343300              0.2322410
     12.8202100              0.4690700
      4.3904370              0.3604550
SP   3   1.00
     11.6263580             -0.1149610              0.0675800
      2.7162800             -0.1691180              0.3239070
      0.7722180              1.1458520              0.7408950
SP   1   1.00
      0.2120313              1.0000000              1.0000000
D    1   1.00
      1.8260000              1.0000000
D    1   1.00
      0.4565000              1.0000000
F    1   1.00
      1.0000000              1.0000000
****
O     0
S    6   1.00
   5484.6717000              0.0018311
    825.2349500              0.0139501
    188.0469600              0.0684451
     52.9645000              0.2327143
     16.8975700              0.4701930
      5.7996353              0.3585209
SP   3   1.00
     15.5396160             -0.1107775              0.0708743
      3.5999336             -0.1480263              0.3397528
      1.0137618              1.1307670              0.7271586
SP   1   1.00
      0.2700058              1.0000000              1.0000000
D    1   1.00
      2.5840000              1.0000000
D    1   1.00
      0.6460000              1.0000000
F    1   1.00
      1.4000000              1.0000000
****
F     0
S    6   1.00
   7001.7130900              0.0018196169
   1051.3660900              0.0139160796
    239.2856900              0.0684053245
     67.3974453              0.233185760
     21.5199573              0.471267439
      7.40310130             0.356618546
SP   3   1.00
     20.8479528             -0.108506975            0.0716287243
      4.80830834            -0.146451658            0.3459121030
      1.34406986             1.128688580            0.7224699570
SP   1   1.00
      0.358151393            1.0000000              1.0000000
D    1   1.00
      3.5000000              1.0000000
D    1   1.00
      0.8750000              1.0000000
F    1   1.00
      1.8500000              1.0000000
****
Al     0
S    6   1.00
  13983.1000000              0.00194267
   2098.7500000              0.0148599
    477.7050000              0.0728494
    134.3600000              0.2468300
     42.8709000              0.4872580
     14.5189000              0.3234960
SP   6   1.00
    239.6680000             -0.00292619             0.00460285
     57.4419000             -0.0374080              0.0331990
     18.2859000             -0.1144870              0.1362820
      6.5991400              0.1156350              0.3304760
      2.4904900              0.6125950              0.4491460
      0.9445400              0.3937990              0.2657040
SP   3   1.00
      1.2779000             -0.2276060             -0.0175130
      0.3975900              0.00144583             0.2445330
      0.1600950              1.0927900              0.8049340
SP   1   1.00
      0.0556577              1.0000000              1.0000000
D    1   1.00
      0.6500000              1.0000000
D    1   1.00
      0.1625000              1.0000000
F    1   1.00
      0.2500000              1.0000000
****
Si     0
S    6   1.00
  16115.9000000              0.00195948
   2425.5800000              0.01492880
    553.8670000              0.07284780
    156.3400000              0.24613000
     50.0683000              0.48591400
     17.0178000              0.32500200
SP   6   1.00
    292.7180000             -0.00278094             0.00443826
     69.8731000             -0.03571460             0.03266790
     22.3363000             -0.11498500             0.13472100
      8.1503900              0.09356340             0.32867800
      3.1345800              0.60301700             0.44964000
      1.2254300              0.41895900             0.26137200
SP   3   1.00
      1.7273800             -0.24463000            -0.01779510
      0.5729220              0.00431572             0.25353900
      0.2221920              1.09818000             0.80066900
SP   1   1.00
      0.0778369              1.00000000             1.00000000
D    1   1.00
      0.9000000              1.0000000
D    1   1.00
      0.2250000              1.0000000
F    1   1.00
      0.3200000              1.0000000
****
P     0
S    6   1.00
  19413.3000000              0.0018516
   2909.4200000              0.0142062
    661.3640000              0.0699995
    185.7590000              0.2400790
     59.1943000              0.4847620
     20.0310000              0.3352000
SP   6   1.00
    339.4780000             -0.00278217             0.00456462
     81.0101000             -0.0360499              0.03369360
     25.8780000             -0.1166310              0.13975500
      9.4522100              0.0968328              0.33936200
      3.6656600              0.6144180              0.45092100
      1.4674600              0.4037980              0.23858600
SP   3   1.00
      2.1562300             -0.2529230             -0.01776530
      0.7489970              0.0328517              0.27405800
      0.2831450              1.0812500              0.78542100
SP   1   1.00
      0.0998317              1.0000000              1.00000000
D    1   1.00
      1.1000000              1.0000000
D    1   1.00
      0.2750000              1.0000000
F    1   1.00
      0.4500000              1.0000000
****
S     0
S    6   1.00
  21917.1000000              0.0018690
   3301.4900000              0.0142300
    754.1460000              0.0696960
    212.7110000              0.2384870
     67.9896000              0.4833070
     23.0515000              0.3380740
SP   6   1.00
    423.7350000             -0.0023767              0.0040610
    100.7100000             -0.0316930              0.0306810
     32.1599000             -0.1133170              0.1304520
     11.8079000              0.0560900              0.3272050
      4.6311000              0.5922550              0.4528510
      1.8702500              0.4550060              0.2560420
SP   3   1.00
      2.6158400             -0.2503740             -0.0145110
      0.9221670              0.0669570              0.3102630
      0.3412870              1.0545100              0.7544830
SP   1   1.00
      0.1171670              1.0000000              1.0000000
D    1   1.00
      1.3000000              1.0000000
D    1   1.00
      0.3250000              1.0000000
F    1   1.00
      0.5500000              1.0000000
****
Cl     0
S    6   1.00
  25180.1000000              0.0018330
   3780.3500000              0.0140340
    860.4740000              0.0690970
    242.1450000              0.2374520
     77.3349000              0.4830340
     26.2470000              0.3398560
SP   6   1.00
    491.7650000             -0.0022974              0.0039894
    116.9840000             -0.0307140              0.0303180
     37.4153000             -0.1125280              0.1298800
     13.7834000              0.0450160              0.3279510
      5.4521500              0.5893530              0.4535270
      2.2258800              0.4652060              0.2521540
SP   3   1.00
      3.1864900             -0.2518300             -0.0142990
      1.1442700              0.0615890              0.3235720
      0.4203770              1.0601800              0.7435070
SP   1   1.00
      0.1426570              1.0000000              1.0000000
D    1   1.00
      1.5000000              1.0000000
D    1   1.00
      0.3750000              1.0000000
F    1   1.00
      0.7000000              1.0000000
****
}

set {
reference uhf
freeze_core true
e_convergence 10
d_convergence 10
dft_spherical_points 1202
dft_radial_points 99
}

e = energy('b3lyp')

print_out('Grab this energy {0}'.format(e))
--------------------------------------------------------------------------

    Molecular point group: c1

    Geometry (in Bohr), charge = 0, multiplicity = 2:

       Center              X                  Y                   Z               Mass
    ------------   -----------------  -----------------  -----------------  -----------------
         C           -0.323555002202    -0.000002049726    -0.000000002195    12.000000000000
         C            0.060890021098    -1.401790005526    -2.426031599295    12.000000000000
         C            0.060770148998     2.801913347474    -0.000964737895    12.000000000000
         C            0.060890008398    -1.400119106726     2.426996325305    12.000000000000
         H            2.091058746098    -1.646561579226    -2.846501482095     1.007825032230
         H           -0.767914509902    -0.388857132826    -4.025408138495     1.007825032230
         H           -0.763351631802    -3.288055541526    -2.350381058795     1.007825032230
         H            2.090920332898     3.288521475374    -0.002603177295     1.007825032230
         H           -0.768155498802     3.680508136974     1.675912229505     1.007825032230
         H           -0.763429800602     3.679488752874    -1.672387586295     1.007825032230
         H            2.091059388198    -1.642052918226     2.849104539905     1.007825032230
         H           -0.768077301802    -3.291617136926     2.349502043705     1.007825032230
         H           -0.763189445102    -0.391400078826     4.022762797505     1.007825032230

  Charge       = 0
  Multiplicity = 2
  Basis Set: ANONYMOUS262E261E
    Blend: 6-31G_2DFP_
  Basis Set: (ANONYMOUS262E261E AUX)
    Blend: DEF2-UNIVERSAL-JKFIT

    Orbital Energies [Eh]
    ---------------------

    Alpha Occupied:

       1A    -10.180401     2A    -10.167033     3A    -10.167033
       4A    -10.166988     5A     -0.797729     6A     -0.686184
       7A     -0.686183     8A     -0.530771     9A     -0.441025
      10A     -0.434717    11A     -0.434716    12A     -0.382462
      13A     -0.382461    14A     -0.363789    15A     -0.338053
      16A     -0.338053    17A     -0.168999

    Alpha Virtual:

      18A      0.076156    19A      0.134137    20A      0.134138
      21A      0.142709    22A      0.142709    23A      0.154711
      24A      0.178607    25A      0.178607    26A      0.203503
      27A      0.215078    28A      0.275960    29A      0.275962
      30A      0.399107    31A      0.399111    32A      0.403255
      33A      0.424285    34A      0.424285    35A      0.456516
      36A      0.495569    37A      0.495570    38A      0.512041
      39A      0.513827    40A      0.578640    41A      0.578648
      42A      0.591368    43A      0.591370    44A      0.601817
      45A      0.625228    46A      0.632218    47A      0.636610
      48A      0.636614    49A      0.662926    50A      0.662927
      51A      0.684113    52A      0.684115    53A      0.735056
      54A      0.825371    55A      0.825374    56A      0.853636
      57A      0.914801    58A      0.914807    59A      0.944379
      60A      0.944788    61A      0.961185    62A      0.961201
      63A      1.003269    64A      1.128356    65A      1.128369
      66A      1.141498    67A      1.163529    68A      1.163541
      69A      1.223736    70A      1.274251    71A      1.274254
      72A      1.279188    73A      1.324126    74A      1.324128
      75A      1.356504    76A      1.365970    77A      1.365974
      78A      1.392415    79A      1.403022    80A      1.403024
      81A      1.418098    82A      1.418104    83A      1.427696
      84A      1.491442    85A      1.498180    86A      1.542458
      87A      1.542460    88A      1.574815    89A      1.574818
      90A      1.671097    91A      1.738561    92A      1.738572
      93A      1.766454    94A      1.832800    95A      1.832801
      96A      1.972713    97A      2.018260    98A      2.019021
      99A      2.019024   100A      2.051412   101A      2.051414
     102A      2.738802   103A      2.738803   104A      2.790532
     105A      2.811885   106A      2.889578   107A      2.889584
     108A      2.894595   109A      2.929698   110A      2.929706
     111A      2.958863   112A      2.963960   113A      2.963974
     114A      3.033307   115A      3.071253   116A      3.071267
     117A      3.085775   118A      3.168653   119A      3.168660
     120A      3.180546   121A      3.285212   122A      3.285212
     123A      3.327800   124A      3.327806   125A      3.375782
     126A      3.489934   127A      3.489954   128A      3.512793
     129A      3.526541   130A      3.567977   131A      3.567997
     132A      3.574311   133A      3.666002   134A      3.666011
     135A      3.680277   136A      3.694308   137A      3.694325
     138A      3.777212   139A      3.777237   140A      3.788330
     141A      3.912788   142A      3.912794   143A      4.034868
     144A      4.111251   145A      4.111256   146A      4.147554
     147A      4.147562   148A      4.171342   149A      4.202658
     150A      4.203930   151A      4.203933   152A      4.209807
     153A      4.315518   154A      4.315537   155A      4.360207
     156A      4.423734   157A      4.423737   158A      4.443692
     159A      4.516190   160A      4.516191   161A      4.578964
     162A      4.578976   163A      4.617394   164A      4.708940
     165A      4.774732   166A      4.774740   167A      4.838256
     168A      4.963186   169A      5.001643   170A      5.001655
     171A      5.225313   172A      5.249732   173A      5.249733
     174A      5.353638   175A      5.353651   176A      5.481341

    Beta Occupied:

       1A    -10.167787     2A    -10.167787     3A    -10.167763
       4A    -10.166584     5A     -0.781061     6A     -0.683999
       7A     -0.683998     8A     -0.511791     9A     -0.431112
      10A     -0.431111    11A     -0.421664    12A     -0.376522
      13A     -0.376521    14A     -0.362782    15A     -0.333172
      16A     -0.333172

    Beta Virtual:

      17A     -0.025872    18A      0.077182    19A      0.135098
      20A      0.135099    21A      0.144553    22A      0.144554
      23A      0.163190    24A      0.182249    25A      0.182250
      26A      0.215293    27A      0.218892    28A      0.282312
      29A      0.282315    30A      0.400278    31A      0.400282
      32A      0.419799    33A      0.427096    34A      0.427096
      35A      0.468324    36A      0.497839    37A      0.497840
      38A      0.513785    39A      0.556132    40A      0.584217
      41A      0.584226    42A      0.597540    43A      0.597541
      44A      0.609361    45A      0.628449    46A      0.632405
      47A      0.639858    48A      0.639862    49A      0.666521
      50A      0.666522    51A      0.686736    52A      0.686737
      53A      0.757576    54A      0.830561    55A      0.830564
      56A      0.854998    57A      0.922790    58A      0.922797
      59A      0.946238    60A      0.953735    61A      0.966457
      62A      0.966473    63A      1.008469    64A      1.132421
      65A      1.132433    66A      1.154957    67A      1.168577
      68A      1.168590    69A      1.232693    70A      1.279826
      71A      1.279829    72A      1.284884    73A      1.329162
      74A      1.329163    75A      1.365901    76A      1.371286
      77A      1.371290    78A      1.393489    79A      1.406430
      80A      1.406432    81A      1.423115    82A      1.423122
      83A      1.427971    84A      1.492480    85A      1.508615
      86A      1.546898    87A      1.546899    88A      1.582670
      89A      1.582670    90A      1.675994    91A      1.744316
      92A      1.744328    93A      1.777224    94A      1.836657
      95A      1.836658    96A      1.973574    97A      2.025278
      98A      2.025281    99A      2.039613   100A      2.058253
     101A      2.058254   102A      2.747146   103A      2.747148
     104A      2.812293   105A      2.815635   106A      2.902240
     107A      2.902246   108A      2.924105   109A      2.932179
     110A      2.932188   111A      2.959923   112A      2.968468
     113A      2.968482   114A      3.041454   115A      3.081152
     116A      3.081164   117A      3.087594   118A      3.184424
     119A      3.184428   120A      3.188203   121A      3.290041
     122A      3.290041   123A      3.331570   124A      3.331575
     125A      3.383575   126A      3.492624   127A      3.492644
     128A      3.511158   129A      3.529568   130A      3.574169
     131A      3.581486   132A      3.581508   133A      3.670658
     134A      3.670670   135A      3.693542   136A      3.725935
     137A      3.725951   138A      3.781674   139A      3.781700
     140A      3.816903   141A      3.922661   142A      3.922668
     143A      4.045818   144A      4.118066   145A      4.118068
     146A      4.154763   147A      4.154771   148A      4.185382
     149A      4.209985   150A      4.209988   151A      4.210545
     152A      4.214466   153A      4.322896   154A      4.322916
     155A      4.363525   156A      4.431948   157A      4.431950
     158A      4.446522   159A      4.524014   160A      4.524015
     161A      4.589524   162A      4.589536   163A      4.624494
     164A      4.719400   165A      4.781636   166A      4.781643
     167A      4.841161   168A      4.967994   169A      5.005708
     170A      5.005720   171A      5.230993   172A      5.251508
     173A      5.251508   174A      5.360085   175A      5.360098
     176A      5.483650

    Final Occupation by Irrep:
              A
    DOCC [    16 ]
    SOCC [     1 ]

  @DF-UKS Final Energy:  -157.81304825184355

   => Energetics <=

    Nuclear Repulsion Energy =            125.3893165936367637
    One-Electron Energy =                -458.7382064452499435
    Two-Electron Energy =                 195.8428816115141728
    DFT Exchange-Correlation Energy =     -20.3070400117445473
    Empirical Dispersion Energy =           0.0000000000000000
    VV10 Nonlocal Energy =                  0.0000000000000000
    Total Energy =                       -157.8130482518435542

  UHF NO Occupations:
  HONO-2 :   15  A 1.9995985
  HONO-1 :   16  A 1.9989796
  HONO-0 :   17  A 1.0000000
  LUNO+0 :   18  A 0.0010204
  LUNO+1 :   19  A 0.0004015
  LUNO+2 :   20  A 0.0001975
  LUNO+3 :   21  A 0.0001975

Computation Completed

Properties will be evaluated at   0.000000,   0.000000,   0.000000 [a0]

Properties computed using the SCF density matrix

  Nuclear Dipole Moment: [e a0]
     X:     0.8329      Y:    -0.0000      Z:     0.0000

  Electronic Dipole Moment: [e a0]
     X:    -0.7582      Y:     0.0000      Z:    -0.0000

  Dipole Moment: [e a0]
     X:     0.0747      Y:    -0.0000      Z:    -0.0000     Total:     0.0747

  Dipole Moment: [D]
     X:     0.1899      Y:    -0.0000      Z:    -0.0000     Total:     0.1899

*** tstop() called on n031 at Fri Nov  5 14:41:28 2021
Module time:
	user time   =     740.76 seconds =      12.35 minutes
	system time =      15.28 seconds =       0.25 minutes
	total time  =        190 seconds =       3.17 minutes
Total time:
	user time   =     740.76 seconds =      12.35 minutes
	system time =      15.28 seconds =       0.25 minutes
	total time  =        190 seconds =       3.17 minutes
Grab this energy -157.81304825184355
    Psi4 stopped on: Friday, 05 November 2021 02:41PM
    Psi4 wall time for execution: 0:03:09.95

*** Psi4 exiting successfully. Buy a developer a beer!
