                               Psi4 1.4a2.dev629

  ==> Input File <==

--------------------------------------------------------------------------
import os
memory 14 GB

molecule {
 C   -0.3236384021   -0.0053492587    0.0000000000
 C    0.0612051269   -1.4044435303   -2.4306414706
 C    0.0613062733    2.8071452008    0.0000000000
 C    0.0612051269   -1.4044435303    2.4306414706
 H    2.0873478016   -1.6464931360   -2.8533250559
 H   -0.7648181614   -0.3903325088   -4.0315700424
 H   -0.7664312611   -3.2943733181   -2.3532089275
 H    2.0868517951    3.2952966185   -0.0000000000
 H   -0.7658672776    3.6870840562    1.6764940194
 H   -0.7658672776    3.6870840562   -1.6764940194
 H    2.0873478016   -1.6464931360    2.8533250559
 H   -0.7664312611   -3.2943733181    2.3532089275
 H   -0.7648181614   -0.3903325088    4.0315700424
units bohr
0 2
}

basis {

assign 6-31g_2dfp_

[ 6-31g_2dfp_ ]

spherical

!----------------------------------------------------------------------
! Basis Set Exchange
! Version v0.8.13
! https://www.basissetexchange.org
!----------------------------------------------------------------------
!   Basis set: 6-31G(2df,p)
! Description: 6-31G(2df,p)
!        Role: orbital
!     Version: 0  (Data from the original Basis Set Exchange)
!----------------------------------------------------------------------

****
H     0
S    3   1.00
     18.7311370              0.03349460
      2.8253937              0.23472695
      0.6401217              0.81375733
S    1   1.00
      0.1612778              1.00000000
P    1   1.00
      1.5000000              1.0000000
P    1   1.00
      0.3750000              1.0000000
****
B     0
S    6   1.00
   2068.8823000              0.0018663
    310.6495700              0.0142515
     70.6830330              0.0695516
     19.8610800              0.2325729
      6.2993048              0.4670787
      2.1270270              0.3634314
SP   3   1.00
      4.7279710             -0.1303938              0.0745976
      1.1903377             -0.1307889              0.3078467
      0.3594117              1.1309444              0.7434568
SP   1   1.00
      0.1267512              1.0000000              1.0000000
D    1   1.00
      0.8020000              1.0000000
D    1   1.00
      0.2005000              1.0000000
F    1   1.00
      0.5000000              1.0000000
****
C     0
S    6   1.00
   3047.5249000              0.0018347
    457.3695100              0.0140373
    103.9486900              0.0688426
     29.2101550              0.2321844
      9.2866630              0.4679413
      3.1639270              0.3623120
SP   3   1.00
      7.8682724             -0.1193324              0.0689991
      1.8812885             -0.1608542              0.3164240
      0.5442493              1.1434564              0.7443083
SP   1   1.00
      0.1687144              1.0000000              1.0000000
D    1   1.00
      1.2520000              1.0000000
D    1   1.00
      0.3130000              1.0000000
F    1   1.00
      0.8000000              1.0000000
****
N     0
S    6   1.00
   4173.5110000              0.0018348
    627.4579000              0.0139950
    142.9021000              0.0685870
     40.2343300              0.2322410
     12.8202100              0.4690700
      4.3904370              0.3604550
SP   3   1.00
     11.6263580             -0.1149610              0.0675800
      2.7162800             -0.1691180              0.3239070
      0.7722180              1.1458520              0.7408950
SP   1   1.00
      0.2120313              1.0000000              1.0000000
D    1   1.00
      1.8260000              1.0000000
D    1   1.00
      0.4565000              1.0000000
F    1   1.00
      1.0000000              1.0000000
****
O     0
S    6   1.00
   5484.6717000              0.0018311
    825.2349500              0.0139501
    188.0469600              0.0684451
     52.9645000              0.2327143
     16.8975700              0.4701930
      5.7996353              0.3585209
SP   3   1.00
     15.5396160             -0.1107775              0.0708743
      3.5999336             -0.1480263              0.3397528
      1.0137618              1.1307670              0.7271586
SP   1   1.00
      0.2700058              1.0000000              1.0000000
D    1   1.00
      2.5840000              1.0000000
D    1   1.00
      0.6460000              1.0000000
F    1   1.00
      1.4000000              1.0000000
****
F     0
S    6   1.00
   7001.7130900              0.0018196169
   1051.3660900              0.0139160796
    239.2856900              0.0684053245
     67.3974453              0.233185760
     21.5199573              0.471267439
      7.40310130             0.356618546
SP   3   1.00
     20.8479528             -0.108506975            0.0716287243
      4.80830834            -0.146451658            0.3459121030
      1.34406986             1.128688580            0.7224699570
SP   1   1.00
      0.358151393            1.0000000              1.0000000
D    1   1.00
      3.5000000              1.0000000
D    1   1.00
      0.8750000              1.0000000
F    1   1.00
      1.8500000              1.0000000
****
Al     0
S    6   1.00
  13983.1000000              0.00194267
   2098.7500000              0.0148599
    477.7050000              0.0728494
    134.3600000              0.2468300
     42.8709000              0.4872580
     14.5189000              0.3234960
SP   6   1.00
    239.6680000             -0.00292619             0.00460285
     57.4419000             -0.0374080              0.0331990
     18.2859000             -0.1144870              0.1362820
      6.5991400              0.1156350              0.3304760
      2.4904900              0.6125950              0.4491460
      0.9445400              0.3937990              0.2657040
SP   3   1.00
      1.2779000             -0.2276060             -0.0175130
      0.3975900              0.00144583             0.2445330
      0.1600950              1.0927900              0.8049340
SP   1   1.00
      0.0556577              1.0000000              1.0000000
D    1   1.00
      0.6500000              1.0000000
D    1   1.00
      0.1625000              1.0000000
F    1   1.00
      0.2500000              1.0000000
****
Si     0
S    6   1.00
  16115.9000000              0.00195948
   2425.5800000              0.01492880
    553.8670000              0.07284780
    156.3400000              0.24613000
     50.0683000              0.48591400
     17.0178000              0.32500200
SP   6   1.00
    292.7180000             -0.00278094             0.00443826
     69.8731000             -0.03571460             0.03266790
     22.3363000             -0.11498500             0.13472100
      8.1503900              0.09356340             0.32867800
      3.1345800              0.60301700             0.44964000
      1.2254300              0.41895900             0.26137200
SP   3   1.00
      1.7273800             -0.24463000            -0.01779510
      0.5729220              0.00431572             0.25353900
      0.2221920              1.09818000             0.80066900
SP   1   1.00
      0.0778369              1.00000000             1.00000000
D    1   1.00
      0.9000000              1.0000000
D    1   1.00
      0.2250000              1.0000000
F    1   1.00
      0.3200000              1.0000000
****
P     0
S    6   1.00
  19413.3000000              0.0018516
   2909.4200000              0.0142062
    661.3640000              0.0699995
    185.7590000              0.2400790
     59.1943000              0.4847620
     20.0310000              0.3352000
SP   6   1.00
    339.4780000             -0.00278217             0.00456462
     81.0101000             -0.0360499              0.03369360
     25.8780000             -0.1166310              0.13975500
      9.4522100              0.0968328              0.33936200
      3.6656600              0.6144180              0.45092100
      1.4674600              0.4037980              0.23858600
SP   3   1.00
      2.1562300             -0.2529230             -0.01776530
      0.7489970              0.0328517              0.27405800
      0.2831450              1.0812500              0.78542100
SP   1   1.00
      0.0998317              1.0000000              1.00000000
D    1   1.00
      1.1000000              1.0000000
D    1   1.00
      0.2750000              1.0000000
F    1   1.00
      0.4500000              1.0000000
****
S     0
S    6   1.00
  21917.1000000              0.0018690
   3301.4900000              0.0142300
    754.1460000              0.0696960
    212.7110000              0.2384870
     67.9896000              0.4833070
     23.0515000              0.3380740
SP   6   1.00
    423.7350000             -0.0023767              0.0040610
    100.7100000             -0.0316930              0.0306810
     32.1599000             -0.1133170              0.1304520
     11.8079000              0.0560900              0.3272050
      4.6311000              0.5922550              0.4528510
      1.8702500              0.4550060              0.2560420
SP   3   1.00
      2.6158400             -0.2503740             -0.0145110
      0.9221670              0.0669570              0.3102630
      0.3412870              1.0545100              0.7544830
SP   1   1.00
      0.1171670              1.0000000              1.0000000
D    1   1.00
      1.3000000              1.0000000
D    1   1.00
      0.3250000              1.0000000
F    1   1.00
      0.5500000              1.0000000
****
Cl     0
S    6   1.00
  25180.1000000              0.0018330
   3780.3500000              0.0140340
    860.4740000              0.0690970
    242.1450000              0.2374520
     77.3349000              0.4830340
     26.2470000              0.3398560
SP   6   1.00
    491.7650000             -0.0022974              0.0039894
    116.9840000             -0.0307140              0.0303180
     37.4153000             -0.1125280              0.1298800
     13.7834000              0.0450160              0.3279510
      5.4521500              0.5893530              0.4535270
      2.2258800              0.4652060              0.2521540
SP   3   1.00
      3.1864900             -0.2518300             -0.0142990
      1.1442700              0.0615890              0.3235720
      0.4203770              1.0601800              0.7435070
SP   1   1.00
      0.1426570              1.0000000              1.0000000
D    1   1.00
      1.5000000              1.0000000
D    1   1.00
      0.3750000              1.0000000
F    1   1.00
      0.7000000              1.0000000
****
}

set {
reference uhf
freeze_core true
e_convergence 10
d_convergence 10
dft_spherical_points 1202
dft_radial_points 99
}

e = energy('b3lyp')

print_out('Grab this energy {0}'.format(e))
--------------------------------------------------------------------------

    Molecular point group: cs

    Geometry (in Bohr), charge = 0, multiplicity = 2:

       Center              X                  Y                   Z               Mass
    ------------   -----------------  -----------------  -----------------  -----------------
         C           -0.323661150903    -0.003983028844     0.000000000000    12.000000000000
         C            0.061182378097    -1.403077300444    -2.430641470600    12.000000000000
         C            0.061283524497     2.808511430656     0.000000000000    12.000000000000
         C            0.061182378097    -1.403077300444     2.430641470600    12.000000000000
         H            2.087325052797    -1.645126906144    -2.853325055900     1.007825032230
         H           -0.764840910203    -0.388966278944    -4.031570042400     1.007825032230
         H           -0.766454009903    -3.293007088244    -2.353208927500     1.007825032230
         H            2.086829046297     3.296662848356     0.000000000000     1.007825032230
         H           -0.765890026403     3.688450286056     1.676494019400     1.007825032230
         H           -0.765890026403     3.688450286056    -1.676494019400     1.007825032230
         H            2.087325052797    -1.645126906144     2.853325055900     1.007825032230
         H           -0.766454009903    -3.293007088244     2.353208927500     1.007825032230
         H           -0.764840910203    -0.388966278944     4.031570042400     1.007825032230

  Charge       = 0
  Multiplicity = 2
  Basis Set: ANONYMOUS45983259
    Blend: 6-31G_2DFP_
  Basis Set: (ANONYMOUS45983259 AUX)
    Blend: DEF2-UNIVERSAL-JKFIT

    Orbital Energies [Eh]
    ---------------------

    Alpha Occupied:

       1Ap   -10.181113     2Ap   -10.167415     1App  -10.167375
       3Ap   -10.167338     4Ap    -0.796724     2App   -0.686076
       5Ap    -0.685698     6Ap    -0.530777     7Ap    -0.440538
       8Ap    -0.434400     3App   -0.433980     4App   -0.382643
       9Ap    -0.382409     5App   -0.363726     6App   -0.338329
      10Ap    -0.337291    11Ap    -0.169285

    Alpha Virtual:

      12Ap     0.076102     7App    0.134100    13Ap     0.134130
      14Ap     0.142246     8App    0.142604    15Ap     0.154818
      16Ap     0.178597     9App    0.178609    17Ap     0.202434
      10App    0.214458    18Ap     0.275161    11App    0.275744
      19Ap     0.399128    12App    0.399369    20Ap     0.403548
      21Ap     0.424382    13App    0.424383    22Ap     0.456030
      23Ap     0.495115    14App    0.495212    15App    0.511827
      24Ap     0.513568    25Ap     0.577911    16App    0.578324
      17App    0.591082    26Ap     0.591115    27Ap     0.602126
      28Ap     0.624344    18App    0.631421    29Ap     0.635319
      19App    0.635598    20App    0.662865    30Ap     0.663000
      21App    0.683362    31Ap     0.683460    32Ap     0.735194
      33Ap     0.825455    22App    0.825667    23App    0.852910
      24App    0.914187    34Ap     0.914406    25App    0.942802
      35Ap     0.945189    36Ap     0.960170    26App    0.960500
      37Ap     1.002335    38Ap     1.126931    27App    1.127466
      39Ap     1.141921    40Ap     1.162100    28App    1.162878
      41Ap     1.222439    29App    1.273117    42Ap     1.274054
      43Ap     1.278832    44Ap     1.323924    30App    1.324116
      45Ap     1.355823    46Ap     1.363966    31App    1.364502
      32App    1.390927    47Ap     1.404278    33App    1.404350
      34App    1.416449    48Ap     1.417068    35App    1.426497
      36App    1.490295    49Ap     1.498508    50Ap     1.542087
      37App    1.542100    38App    1.573261    51Ap     1.573300
      52Ap     1.669895    53Ap     1.738584    39App    1.738991
      54Ap     1.766802    55Ap     1.829928    40App    1.830458
      41App    1.970362    56Ap     2.016013    42App    2.017360
      57Ap     2.018509    58Ap     2.047673    43App    2.048712
      59Ap     2.737645    44App    2.738121    60Ap     2.789763
      45App    2.808701    61Ap     2.888214    46App    2.889355
      62Ap     2.893414    63Ap     2.928944    47App    2.929711
      48App    2.958754    49App    2.964543    64Ap     2.964818
      65Ap     3.034030    66Ap     3.069869    50App    3.070838
      51App    3.082780    52App    3.167872    67Ap     3.167937
      68Ap     3.178807    69Ap     3.284498    53App    3.285073
      54App    3.326370    70Ap     3.327107    71Ap     3.376962
      72Ap     3.487839    55App    3.488850    56App    3.513241
      73Ap     3.522987    57App    3.568233    74Ap     3.568695
      58App    3.573035    59App    3.666131    75Ap     3.666724
      76Ap     3.677735    60App    3.692674    77Ap     3.692702
      78Ap     3.771583    61App    3.773077    79Ap     3.788457
      80Ap     3.909678    62App    3.910598    81Ap     4.032601
      82Ap     4.108118    63App    4.108827    83Ap     4.146458
      64App    4.148387    84Ap     4.172047    85Ap     4.200038
      65App    4.201133    86Ap     4.201538    66App    4.209262
      87Ap     4.313883    67App    4.314984    68App    4.356489
      88Ap     4.422337    69App    4.422451    70App    4.441028
      89Ap     4.513732    71App    4.513997    90Ap     4.574524
      72App    4.574594    91Ap     4.610574    92Ap     4.704698
      93Ap     4.767629    73App    4.768728    74App    4.832935
      94Ap     4.959810    75App    5.001100    95Ap     5.001628
      96Ap     5.227028    97Ap     5.245386    76App    5.245429
      98Ap     5.352349    77App    5.353464    78App    5.473648

    Beta Occupied:

       1Ap   -10.168166     1App  -10.168127     2Ap   -10.168114
       3Ap   -10.167259     4Ap    -0.780072     2App   -0.683887
       5Ap    -0.683533     6Ap    -0.511648     7Ap    -0.430796
       3App   -0.430372     8Ap    -0.421322     4App   -0.376725
       9Ap    -0.376572     5App   -0.362721     6App   -0.333458
      10Ap    -0.332400

    Beta Virtual:

      11Ap    -0.025774    12Ap     0.077099    13Ap     0.135009
       7App    0.135012    14Ap     0.144099     8App    0.144435
      15Ap     0.163234    16Ap     0.182230     9App    0.182266
      10App    0.214680    17Ap     0.217996    18Ap     0.281614
      11App    0.282127    19Ap     0.400268    12App    0.400504
      20Ap     0.420091    21Ap     0.427192    13App    0.427214
      22Ap     0.467584    23Ap     0.497359    14App    0.497461
      15App    0.513546    24Ap     0.555982    25Ap     0.583438
      16App    0.583889    17App    0.597333    26Ap     0.597339
      27Ap     0.609514    28Ap     0.627659    18App    0.631567
      29Ap     0.638521    19App    0.638824    20App    0.666475
      30Ap     0.666598    21App    0.685918    31Ap     0.686019
      32Ap     0.757894    33Ap     0.830611    22App    0.830815
      23App    0.854227    24App    0.922118    34Ap     0.922392
      25App    0.944635    35Ap     0.954208    36Ap     0.965444
      26App    0.965789    37Ap     1.007653    38Ap     1.131001
      27App    1.131471    39Ap     1.155271    40Ap     1.167176
      28App    1.167940    41Ap     1.231270    29App    1.278728
      42Ap     1.279561    43Ap     1.284650    44Ap     1.328928
      30App    1.329097    45Ap     1.365208    46Ap     1.369266
      31App    1.369706    32App    1.391977    47Ap     1.407724
      33App    1.407900    34App    1.421444    48Ap     1.422055
      35App    1.426737    36App    1.491344    49Ap     1.508889
      50Ap     1.546544    37App    1.546571    51Ap     1.581078
      38App    1.581089    52Ap     1.674734    53Ap     1.744338
      39App    1.744754    54Ap     1.777559    55Ap     1.833751
      40App    1.834309    41App    1.971217    42App    2.023768
      56Ap     2.024884    57Ap     2.037321    58Ap     2.054378
      43App    2.055384    59Ap     2.746045    44App    2.746582
      45App    2.809108    60Ap     2.814918    61Ap     2.901200
      46App    2.902176    62Ap     2.923058    63Ap     2.931221
      47App    2.932081    48App    2.959806    49App    2.969029
      64Ap     2.969304    65Ap     3.041877    66Ap     3.079766
      50App    3.080586    51App    3.084578    67Ap     3.183538
      52App    3.183823    68Ap     3.186708    69Ap     3.289162
      53App    3.289656    54App    3.330248    70Ap     3.330989
      71Ap     3.384799    72Ap     3.490578    55App    3.491600
      56App    3.511619    73Ap     3.526084    57App    3.572862
      58App    3.581612    74Ap     3.581976    59App    3.671064
      75Ap     3.671488    76Ap     3.691046    60App    3.724361
      77Ap     3.724643    78Ap     3.776093    61App    3.777552
      79Ap     3.817112    80Ap     3.919496    62App    3.920406
      81Ap     4.043557    82Ap     4.115257    63App    4.115867
      83Ap     4.153504    64App    4.155390    84Ap     4.185993
      85Ap     4.206167    65App    4.207053    86Ap     4.209267
      66App    4.213666    87Ap     4.321228    67App    4.322455
      68App    4.359873    88Ap     4.430454    69App    4.430548
      70App    4.443902    89Ap     4.521349    71App    4.521708
      90Ap     4.585072    72App    4.585180    91Ap     4.617810
      92Ap     4.714963    93Ap     4.774544    73App    4.775714
      74App    4.835854    94Ap     4.964580    75App    5.005115
      95Ap     5.005616    96Ap     5.232705    97Ap     5.247164
      76App    5.247196    98Ap     5.358750    77App    5.359917
      78App    5.475948

    Final Occupation by Irrep:
             Ap   App
    DOCC [    10,    6 ]
    SOCC [     1,    0 ]

  @DF-UKS Final Energy:  -157.81306545238650

   => Energetics <=

    Nuclear Repulsion Energy =            125.2137312501964317
    One-Electron Energy =                -458.3927182345697702
    Two-Electron Energy =                 195.6692752398967343
    DFT Exchange-Correlation Energy =     -20.3033537079098778
    Empirical Dispersion Energy =           0.0000000000000000
    VV10 Nonlocal Energy =                  0.0000000000000000
    Total Energy =                       -157.8130654523864962

  UHF NO Occupations:
  HONO-2 :    9 Ap 1.9996026
  HONO-1 :   10 Ap 1.9989734
  HONO-0 :   11 Ap 1.0000000
  LUNO+0 :   12 Ap 0.0010266
  LUNO+1 :   13 Ap 0.0003974
  LUNO+2 :   14 Ap 0.0002008
  LUNO+3 :    7App 0.0001987

Computation Completed

Properties will be evaluated at   0.000000,   0.000000,   0.000000 [a0]

Properties computed using the SCF density matrix

  Nuclear Dipole Moment: [e a0]
     X:     0.8270      Y:     0.0096      Z:     0.0000

  Electronic Dipole Moment: [e a0]
     X:    -0.7483      Y:    -0.0108      Z:     0.0000

  Dipole Moment: [e a0]
     X:     0.0788      Y:    -0.0012      Z:     0.0000     Total:     0.0788

  Dipole Moment: [D]
     X:     0.2002      Y:    -0.0032      Z:     0.0000     Total:     0.2003

*** tstop() called on n082 at Fri Nov  5 13:51:08 2021
Module time:
	user time   =     497.18 seconds =       8.29 minutes
	system time =       4.54 seconds =       0.08 minutes
	total time  =        126 seconds =       2.10 minutes
Total time:
	user time   =     497.18 seconds =       8.29 minutes
	system time =       4.54 seconds =       0.08 minutes
	total time  =        126 seconds =       2.10 minutes
Grab this energy -157.8130654523865
    Psi4 stopped on: Friday, 05 November 2021 01:51PM
    Psi4 wall time for execution: 0:02:06.15

*** Psi4 exiting successfully. Buy a developer a beer!
