                               Psi4 1.4a2.dev629

  ==> Input File <==

--------------------------------------------------------------------------
import os
memory 14 GB

molecule {
 C   -0.3247914489   -0.0000017491    0.0002446821
 C    0.0629601551   -1.4007114563   -2.4262423748
 C    0.0618766265    2.8016639741   -0.0001486804
 C    0.0610343165   -1.4009468797    2.4263526267
 H    2.0896915184   -1.6459568901   -2.8525161172
 H   -0.7646268356   -0.3875164315   -4.0233763669
 H   -0.7638259704   -3.2903138072   -2.3458079136
 H    2.0867487554    3.2881452242   -0.0018528989
 H   -0.7648450421    3.6788315662    1.6770174174
 H   -0.7667705939    3.6816711109   -1.6758691332
 H    2.0840729199   -1.6422829318    2.8424466783
 H   -0.7676283203   -3.2935813858    2.3522244218
 H   -0.7665039573   -0.3890246575    4.0275276587
units bohr
0 2
}

basis {

assign 6-31g_2dfp_

[ 6-31g_2dfp_ ]

spherical

!----------------------------------------------------------------------
! Basis Set Exchange
! Version v0.8.13
! https://www.basissetexchange.org
!----------------------------------------------------------------------
!   Basis set: 6-31G(2df,p)
! Description: 6-31G(2df,p)
!        Role: orbital
!     Version: 0  (Data from the original Basis Set Exchange)
!----------------------------------------------------------------------

****
H     0
S    3   1.00
     18.7311370              0.03349460
      2.8253937              0.23472695
      0.6401217              0.81375733
S    1   1.00
      0.1612778              1.00000000
P    1   1.00
      1.5000000              1.0000000
P    1   1.00
      0.3750000              1.0000000
****
B     0
S    6   1.00
   2068.8823000              0.0018663
    310.6495700              0.0142515
     70.6830330              0.0695516
     19.8610800              0.2325729
      6.2993048              0.4670787
      2.1270270              0.3634314
SP   3   1.00
      4.7279710             -0.1303938              0.0745976
      1.1903377             -0.1307889              0.3078467
      0.3594117              1.1309444              0.7434568
SP   1   1.00
      0.1267512              1.0000000              1.0000000
D    1   1.00
      0.8020000              1.0000000
D    1   1.00
      0.2005000              1.0000000
F    1   1.00
      0.5000000              1.0000000
****
C     0
S    6   1.00
   3047.5249000              0.0018347
    457.3695100              0.0140373
    103.9486900              0.0688426
     29.2101550              0.2321844
      9.2866630              0.4679413
      3.1639270              0.3623120
SP   3   1.00
      7.8682724             -0.1193324              0.0689991
      1.8812885             -0.1608542              0.3164240
      0.5442493              1.1434564              0.7443083
SP   1   1.00
      0.1687144              1.0000000              1.0000000
D    1   1.00
      1.2520000              1.0000000
D    1   1.00
      0.3130000              1.0000000
F    1   1.00
      0.8000000              1.0000000
****
N     0
S    6   1.00
   4173.5110000              0.0018348
    627.4579000              0.0139950
    142.9021000              0.0685870
     40.2343300              0.2322410
     12.8202100              0.4690700
      4.3904370              0.3604550
SP   3   1.00
     11.6263580             -0.1149610              0.0675800
      2.7162800             -0.1691180              0.3239070
      0.7722180              1.1458520              0.7408950
SP   1   1.00
      0.2120313              1.0000000              1.0000000
D    1   1.00
      1.8260000              1.0000000
D    1   1.00
      0.4565000              1.0000000
F    1   1.00
      1.0000000              1.0000000
****
O     0
S    6   1.00
   5484.6717000              0.0018311
    825.2349500              0.0139501
    188.0469600              0.0684451
     52.9645000              0.2327143
     16.8975700              0.4701930
      5.7996353              0.3585209
SP   3   1.00
     15.5396160             -0.1107775              0.0708743
      3.5999336             -0.1480263              0.3397528
      1.0137618              1.1307670              0.7271586
SP   1   1.00
      0.2700058              1.0000000              1.0000000
D    1   1.00
      2.5840000              1.0000000
D    1   1.00
      0.6460000              1.0000000
F    1   1.00
      1.4000000              1.0000000
****
F     0
S    6   1.00
   7001.7130900              0.0018196169
   1051.3660900              0.0139160796
    239.2856900              0.0684053245
     67.3974453              0.233185760
     21.5199573              0.471267439
      7.40310130             0.356618546
SP   3   1.00
     20.8479528             -0.108506975            0.0716287243
      4.80830834            -0.146451658            0.3459121030
      1.34406986             1.128688580            0.7224699570
SP   1   1.00
      0.358151393            1.0000000              1.0000000
D    1   1.00
      3.5000000              1.0000000
D    1   1.00
      0.8750000              1.0000000
F    1   1.00
      1.8500000              1.0000000
****
Al     0
S    6   1.00
  13983.1000000              0.00194267
   2098.7500000              0.0148599
    477.7050000              0.0728494
    134.3600000              0.2468300
     42.8709000              0.4872580
     14.5189000              0.3234960
SP   6   1.00
    239.6680000             -0.00292619             0.00460285
     57.4419000             -0.0374080              0.0331990
     18.2859000             -0.1144870              0.1362820
      6.5991400              0.1156350              0.3304760
      2.4904900              0.6125950              0.4491460
      0.9445400              0.3937990              0.2657040
SP   3   1.00
      1.2779000             -0.2276060             -0.0175130
      0.3975900              0.00144583             0.2445330
      0.1600950              1.0927900              0.8049340
SP   1   1.00
      0.0556577              1.0000000              1.0000000
D    1   1.00
      0.6500000              1.0000000
D    1   1.00
      0.1625000              1.0000000
F    1   1.00
      0.2500000              1.0000000
****
Si     0
S    6   1.00
  16115.9000000              0.00195948
   2425.5800000              0.01492880
    553.8670000              0.07284780
    156.3400000              0.24613000
     50.0683000              0.48591400
     17.0178000              0.32500200
SP   6   1.00
    292.7180000             -0.00278094             0.00443826
     69.8731000             -0.03571460             0.03266790
     22.3363000             -0.11498500             0.13472100
      8.1503900              0.09356340             0.32867800
      3.1345800              0.60301700             0.44964000
      1.2254300              0.41895900             0.26137200
SP   3   1.00
      1.7273800             -0.24463000            -0.01779510
      0.5729220              0.00431572             0.25353900
      0.2221920              1.09818000             0.80066900
SP   1   1.00
      0.0778369              1.00000000             1.00000000
D    1   1.00
      0.9000000              1.0000000
D    1   1.00
      0.2250000              1.0000000
F    1   1.00
      0.3200000              1.0000000
****
P     0
S    6   1.00
  19413.3000000              0.0018516
   2909.4200000              0.0142062
    661.3640000              0.0699995
    185.7590000              0.2400790
     59.1943000              0.4847620
     20.0310000              0.3352000
SP   6   1.00
    339.4780000             -0.00278217             0.00456462
     81.0101000             -0.0360499              0.03369360
     25.8780000             -0.1166310              0.13975500
      9.4522100              0.0968328              0.33936200
      3.6656600              0.6144180              0.45092100
      1.4674600              0.4037980              0.23858600
SP   3   1.00
      2.1562300             -0.2529230             -0.01776530
      0.7489970              0.0328517              0.27405800
      0.2831450              1.0812500              0.78542100
SP   1   1.00
      0.0998317              1.0000000              1.00000000
D    1   1.00
      1.1000000              1.0000000
D    1   1.00
      0.2750000              1.0000000
F    1   1.00
      0.4500000              1.0000000
****
S     0
S    6   1.00
  21917.1000000              0.0018690
   3301.4900000              0.0142300
    754.1460000              0.0696960
    212.7110000              0.2384870
     67.9896000              0.4833070
     23.0515000              0.3380740
SP   6   1.00
    423.7350000             -0.0023767              0.0040610
    100.7100000             -0.0316930              0.0306810
     32.1599000             -0.1133170              0.1304520
     11.8079000              0.0560900              0.3272050
      4.6311000              0.5922550              0.4528510
      1.8702500              0.4550060              0.2560420
SP   3   1.00
      2.6158400             -0.2503740             -0.0145110
      0.9221670              0.0669570              0.3102630
      0.3412870              1.0545100              0.7544830
SP   1   1.00
      0.1171670              1.0000000              1.0000000
D    1   1.00
      1.3000000              1.0000000
D    1   1.00
      0.3250000              1.0000000
F    1   1.00
      0.5500000              1.0000000
****
Cl     0
S    6   1.00
  25180.1000000              0.0018330
   3780.3500000              0.0140340
    860.4740000              0.0690970
    242.1450000              0.2374520
     77.3349000              0.4830340
     26.2470000              0.3398560
SP   6   1.00
    491.7650000             -0.0022974              0.0039894
    116.9840000             -0.0307140              0.0303180
     37.4153000             -0.1125280              0.1298800
     13.7834000              0.0450160              0.3279510
      5.4521500              0.5893530              0.4535270
      2.2258800              0.4652060              0.2521540
SP   3   1.00
      3.1864900             -0.2518300             -0.0142990
      1.1442700              0.0615890              0.3235720
      0.4203770              1.0601800              0.7435070
SP   1   1.00
      0.1426570              1.0000000              1.0000000
D    1   1.00
      1.5000000              1.0000000
D    1   1.00
      0.3750000              1.0000000
F    1   1.00
      0.7000000              1.0000000
****
}

set {
reference uhf
freeze_core true
e_convergence 10
d_convergence 10
dft_spherical_points 1202
dft_radial_points 99
}

e = energy('b3lyp')

print_out('Grab this energy {0}'.format(e))
--------------------------------------------------------------------------

    Molecular point group: c1

    Geometry (in Bohr), charge = 0, multiplicity = 2:

       Center              X                  Y                   Z               Mass
    ------------   -----------------  -----------------  -----------------  -----------------
         C           -0.325007098481    -0.000002068788     0.000204956171    12.000000000000
         C            0.062744505519    -1.400711775988    -2.426282100729    12.000000000000
         C            0.061660976919     2.801663654412    -0.000188406329    12.000000000000
         C            0.060818666919    -1.400947199388     2.426312900771    12.000000000000
         H            2.089475868819    -1.645957209788    -2.852555843129     1.007825032230
         H           -0.764842485181    -0.387516751188    -4.023416092829     1.007825032230
         H           -0.764041619981    -3.290314126888    -2.345847639529     1.007825032230
         H            2.086533105819     3.288144904512    -0.001892624829     1.007825032230
         H           -0.765060691681     3.678831246512     1.676977691471     1.007825032230
         H           -0.766986243481     3.681670791212    -1.675908859129     1.007825032230
         H            2.083857270319    -1.642283251488     2.842406952371     1.007825032230
         H           -0.767843969881    -3.293581705488     2.352184695871     1.007825032230
         H           -0.766719606881    -0.389024977188     4.027487932771     1.007825032230

  Charge       = 0
  Multiplicity = 2
  Basis Set: ANONYMOUS4872CA3D
    Blend: 6-31G_2DFP_
  Basis Set: (ANONYMOUS4872CA3D AUX)
    Blend: DEF2-UNIVERSAL-JKFIT

    Orbital Energies [Eh]
    ---------------------

    Alpha Occupied:

       1A    -10.180408     2A    -10.167043     3A    -10.167012
       4A    -10.166965     5A     -0.797751     6A     -0.686199
       7A     -0.686140     8A     -0.530781     9A     -0.441182
      10A     -0.434694    11A     -0.434522    12A     -0.382930
      13A     -0.382480    14A     -0.363485    15A     -0.338061
      16A     -0.337754    17A     -0.169144

    Alpha Virtual:

      18A      0.076076    19A      0.134103    20A      0.134200
      21A      0.142399    22A      0.142810    23A      0.154959
      24A      0.178709    25A      0.178981    26A      0.203577
      27A      0.214754    28A      0.275792    29A      0.275833
      30A      0.399083    31A      0.399334    32A      0.403264
      33A      0.423967    34A      0.424172    35A      0.456688
      36A      0.495353    37A      0.495374    38A      0.512207
      39A      0.513882    40A      0.578812    41A      0.579068
      42A      0.591395    43A      0.591908    44A      0.602820
      45A      0.624682    46A      0.631689    47A      0.635883
      48A      0.636321    49A      0.663532    50A      0.663611
      51A      0.683628    52A      0.683856    53A      0.734796
      54A      0.825292    55A      0.825411    56A      0.853917
      57A      0.914642    58A      0.915278    59A      0.944158
      60A      0.944662    61A      0.961240    62A      0.961400
      63A      1.003453    64A      1.127803    65A      1.128611
      66A      1.142221    67A      1.163545    68A      1.163868
      69A      1.223163    70A      1.274321    71A      1.274518
      72A      1.279609    73A      1.324036    74A      1.324176
      75A      1.356212    76A      1.365678    77A      1.365694
      78A      1.392459    79A      1.403596    80A      1.404587
      81A      1.417009    82A      1.417670    83A      1.427976
      84A      1.491319    85A      1.499454    86A      1.542873
      87A      1.542900    88A      1.573680    89A      1.574657
      90A      1.669560    91A      1.739074    92A      1.739263
      93A      1.768382    94A      1.830587    95A      1.831439
      96A      1.971458    97A      2.017291    98A      2.019267
      99A      2.019433   100A      2.052567   101A      2.053491
     102A      2.738280   103A      2.738303   104A      2.791124
     105A      2.811398   106A      2.889532   107A      2.889854
     108A      2.895290   109A      2.929207   110A      2.929821
     111A      2.958922   112A      2.964088   113A      2.964452
     114A      3.034351   115A      3.069801   116A      3.071082
     117A      3.084279   118A      3.168678   119A      3.169130
     120A      3.180548   121A      3.285992   122A      3.286226
     123A      3.326645   124A      3.328406   125A      3.375784
     126A      3.488866   127A      3.490998   128A      3.513829
     129A      3.525798   130A      3.567937   131A      3.568135
     132A      3.575893   133A      3.665355   134A      3.666241
     135A      3.679439   136A      3.693520   137A      3.694828
     138A      3.776456   139A      3.776591   140A      3.787905
     141A      3.912079   142A      3.912334   143A      4.034138
     144A      4.111003   145A      4.111267   146A      4.148046
     147A      4.148124   148A      4.173194   149A      4.202030
     150A      4.203134   151A      4.203837   152A      4.210892
     153A      4.315961   154A      4.316354   155A      4.359457
     156A      4.424225   157A      4.424393   158A      4.443149
     159A      4.516497   160A      4.517751   161A      4.578373
     162A      4.578431   163A      4.617082   164A      4.709723
     165A      4.773852   166A      4.775042   167A      4.835714
     168A      4.962963   169A      5.002555   170A      5.003639
     171A      5.227961   172A      5.246153   173A      5.247252
     174A      5.355193   175A      5.355273   176A      5.478979

    Beta Occupied:

       1A    -10.167793     2A    -10.167766     3A    -10.167734
       4A    -10.166581     5A     -0.781080     6A     -0.683994
       7A     -0.683945     8A     -0.511744     9A     -0.431066
      10A     -0.430872    11A     -0.421911    12A     -0.377031
      13A     -0.376569    14A     -0.362468    15A     -0.333176
      16A     -0.332892

    Beta Virtual:

      17A     -0.025844    18A      0.077080    19A      0.134989
      20A      0.135073    21A      0.144295    22A      0.144661
      23A      0.163408    24A      0.182377    25A      0.182658
      26A      0.214984    27A      0.218936    28A      0.282148
      29A      0.282198    30A      0.400255    31A      0.400499
      32A      0.419685    33A      0.426779    34A      0.426987
      35A      0.468609    36A      0.497617    37A      0.497641
      38A      0.513938    39A      0.556226    40A      0.584343
      41A      0.584611    42A      0.597577    43A      0.598100
      44A      0.610211    45A      0.628082    46A      0.631856
      47A      0.639172    48A      0.639604    49A      0.667090
      50A      0.667187    51A      0.686273    52A      0.686469
      53A      0.757340    54A      0.830467    55A      0.830580
      56A      0.855267    57A      0.922649    58A      0.923235
      59A      0.945993    60A      0.953582    61A      0.966526
      62A      0.966660    63A      1.008712    64A      1.131882
      65A      1.132601    66A      1.155563    67A      1.168585
      68A      1.168974    69A      1.232132    70A      1.279949
      71A      1.280119    72A      1.285370    73A      1.329028
      74A      1.329178    75A      1.365587    76A      1.370907
      77A      1.370960    78A      1.393510    79A      1.407056
      80A      1.408056    81A      1.422033    82A      1.422687
      83A      1.428264    84A      1.492365    85A      1.509901
      86A      1.547191    87A      1.547403    88A      1.581460
      89A      1.582618    90A      1.674422    91A      1.744838
      92A      1.745021    93A      1.779140    94A      1.834438
      95A      1.835282    96A      1.972317    97A      2.025684
      98A      2.025810    99A      2.038671   100A      2.059290
     101A      2.060238   102A      2.746603   103A      2.746650
     104A      2.811819   105A      2.816240   106A      2.902251
     107A      2.902623   108A      2.924956   109A      2.931687
     110A      2.932279   111A      2.959988   112A      2.968641
     113A      2.969004   114A      3.042245   115A      3.079706
     116A      3.081075   117A      3.086091   118A      3.184331
     119A      3.184787   120A      3.188272   121A      3.290713
     122A      3.291024   123A      3.330469   124A      3.332207
     125A      3.383612   126A      3.491637   127A      3.493724
     128A      3.512198   129A      3.528852   130A      3.575490
     131A      3.581402   132A      3.581700   133A      3.670100
     134A      3.670956   135A      3.692723   136A      3.725407
     137A      3.726227   138A      3.781056   139A      3.781139
     140A      3.816425   141A      3.921851   142A      3.922120
     143A      4.045054   144A      4.117833   145A      4.118041
     146A      4.155184   147A      4.155428   148A      4.187212
     149A      4.208803   150A      4.209474   151A      4.210581
     152A      4.215342   153A      4.323451   154A      4.323788
     155A      4.362818   156A      4.432388   157A      4.432578
     158A      4.446033   159A      4.524279   160A      4.525516
     161A      4.588993   162A      4.589080   163A      4.624266
     164A      4.720092   165A      4.780791   166A      4.782041
     167A      4.838642   168A      4.967754   169A      5.006596
     170A      5.007649   171A      5.233678   172A      5.247938
     173A      5.249034   174A      5.361688   175A      5.361755
     176A      5.481307

    Final Occupation by Irrep:
              A
    DOCC [    16 ]
    SOCC [     1 ]

  @DF-UKS Final Energy:  -157.81305858746492

   => Energetics <=

    Nuclear Repulsion Energy =            125.3921963817299883
    One-Electron Energy =                -458.7442158570345327
    Two-Electron Energy =                 195.8460350003744566
    DFT Exchange-Correlation Energy =     -20.3070741125348384
    Empirical Dispersion Energy =           0.0000000000000000
    VV10 Nonlocal Energy =                  0.0000000000000000
    Total Energy =                       -157.8130585874649228

  UHF NO Occupations:
  HONO-2 :   15  A 1.9996024
  HONO-1 :   16  A 1.9989820
  HONO-0 :   17  A 1.0000000
  LUNO+0 :   18  A 0.0010180
  LUNO+1 :   19  A 0.0003976
  LUNO+2 :   20  A 0.0001978
  LUNO+3 :   21  A 0.0001975

Computation Completed

Properties will be evaluated at   0.000000,   0.000000,   0.000000 [a0]

Properties computed using the SCF density matrix

  Nuclear Dipole Moment: [e a0]
     X:     0.8257      Y:    -0.0000      Z:    -0.0003

  Electronic Dipole Moment: [e a0]
     X:    -0.7470      Y:     0.0000      Z:     0.0010

  Dipole Moment: [e a0]
     X:     0.0787      Y:     0.0000      Z:     0.0008     Total:     0.0787

  Dipole Moment: [D]
     X:     0.2000      Y:     0.0000      Z:     0.0019     Total:     0.2000

*** tstop() called on n079 at Fri Nov  5 11:37:46 2021
Module time:
	user time   =     465.57 seconds =       7.76 minutes
	system time =       4.43 seconds =       0.07 minutes
	total time  =        119 seconds =       1.98 minutes
Total time:
	user time   =     465.57 seconds =       7.76 minutes
	system time =       4.43 seconds =       0.07 minutes
	total time  =        119 seconds =       1.98 minutes
Grab this energy -157.81305858746492
    Psi4 stopped on: Friday, 05 November 2021 11:37AM
    Psi4 wall time for execution: 0:01:58.25

*** Psi4 exiting successfully. Buy a developer a beer!
