                               Psi4 1.4a2.dev629

  ==> Input File <==

--------------------------------------------------------------------------
import os
memory 14 GB

molecule {
 C   -0.3201734979    0.0004963918    0.0000000000
 C    0.0631543243   -1.4004745663   -2.4263486672
 C    0.0609681058    2.8016761888    0.0000000000
 C    0.0631543243   -1.4004745663    2.4263486672
 H    2.0845448631   -1.6439474494   -2.8475000939
 H   -0.7644384734   -0.3873498849   -4.0257719550
 H   -0.7666778151   -3.2935403548   -2.3488124394
 H    2.0905899380    3.2873437141    0.0000000000
 H   -0.7685791102    3.6805419511    1.6729696932
 H   -0.7685791102    3.6805419511   -1.6729696932
 H    2.0845448631   -1.6439474494    2.8475000939
 H   -0.7666778151   -3.2935403548    2.3488124394
 H   -0.7644384734   -0.3873498849    4.0257719550
units bohr
0 2
}

basis {

assign 6-31g_2dfp_

[ 6-31g_2dfp_ ]

spherical

!----------------------------------------------------------------------
! Basis Set Exchange
! Version v0.8.13
! https://www.basissetexchange.org
!----------------------------------------------------------------------
!   Basis set: 6-31G(2df,p)
! Description: 6-31G(2df,p)
!        Role: orbital
!     Version: 0  (Data from the original Basis Set Exchange)
!----------------------------------------------------------------------

****
H     0
S    3   1.00
     18.7311370              0.03349460
      2.8253937              0.23472695
      0.6401217              0.81375733
S    1   1.00
      0.1612778              1.00000000
P    1   1.00
      1.5000000              1.0000000
P    1   1.00
      0.3750000              1.0000000
****
B     0
S    6   1.00
   2068.8823000              0.0018663
    310.6495700              0.0142515
     70.6830330              0.0695516
     19.8610800              0.2325729
      6.2993048              0.4670787
      2.1270270              0.3634314
SP   3   1.00
      4.7279710             -0.1303938              0.0745976
      1.1903377             -0.1307889              0.3078467
      0.3594117              1.1309444              0.7434568
SP   1   1.00
      0.1267512              1.0000000              1.0000000
D    1   1.00
      0.8020000              1.0000000
D    1   1.00
      0.2005000              1.0000000
F    1   1.00
      0.5000000              1.0000000
****
C     0
S    6   1.00
   3047.5249000              0.0018347
    457.3695100              0.0140373
    103.9486900              0.0688426
     29.2101550              0.2321844
      9.2866630              0.4679413
      3.1639270              0.3623120
SP   3   1.00
      7.8682724             -0.1193324              0.0689991
      1.8812885             -0.1608542              0.3164240
      0.5442493              1.1434564              0.7443083
SP   1   1.00
      0.1687144              1.0000000              1.0000000
D    1   1.00
      1.2520000              1.0000000
D    1   1.00
      0.3130000              1.0000000
F    1   1.00
      0.8000000              1.0000000
****
N     0
S    6   1.00
   4173.5110000              0.0018348
    627.4579000              0.0139950
    142.9021000              0.0685870
     40.2343300              0.2322410
     12.8202100              0.4690700
      4.3904370              0.3604550
SP   3   1.00
     11.6263580             -0.1149610              0.0675800
      2.7162800             -0.1691180              0.3239070
      0.7722180              1.1458520              0.7408950
SP   1   1.00
      0.2120313              1.0000000              1.0000000
D    1   1.00
      1.8260000              1.0000000
D    1   1.00
      0.4565000              1.0000000
F    1   1.00
      1.0000000              1.0000000
****
O     0
S    6   1.00
   5484.6717000              0.0018311
    825.2349500              0.0139501
    188.0469600              0.0684451
     52.9645000              0.2327143
     16.8975700              0.4701930
      5.7996353              0.3585209
SP   3   1.00
     15.5396160             -0.1107775              0.0708743
      3.5999336             -0.1480263              0.3397528
      1.0137618              1.1307670              0.7271586
SP   1   1.00
      0.2700058              1.0000000              1.0000000
D    1   1.00
      2.5840000              1.0000000
D    1   1.00
      0.6460000              1.0000000
F    1   1.00
      1.4000000              1.0000000
****
F     0
S    6   1.00
   7001.7130900              0.0018196169
   1051.3660900              0.0139160796
    239.2856900              0.0684053245
     67.3974453              0.233185760
     21.5199573              0.471267439
      7.40310130             0.356618546
SP   3   1.00
     20.8479528             -0.108506975            0.0716287243
      4.80830834            -0.146451658            0.3459121030
      1.34406986             1.128688580            0.7224699570
SP   1   1.00
      0.358151393            1.0000000              1.0000000
D    1   1.00
      3.5000000              1.0000000
D    1   1.00
      0.8750000              1.0000000
F    1   1.00
      1.8500000              1.0000000
****
Al     0
S    6   1.00
  13983.1000000              0.00194267
   2098.7500000              0.0148599
    477.7050000              0.0728494
    134.3600000              0.2468300
     42.8709000              0.4872580
     14.5189000              0.3234960
SP   6   1.00
    239.6680000             -0.00292619             0.00460285
     57.4419000             -0.0374080              0.0331990
     18.2859000             -0.1144870              0.1362820
      6.5991400              0.1156350              0.3304760
      2.4904900              0.6125950              0.4491460
      0.9445400              0.3937990              0.2657040
SP   3   1.00
      1.2779000             -0.2276060             -0.0175130
      0.3975900              0.00144583             0.2445330
      0.1600950              1.0927900              0.8049340
SP   1   1.00
      0.0556577              1.0000000              1.0000000
D    1   1.00
      0.6500000              1.0000000
D    1   1.00
      0.1625000              1.0000000
F    1   1.00
      0.2500000              1.0000000
****
Si     0
S    6   1.00
  16115.9000000              0.00195948
   2425.5800000              0.01492880
    553.8670000              0.07284780
    156.3400000              0.24613000
     50.0683000              0.48591400
     17.0178000              0.32500200
SP   6   1.00
    292.7180000             -0.00278094             0.00443826
     69.8731000             -0.03571460             0.03266790
     22.3363000             -0.11498500             0.13472100
      8.1503900              0.09356340             0.32867800
      3.1345800              0.60301700             0.44964000
      1.2254300              0.41895900             0.26137200
SP   3   1.00
      1.7273800             -0.24463000            -0.01779510
      0.5729220              0.00431572             0.25353900
      0.2221920              1.09818000             0.80066900
SP   1   1.00
      0.0778369              1.00000000             1.00000000
D    1   1.00
      0.9000000              1.0000000
D    1   1.00
      0.2250000              1.0000000
F    1   1.00
      0.3200000              1.0000000
****
P     0
S    6   1.00
  19413.3000000              0.0018516
   2909.4200000              0.0142062
    661.3640000              0.0699995
    185.7590000              0.2400790
     59.1943000              0.4847620
     20.0310000              0.3352000
SP   6   1.00
    339.4780000             -0.00278217             0.00456462
     81.0101000             -0.0360499              0.03369360
     25.8780000             -0.1166310              0.13975500
      9.4522100              0.0968328              0.33936200
      3.6656600              0.6144180              0.45092100
      1.4674600              0.4037980              0.23858600
SP   3   1.00
      2.1562300             -0.2529230             -0.01776530
      0.7489970              0.0328517              0.27405800
      0.2831450              1.0812500              0.78542100
SP   1   1.00
      0.0998317              1.0000000              1.00000000
D    1   1.00
      1.1000000              1.0000000
D    1   1.00
      0.2750000              1.0000000
F    1   1.00
      0.4500000              1.0000000
****
S     0
S    6   1.00
  21917.1000000              0.0018690
   3301.4900000              0.0142300
    754.1460000              0.0696960
    212.7110000              0.2384870
     67.9896000              0.4833070
     23.0515000              0.3380740
SP   6   1.00
    423.7350000             -0.0023767              0.0040610
    100.7100000             -0.0316930              0.0306810
     32.1599000             -0.1133170              0.1304520
     11.8079000              0.0560900              0.3272050
      4.6311000              0.5922550              0.4528510
      1.8702500              0.4550060              0.2560420
SP   3   1.00
      2.6158400             -0.2503740             -0.0145110
      0.9221670              0.0669570              0.3102630
      0.3412870              1.0545100              0.7544830
SP   1   1.00
      0.1171670              1.0000000              1.0000000
D    1   1.00
      1.3000000              1.0000000
D    1   1.00
      0.3250000              1.0000000
F    1   1.00
      0.5500000              1.0000000
****
Cl     0
S    6   1.00
  25180.1000000              0.0018330
   3780.3500000              0.0140340
    860.4740000              0.0690970
    242.1450000              0.2374520
     77.3349000              0.4830340
     26.2470000              0.3398560
SP   6   1.00
    491.7650000             -0.0022974              0.0039894
    116.9840000             -0.0307140              0.0303180
     37.4153000             -0.1125280              0.1298800
     13.7834000              0.0450160              0.3279510
      5.4521500              0.5893530              0.4535270
      2.2258800              0.4652060              0.2521540
SP   3   1.00
      3.1864900             -0.2518300             -0.0142990
      1.1442700              0.0615890              0.3235720
      0.4203770              1.0601800              0.7435070
SP   1   1.00
      0.1426570              1.0000000              1.0000000
D    1   1.00
      1.5000000              1.0000000
D    1   1.00
      0.3750000              1.0000000
F    1   1.00
      0.7000000              1.0000000
****
}

set {
reference uhf
freeze_core true
e_convergence 10
d_convergence 10
dft_spherical_points 1202
dft_radial_points 99
}

e = energy('b3lyp')

print_out('Grab this energy {0}'.format(e))
--------------------------------------------------------------------------

    Molecular point group: cs

    Geometry (in Bohr), charge = 0, multiplicity = 2:

       Center              X                  Y                   Z               Mass
    ------------   -----------------  -----------------  -----------------  -----------------
         C           -0.321549337633     0.000261176270     0.000000000000    12.000000000000
         C            0.061778484567    -1.400709781830    -2.426348667200    12.000000000000
         C            0.059592266067     2.801440973270     0.000000000000    12.000000000000
         C            0.061778484567    -1.400709781830     2.426348667200    12.000000000000
         H            2.083169023367    -1.644182664930    -2.847500093900     1.007825032230
         H           -0.765814313133    -0.387585100430    -4.025771955000     1.007825032230
         H           -0.768053654833    -3.293775570330    -2.348812439400     1.007825032230
         H            2.089214098267     3.287108498570     0.000000000000     1.007825032230
         H           -0.769954949933     3.680306735570     1.672969693200     1.007825032230
         H           -0.769954949933     3.680306735570    -1.672969693200     1.007825032230
         H            2.083169023367    -1.644182664930     2.847500093900     1.007825032230
         H           -0.768053654833    -3.293775570330     2.348812439400     1.007825032230
         H           -0.765814313133    -0.387585100430     4.025771955000     1.007825032230

  Charge       = 0
  Multiplicity = 2
  Basis Set: ANONYMOUSC715F92E
    Blend: 6-31G_2DFP_
  Basis Set: (ANONYMOUSC715F92E AUX)
    Blend: DEF2-UNIVERSAL-JKFIT

    Orbital Energies [Eh]
    ---------------------

    Alpha Occupied:

       1Ap   -10.180229     2Ap   -10.167025     1App  -10.166993
       3Ap   -10.166955     4Ap    -0.797820     2App   -0.686201
       5Ap    -0.686200     6Ap    -0.530756     7Ap    -0.441361
       3App   -0.434548     8Ap    -0.434501     4App   -0.382868
       9Ap    -0.382824     5App   -0.363329    10Ap    -0.337981
       6App   -0.337918    11Ap    -0.168846

    Alpha Virtual:

      12Ap     0.076054    13Ap     0.133978     7App    0.134315
      14Ap     0.142485     8App    0.142605    15Ap     0.154945
      16Ap     0.178797     9App    0.178972    17Ap     0.203594
      10App    0.214671    11App    0.276048    18Ap     0.276201
      12App    0.399215    19Ap     0.399277    20Ap     0.403383
      21Ap     0.424019    13App    0.424187    22Ap     0.456596
      14App    0.495195    23Ap     0.495480    15App    0.512265
      24Ap     0.513978    25Ap     0.578550    16App    0.578901
      26Ap     0.591779    17App    0.592091    27Ap     0.602891
      28Ap     0.624620    18App    0.631616    29Ap     0.636014
      19App    0.636236    30Ap     0.663220    20App    0.663961
      21App    0.683655    31Ap     0.684005    32Ap     0.735124
      22App    0.825552    33Ap     0.825600    23App    0.853874
      34Ap     0.914979    24App    0.915404    25App    0.944230
      35Ap     0.944627    36Ap     0.961083    26App    0.961324
      37Ap     1.002572    38Ap     1.127805    27App    1.127935
      39Ap     1.142585    40Ap     1.163311    28App    1.163548
      41Ap     1.223744    42Ap     1.274610    29App    1.274925
      43Ap     1.279519    44Ap     1.324197    30App    1.324286
      45Ap     1.356993    46Ap     1.365682    31App    1.365723
      32App    1.392374    47Ap     1.404219    33App    1.405141
      34App    1.417177    48Ap     1.418273    35App    1.428095
      36App    1.491025    49Ap     1.499580    50Ap     1.541980
      37App    1.542890    38App    1.574216    51Ap     1.574530
      52Ap     1.669286    53Ap     1.739431    39App    1.739789
      54Ap     1.768562    40App    1.830268    55Ap     1.831879
      41App    1.971155    56Ap     2.018302    57Ap     2.019178
      42App    2.019787    58Ap     2.052088    43App    2.053974
      59Ap     2.738408    44App    2.739225    60Ap     2.791146
      45App    2.811148    61Ap     2.890105    46App    2.890125
      62Ap     2.894934    63Ap     2.929333    47App    2.929364
      48App    2.958835    64Ap     2.964070    49App    2.964742
      65Ap     3.034058    66Ap     3.071889    50App    3.071909
      51App    3.084305    52App    3.168589    67Ap     3.169009
      68Ap     3.180403    53App    3.284638    69Ap     3.285290
      54App    3.326035    70Ap     3.326428    71Ap     3.375922
      55App    3.490174    72Ap     3.490519    56App    3.514473
      73Ap     3.525167    57App    3.568679    74Ap     3.568946
      58App    3.575610    75Ap     3.665675    59App    3.667119
      76Ap     3.678618    60App    3.694262    77Ap     3.694573
      78Ap     3.777681    61App    3.777686    79Ap     3.790446
      62App    3.912023    80Ap     3.912225    81Ap     4.035611
      82Ap     4.110533    63App    4.111440    64App    4.147298
      83Ap     4.148440    84Ap     4.173361    65App    4.202559
      85Ap     4.202696    86Ap     4.204529    66App    4.211010
      87Ap     4.315365    67App    4.317028    68App    4.358863
      69App    4.424743    88Ap     4.425407    70App    4.442556
      89Ap     4.516022    71App    4.517422    72App    4.578053
      90Ap     4.578292    91Ap     4.618386    92Ap     4.709899
      93Ap     4.774385    73App    4.775303    74App    4.837130
      94Ap     4.962800    95Ap     5.002914    75App    5.004388
      96Ap     5.228090    97Ap     5.244733    76App    5.248839
      98Ap     5.353888    77App    5.356301    78App    5.479888

    Beta Occupied:

       1Ap   -10.167783     1App  -10.167746     2Ap   -10.167725
       3Ap   -10.166404     4Ap    -0.781129     5Ap    -0.684004
       2App   -0.683994     6Ap    -0.511723     3App   -0.430901
       7Ap    -0.430872     8Ap    -0.422061     4App   -0.376987
       9Ap    -0.376899     5App   -0.362312    10Ap    -0.333100
       6App   -0.333051

    Beta Virtual:

      11Ap    -0.025595    12Ap     0.077062    13Ap     0.134847
       7App    0.135162    14Ap     0.144391     8App    0.144459
      15Ap     0.163371    16Ap     0.182460     9App    0.182672
      10App    0.214904    17Ap     0.218998    11App    0.282381
      18Ap     0.282540    12App    0.400381    19Ap     0.400441
      20Ap     0.419770    21Ap     0.426835    13App    0.427001
      22Ap     0.468568    14App    0.497447    23Ap     0.497749
      15App    0.513996    24Ap     0.556369    25Ap     0.584124
      16App    0.584445    26Ap     0.597920    17App    0.598278
      27Ap     0.610286    28Ap     0.628029    18App    0.631781
      29Ap     0.639317    19App    0.639530    30Ap     0.666789
      20App    0.667466    21App    0.686311    31Ap     0.686624
      32Ap     0.757640    22App    0.830698    33Ap     0.830750
      23App    0.855226    34Ap     0.922960    24App    0.923356
      25App    0.946067    35Ap     0.953591    36Ap     0.966378
      26App    0.966677    37Ap     1.007764    38Ap     1.131998
      27App    1.132008    39Ap     1.155950    40Ap     1.168291
      28App    1.168595    41Ap     1.232723    42Ap     1.280176
      29App    1.280517    43Ap     1.285283    44Ap     1.329130
      30App    1.329216    45Ap     1.366421    31App    1.370916
      46Ap     1.370970    32App    1.393420    47Ap     1.407667
      33App    1.408665    34App    1.422224    48Ap     1.423355
      35App    1.428382    36App    1.492070    49Ap     1.510044
      50Ap     1.546298    37App    1.547179    38App    1.582202
      51Ap     1.582487    52Ap     1.674147    53Ap     1.745192
      39App    1.745541    54Ap     1.779329    40App    1.834121
      55Ap     1.835749    41App    1.972018    56Ap     2.025304
      42App    2.026262    57Ap     2.039922    58Ap     2.058830
      43App    2.060621    59Ap     2.746750    44App    2.747548
      45App    2.811560    60Ap     2.816334    46App    2.902747
      61Ap     2.902856    62Ap     2.924700    63Ap     2.931808
      47App    2.931900    48App    2.959896    64Ap     2.968590
      49App    2.969285    65Ap     3.041952    66Ap     3.081680
      50App    3.081862    51App    3.086143    52App    3.184309
      67Ap     3.184929    68Ap     3.188036    53App    3.289471
      69Ap     3.290143    54App    3.329799    70Ap     3.330241
      71Ap     3.383778    55App    3.492936    72Ap     3.493203
      56App    3.512837    73Ap     3.528250    57App    3.575458
      58App    3.581920    74Ap     3.582261    75Ap     3.670441
      59App    3.671993    76Ap     3.691932    60App    3.725854
      77Ap     3.726183    78Ap     3.782111    61App    3.782237
      79Ap     3.818961    62App    3.921816    80Ap     3.922060
      81Ap     4.046486    82Ap     4.117392    63App    4.118255
      64App    4.154544    83Ap     4.155587    84Ap     4.187383
      65App    4.208448    85Ap     4.209770    86Ap     4.211442
      66App    4.215447    87Ap     4.322814    67App    4.324482
      68App    4.362211    69App    4.432898    88Ap     4.433565
      70App    4.445465    89Ap     4.523810    71App    4.525212
      72App    4.588667    90Ap     4.588927    91Ap     4.625655
      92Ap     4.720152    93Ap     4.781361    73App    4.782280
      74App    4.840049    94Ap     4.967579    95Ap     5.006960
      75App    5.008396    96Ap     5.233835    97Ap     5.246540
      76App    5.250621    98Ap     5.360376    77App    5.362808
      78App    5.482210

    Final Occupation by Irrep:
             Ap   App
    DOCC [    10,    6 ]
    SOCC [     1,    0 ]

  @DF-UKS Final Energy:  -157.81306494900724

   => Energetics <=

    Nuclear Repulsion Energy =            125.4033799062224688
    One-Electron Energy =                -458.7664998732242339
    Two-Electron Energy =                 195.8574558469849762
    DFT Exchange-Correlation Energy =     -20.3074008289904739
    Empirical Dispersion Energy =           0.0000000000000000
    VV10 Nonlocal Energy =                  0.0000000000000000
    Total Energy =                       -157.8130649490072415

  UHF NO Occupations:
  HONO-2 :    9 Ap 1.9996018
  HONO-1 :   10 Ap 1.9989796
  HONO-0 :   11 Ap 1.0000000
  LUNO+0 :   12 Ap 0.0010204
  LUNO+1 :   13 Ap 0.0003982
  LUNO+2 :   14 Ap 0.0001975
  LUNO+3 :    7App 0.0001975

Computation Completed

Properties will be evaluated at   0.000000,   0.000000,   0.000000 [a0]

Properties computed using the SCF density matrix

  Nuclear Dipole Moment: [e a0]
     X:     0.8175      Y:    -0.0017      Z:     0.0000

  Electronic Dipole Moment: [e a0]
     X:    -0.7395      Y:     0.0023      Z:     0.0000

  Dipole Moment: [e a0]
     X:     0.0780      Y:     0.0006      Z:     0.0000     Total:     0.0780

  Dipole Moment: [D]
     X:     0.1983      Y:     0.0017      Z:     0.0000     Total:     0.1983

*** tstop() called on n035 at Fri Nov  5 13:32:30 2021
Module time:
	user time   =     633.17 seconds =      10.55 minutes
	system time =      12.02 seconds =       0.20 minutes
	total time  =        162 seconds =       2.70 minutes
Total time:
	user time   =     633.17 seconds =      10.55 minutes
	system time =      12.02 seconds =       0.20 minutes
	total time  =        162 seconds =       2.70 minutes
Grab this energy -157.81306494900724
    Psi4 stopped on: Friday, 05 November 2021 01:32PM
    Psi4 wall time for execution: 0:02:42.24

*** Psi4 exiting successfully. Buy a developer a beer!
