                               Psi4 1.4a2.dev629

  ==> Input File <==

--------------------------------------------------------------------------
import os
memory 14 GB

molecule {
 C   -0.3233318161   -0.0050086793    0.0004937874
 C    0.0607554236   -1.3978321554   -2.4318361213
 C    0.0616264573    2.7938389258    0.0000378449
 C    0.0609219786   -1.3985343037    2.4331473367
 H    2.0901684607   -1.6377949476   -2.8558486727
 H   -0.7701684651   -0.3769273601   -4.0297556659
 H   -0.7656350963   -3.2932530261   -2.3606515448
 H    2.0875787879    3.2789412057   -0.0000299636
 H   -0.7646799213    3.6718290361    1.6759726192
 H   -0.7644962155    3.6728143639   -1.6766367815
 H    2.0829239683   -1.6382518621    2.8565806111
 H   -0.7617859882   -3.2872553973    2.3636189463
 H   -0.7664854505   -0.3825901136    4.0249076042
units bohr
0 2
}

basis {

assign 6-31g_2dfp_

[ 6-31g_2dfp_ ]

spherical

!----------------------------------------------------------------------
! Basis Set Exchange
! Version v0.8.13
! https://www.basissetexchange.org
!----------------------------------------------------------------------
!   Basis set: 6-31G(2df,p)
! Description: 6-31G(2df,p)
!        Role: orbital
!     Version: 0  (Data from the original Basis Set Exchange)
!----------------------------------------------------------------------

****
H     0
S    3   1.00
     18.7311370              0.03349460
      2.8253937              0.23472695
      0.6401217              0.81375733
S    1   1.00
      0.1612778              1.00000000
P    1   1.00
      1.5000000              1.0000000
P    1   1.00
      0.3750000              1.0000000
****
B     0
S    6   1.00
   2068.8823000              0.0018663
    310.6495700              0.0142515
     70.6830330              0.0695516
     19.8610800              0.2325729
      6.2993048              0.4670787
      2.1270270              0.3634314
SP   3   1.00
      4.7279710             -0.1303938              0.0745976
      1.1903377             -0.1307889              0.3078467
      0.3594117              1.1309444              0.7434568
SP   1   1.00
      0.1267512              1.0000000              1.0000000
D    1   1.00
      0.8020000              1.0000000
D    1   1.00
      0.2005000              1.0000000
F    1   1.00
      0.5000000              1.0000000
****
C     0
S    6   1.00
   3047.5249000              0.0018347
    457.3695100              0.0140373
    103.9486900              0.0688426
     29.2101550              0.2321844
      9.2866630              0.4679413
      3.1639270              0.3623120
SP   3   1.00
      7.8682724             -0.1193324              0.0689991
      1.8812885             -0.1608542              0.3164240
      0.5442493              1.1434564              0.7443083
SP   1   1.00
      0.1687144              1.0000000              1.0000000
D    1   1.00
      1.2520000              1.0000000
D    1   1.00
      0.3130000              1.0000000
F    1   1.00
      0.8000000              1.0000000
****
N     0
S    6   1.00
   4173.5110000              0.0018348
    627.4579000              0.0139950
    142.9021000              0.0685870
     40.2343300              0.2322410
     12.8202100              0.4690700
      4.3904370              0.3604550
SP   3   1.00
     11.6263580             -0.1149610              0.0675800
      2.7162800             -0.1691180              0.3239070
      0.7722180              1.1458520              0.7408950
SP   1   1.00
      0.2120313              1.0000000              1.0000000
D    1   1.00
      1.8260000              1.0000000
D    1   1.00
      0.4565000              1.0000000
F    1   1.00
      1.0000000              1.0000000
****
O     0
S    6   1.00
   5484.6717000              0.0018311
    825.2349500              0.0139501
    188.0469600              0.0684451
     52.9645000              0.2327143
     16.8975700              0.4701930
      5.7996353              0.3585209
SP   3   1.00
     15.5396160             -0.1107775              0.0708743
      3.5999336             -0.1480263              0.3397528
      1.0137618              1.1307670              0.7271586
SP   1   1.00
      0.2700058              1.0000000              1.0000000
D    1   1.00
      2.5840000              1.0000000
D    1   1.00
      0.6460000              1.0000000
F    1   1.00
      1.4000000              1.0000000
****
F     0
S    6   1.00
   7001.7130900              0.0018196169
   1051.3660900              0.0139160796
    239.2856900              0.0684053245
     67.3974453              0.233185760
     21.5199573              0.471267439
      7.40310130             0.356618546
SP   3   1.00
     20.8479528             -0.108506975            0.0716287243
      4.80830834            -0.146451658            0.3459121030
      1.34406986             1.128688580            0.7224699570
SP   1   1.00
      0.358151393            1.0000000              1.0000000
D    1   1.00
      3.5000000              1.0000000
D    1   1.00
      0.8750000              1.0000000
F    1   1.00
      1.8500000              1.0000000
****
Al     0
S    6   1.00
  13983.1000000              0.00194267
   2098.7500000              0.0148599
    477.7050000              0.0728494
    134.3600000              0.2468300
     42.8709000              0.4872580
     14.5189000              0.3234960
SP   6   1.00
    239.6680000             -0.00292619             0.00460285
     57.4419000             -0.0374080              0.0331990
     18.2859000             -0.1144870              0.1362820
      6.5991400              0.1156350              0.3304760
      2.4904900              0.6125950              0.4491460
      0.9445400              0.3937990              0.2657040
SP   3   1.00
      1.2779000             -0.2276060             -0.0175130
      0.3975900              0.00144583             0.2445330
      0.1600950              1.0927900              0.8049340
SP   1   1.00
      0.0556577              1.0000000              1.0000000
D    1   1.00
      0.6500000              1.0000000
D    1   1.00
      0.1625000              1.0000000
F    1   1.00
      0.2500000              1.0000000
****
Si     0
S    6   1.00
  16115.9000000              0.00195948
   2425.5800000              0.01492880
    553.8670000              0.07284780
    156.3400000              0.24613000
     50.0683000              0.48591400
     17.0178000              0.32500200
SP   6   1.00
    292.7180000             -0.00278094             0.00443826
     69.8731000             -0.03571460             0.03266790
     22.3363000             -0.11498500             0.13472100
      8.1503900              0.09356340             0.32867800
      3.1345800              0.60301700             0.44964000
      1.2254300              0.41895900             0.26137200
SP   3   1.00
      1.7273800             -0.24463000            -0.01779510
      0.5729220              0.00431572             0.25353900
      0.2221920              1.09818000             0.80066900
SP   1   1.00
      0.0778369              1.00000000             1.00000000
D    1   1.00
      0.9000000              1.0000000
D    1   1.00
      0.2250000              1.0000000
F    1   1.00
      0.3200000              1.0000000
****
P     0
S    6   1.00
  19413.3000000              0.0018516
   2909.4200000              0.0142062
    661.3640000              0.0699995
    185.7590000              0.2400790
     59.1943000              0.4847620
     20.0310000              0.3352000
SP   6   1.00
    339.4780000             -0.00278217             0.00456462
     81.0101000             -0.0360499              0.03369360
     25.8780000             -0.1166310              0.13975500
      9.4522100              0.0968328              0.33936200
      3.6656600              0.6144180              0.45092100
      1.4674600              0.4037980              0.23858600
SP   3   1.00
      2.1562300             -0.2529230             -0.01776530
      0.7489970              0.0328517              0.27405800
      0.2831450              1.0812500              0.78542100
SP   1   1.00
      0.0998317              1.0000000              1.00000000
D    1   1.00
      1.1000000              1.0000000
D    1   1.00
      0.2750000              1.0000000
F    1   1.00
      0.4500000              1.0000000
****
S     0
S    6   1.00
  21917.1000000              0.0018690
   3301.4900000              0.0142300
    754.1460000              0.0696960
    212.7110000              0.2384870
     67.9896000              0.4833070
     23.0515000              0.3380740
SP   6   1.00
    423.7350000             -0.0023767              0.0040610
    100.7100000             -0.0316930              0.0306810
     32.1599000             -0.1133170              0.1304520
     11.8079000              0.0560900              0.3272050
      4.6311000              0.5922550              0.4528510
      1.8702500              0.4550060              0.2560420
SP   3   1.00
      2.6158400             -0.2503740             -0.0145110
      0.9221670              0.0669570              0.3102630
      0.3412870              1.0545100              0.7544830
SP   1   1.00
      0.1171670              1.0000000              1.0000000
D    1   1.00
      1.3000000              1.0000000
D    1   1.00
      0.3250000              1.0000000
F    1   1.00
      0.5500000              1.0000000
****
Cl     0
S    6   1.00
  25180.1000000              0.0018330
   3780.3500000              0.0140340
    860.4740000              0.0690970
    242.1450000              0.2374520
     77.3349000              0.4830340
     26.2470000              0.3398560
SP   6   1.00
    491.7650000             -0.0022974              0.0039894
    116.9840000             -0.0307140              0.0303180
     37.4153000             -0.1125280              0.1298800
     13.7834000              0.0450160              0.3279510
      5.4521500              0.5893530              0.4535270
      2.2258800              0.4652060              0.2521540
SP   3   1.00
      3.1864900             -0.2518300             -0.0142990
      1.1442700              0.0615890              0.3235720
      0.4203770              1.0601800              0.7435070
SP   1   1.00
      0.1426570              1.0000000              1.0000000
D    1   1.00
      1.5000000              1.0000000
D    1   1.00
      0.3750000              1.0000000
F    1   1.00
      0.7000000              1.0000000
****
}

set {
reference uhf
freeze_core true
e_convergence 10
d_convergence 10
dft_spherical_points 1202
dft_radial_points 99
}

e = energy('b3lyp')

print_out('Grab this energy {0}'.format(e))
--------------------------------------------------------------------------

    Molecular point group: c1

    Geometry (in Bohr), charge = 0, multiplicity = 2:

       Center              X                  Y                   Z               Mass
    ------------   -----------------  -----------------  -----------------  -----------------
         C           -0.323334132828    -0.003556721109     0.000138841660    12.000000000000
         C            0.060753106872    -1.396380197209    -2.432191067040    12.000000000000
         C            0.061624140572     2.795290883991    -0.000317100840    12.000000000000
         C            0.060919661872    -1.397082345509     2.432792390960    12.000000000000
         H            2.090166143972    -1.636342989409    -2.856203618440     1.007825032230
         H           -0.770170781828    -0.375475401909    -4.030110611640     1.007825032230
         H           -0.765637413028    -3.291801067909    -2.361006490540     1.007825032230
         H            2.087576471172     3.280393163891    -0.000384909340     1.007825032230
         H           -0.764682238028     3.673280994291     1.675617673460     1.007825032230
         H           -0.764498532228     3.674266322091    -1.676991727240     1.007825032230
         H            2.082921651572    -1.636799903909     2.856225665360     1.007825032230
         H           -0.761788304928    -3.285803439109     2.363264000560     1.007825032230
         H           -0.766487767228    -0.381138155409     4.024552658460     1.007825032230

  Charge       = 0
  Multiplicity = 2
  Basis Set: ANONYMOUS348341D4
    Blend: 6-31G_2DFP_
  Basis Set: (ANONYMOUS348341D4 AUX)
    Blend: DEF2-UNIVERSAL-JKFIT

    Orbital Energies [Eh]
    ---------------------

    Alpha Occupied:

       1A    -10.180342     2A    -10.167751     3A    -10.166706
       4A    -10.166588     5A     -0.797770     6A     -0.686578
       7A     -0.685795     8A     -0.530776     9A     -0.441127
      10A     -0.434950    11A     -0.434393    12A     -0.382863
      13A     -0.382333    14A     -0.363612    15A     -0.338270
      16A     -0.337724    17A     -0.168961

    Alpha Virtual:

      18A      0.076070    19A      0.133910    20A      0.134386
      21A      0.142462    22A      0.142806    23A      0.154876
      24A      0.178390    25A      0.179172    26A      0.203544
      27A      0.214810    28A      0.275810    29A      0.276162
      30A      0.399069    31A      0.399318    32A      0.403417
      33A      0.423937    34A      0.424267    35A      0.456594
      36A      0.494981    37A      0.495790    38A      0.512173
      39A      0.513986    40A      0.578530    41A      0.579073
      42A      0.591318    43A      0.591938    44A      0.602594
      45A      0.624771    46A      0.631679    47A      0.635898
      48A      0.636694    49A      0.663134    50A      0.663698
      51A      0.683472    52A      0.684253    53A      0.734993
      54A      0.824485    55A      0.826307    56A      0.853916
      57A      0.914792    58A      0.915264    59A      0.944058
      60A      0.944514    61A      0.961048    62A      0.961749
      63A      1.003471    64A      1.126923    65A      1.129315
      66A      1.142215    67A      1.162778    68A      1.163753
      69A      1.223332    70A      1.273942    71A      1.275047
      72A      1.279353    73A      1.323986    74A      1.324715
      75A      1.355978    76A      1.365222    77A      1.366833
      78A      1.392426    79A      1.403205    80A      1.404964
      81A      1.416520    82A      1.417713    83A      1.427933
      84A      1.491432    85A      1.499070    86A      1.542497
      87A      1.543181    88A      1.572650    89A      1.576357
      90A      1.669794    91A      1.738336    92A      1.740432
      93A      1.768361    94A      1.829779    95A      1.833095
      96A      1.971697    97A      2.017374    98A      2.018506
      99A      2.020463   100A      2.050179   101A      2.055252
     102A      2.737965   103A      2.739005   104A      2.790921
     105A      2.811442   106A      2.889653   107A      2.890193
     108A      2.894987   109A      2.929293   110A      2.929691
     111A      2.958999   112A      2.963377   113A      2.965421
     114A      3.034023   115A      3.070246   116A      3.072288
     117A      3.084412   118A      3.168040   119A      3.169563
     120A      3.180567   121A      3.284600   122A      3.286022
     123A      3.326229   124A      3.328107   125A      3.375657
     126A      3.489161   127A      3.491084   128A      3.514036
     129A      3.525322   130A      3.567086   131A      3.569539
     132A      3.575390   133A      3.665588   134A      3.667106
     135A      3.679656   136A      3.693460   137A      3.694795
     138A      3.775714   139A      3.777830   140A      3.789285
     141A      3.910734   142A      3.913707   143A      4.034457
     144A      4.109762   145A      4.112876   146A      4.145493
     147A      4.150618   148A      4.173301   149A      4.199879
     150A      4.203749   151A      4.205065   152A      4.211268
     153A      4.315237   154A      4.316652   155A      4.358971
     156A      4.423985   157A      4.424715   158A      4.443662
     159A      4.515987   160A      4.517689   161A      4.577104
     162A      4.579470   163A      4.617536   164A      4.709475
     165A      4.773264   166A      4.775941   167A      4.836912
     168A      4.962863   169A      5.001847   170A      5.004117
     171A      5.227825   172A      5.243097   173A      5.250519
     174A      5.352546   175A      5.358651   176A      5.479415

    Beta Occupied:

       1A    -10.168512     2A    -10.167468     3A    -10.167348
       4A    -10.166516     5A     -0.781096     6A     -0.684382
       7A     -0.683596     8A     -0.511747     9A     -0.431332
      10A     -0.430754    11A     -0.421824    12A     -0.376961
      13A     -0.376405    14A     -0.362595    15A     -0.333396
      16A     -0.332844

    Beta Virtual:

      17A     -0.025744    18A      0.077079    19A      0.134783
      20A      0.135294    21A      0.144362    22A      0.144646
      23A      0.163335    24A      0.182063    25A      0.182841
      26A      0.215040    27A      0.218926    28A      0.282146
      29A      0.282522    30A      0.400257    31A      0.400530
      32A      0.419799    33A      0.426733    34A      0.427093
      35A      0.468505    36A      0.497237    37A      0.498058
      38A      0.513909    39A      0.556327    40A      0.584101
      41A      0.584604    42A      0.597521    43A      0.598095
      44A      0.610009    45A      0.628153    46A      0.631880
      47A      0.639154    48A      0.639966    49A      0.666668
      50A      0.667288    51A      0.686100    52A      0.686897
      53A      0.757516    54A      0.829632    55A      0.831495
      56A      0.855271    57A      0.922751    58A      0.923245
      59A      0.945917    60A      0.953426    61A      0.966345
      62A      0.967063    63A      1.008708    64A      1.130956
      65A      1.133343    66A      1.155584    67A      1.167818
      68A      1.168865    69A      1.232302    70A      1.279535
      71A      1.280649    72A      1.285106    73A      1.328926
      74A      1.329754    75A      1.365385    76A      1.370376
      77A      1.372169    78A      1.393490    79A      1.406694
      80A      1.408412    81A      1.421539    82A      1.422784
      83A      1.428207    84A      1.492484    85A      1.509512
      86A      1.546799    87A      1.547690    88A      1.580661
      89A      1.584091    90A      1.674639    91A      1.744107
      92A      1.746191    93A      1.779135    94A      1.833658
      95A      1.836928    96A      1.972563    97A      2.023945
      98A      2.026921    99A      2.039634   100A      2.056989
     101A      2.061884   102A      2.746265   103A      2.747378
     104A      2.811854   105A      2.816057   106A      2.902429
     107A      2.902824   108A      2.924655   109A      2.931883
     110A      2.932073   111A      2.960069   112A      2.967924
     113A      2.969956   114A      3.041958   115A      3.079957
     116A      3.082245   117A      3.086392   118A      3.183870
     119A      3.185194   120A      3.188273   121A      3.289466
     122A      3.290758   123A      3.330026   124A      3.331920
     125A      3.383474   126A      3.491915   127A      3.493783
     128A      3.512412   129A      3.528374   130A      3.574683
     131A      3.580900   132A      3.582965   133A      3.670280
     134A      3.671920   135A      3.692977   136A      3.725112
     137A      3.726361   138A      3.780305   139A      3.782364
     140A      3.817759   141A      3.920556   142A      3.923519
     143A      4.045339   144A      4.116674   145A      4.119569
     146A      4.152916   147A      4.157650   148A      4.187353
     149A      4.206267   150A      4.210429   151A      4.211817
     152A      4.215770   153A      4.322800   154A      4.323964
     155A      4.362336   156A      4.432174   157A      4.432867
     158A      4.446640   159A      4.523885   160A      4.525365
     161A      4.587648   162A      4.590127   163A      4.624728
     164A      4.719820   165A      4.780175   166A      4.782933
     167A      4.839831   168A      4.967658   169A      5.005894
     170A      5.008148   171A      5.233535   172A      5.244884
     173A      5.252310   174A      5.359034   175A      5.365119
     176A      5.481736

    Final Occupation by Irrep:
              A
    DOCC [    16 ]
    SOCC [     1 ]

  @DF-UKS Final Energy:  -157.81304925521701

   => Energetics <=

    Nuclear Repulsion Energy =            125.3949023907969575
    One-Electron Energy =                -458.7494153896249713
    Two-Electron Energy =                 195.8486144009663121
    DFT Exchange-Correlation Energy =     -20.3071506573553293
    Empirical Dispersion Energy =           0.0000000000000000
    VV10 Nonlocal Energy =                  0.0000000000000000
    Total Energy =                       -157.8130492552170097

  UHF NO Occupations:
  HONO-2 :   15  A 1.9996009
  HONO-1 :   16  A 1.9989804
  HONO-0 :   17  A 1.0000000
  LUNO+0 :   18  A 0.0010196
  LUNO+1 :   19  A 0.0003991
  LUNO+2 :   20  A 0.0001979
  LUNO+3 :   21  A 0.0001972

Computation Completed

Properties will be evaluated at   0.000000,   0.000000,   0.000000 [a0]

Properties computed using the SCF density matrix

  Nuclear Dipole Moment: [e a0]
     X:     0.8272      Y:     0.0102      Z:    -0.0025

  Electronic Dipole Moment: [e a0]
     X:    -0.7493      Y:    -0.0109      Z:     0.0049

  Dipole Moment: [e a0]
     X:     0.0779      Y:    -0.0007      Z:     0.0025     Total:     0.0780

  Dipole Moment: [D]
     X:     0.1980      Y:    -0.0019      Z:     0.0062     Total:     0.1981

*** tstop() called on n065 at Fri Nov  5 15:08:51 2021
Module time:
	user time   =     541.74 seconds =       9.03 minutes
	system time =      11.98 seconds =       0.20 minutes
	total time  =        139 seconds =       2.32 minutes
Total time:
	user time   =     541.74 seconds =       9.03 minutes
	system time =      11.98 seconds =       0.20 minutes
	total time  =        139 seconds =       2.32 minutes
Grab this energy -157.813049255217
    Psi4 stopped on: Friday, 05 November 2021 03:08PM
    Psi4 wall time for execution: 0:02:19.24

*** Psi4 exiting successfully. Buy a developer a beer!
