                               Psi4 1.4a2.dev629

  ==> Input File <==

--------------------------------------------------------------------------
import os
memory 14 GB

molecule {
 C   -0.3233403205   -0.0004957134   -0.0000000000
 C    0.0611885410   -1.4011220777   -2.4267346094
 C    0.0609234833    2.8009024497   -0.0000000000
 C    0.0611885410   -1.4011220777    2.4267346094
 H    2.0848471715   -1.6442006697   -2.8476682510
 H   -0.7642400851   -0.3898088847   -4.0247588818
 H   -0.7645599407   -3.2896596453   -2.3495438717
 H    2.0909812762    3.2876050585    0.0000000000
 H   -0.7678218445    3.6807732232    1.6805431494
 H   -0.7678218445    3.6807732232   -1.6805431494
 H    2.0848471715   -1.6442006697    2.8476682510
 H   -0.7645599407   -3.2896596453    2.3495438717
 H   -0.7642400851   -0.3898088847    4.0247588818
units bohr
0 2
}

basis {

assign 6-31g_2dfp_

[ 6-31g_2dfp_ ]

spherical

!----------------------------------------------------------------------
! Basis Set Exchange
! Version v0.8.13
! https://www.basissetexchange.org
!----------------------------------------------------------------------
!   Basis set: 6-31G(2df,p)
! Description: 6-31G(2df,p)
!        Role: orbital
!     Version: 0  (Data from the original Basis Set Exchange)
!----------------------------------------------------------------------

****
H     0
S    3   1.00
     18.7311370              0.03349460
      2.8253937              0.23472695
      0.6401217              0.81375733
S    1   1.00
      0.1612778              1.00000000
P    1   1.00
      1.5000000              1.0000000
P    1   1.00
      0.3750000              1.0000000
****
B     0
S    6   1.00
   2068.8823000              0.0018663
    310.6495700              0.0142515
     70.6830330              0.0695516
     19.8610800              0.2325729
      6.2993048              0.4670787
      2.1270270              0.3634314
SP   3   1.00
      4.7279710             -0.1303938              0.0745976
      1.1903377             -0.1307889              0.3078467
      0.3594117              1.1309444              0.7434568
SP   1   1.00
      0.1267512              1.0000000              1.0000000
D    1   1.00
      0.8020000              1.0000000
D    1   1.00
      0.2005000              1.0000000
F    1   1.00
      0.5000000              1.0000000
****
C     0
S    6   1.00
   3047.5249000              0.0018347
    457.3695100              0.0140373
    103.9486900              0.0688426
     29.2101550              0.2321844
      9.2866630              0.4679413
      3.1639270              0.3623120
SP   3   1.00
      7.8682724             -0.1193324              0.0689991
      1.8812885             -0.1608542              0.3164240
      0.5442493              1.1434564              0.7443083
SP   1   1.00
      0.1687144              1.0000000              1.0000000
D    1   1.00
      1.2520000              1.0000000
D    1   1.00
      0.3130000              1.0000000
F    1   1.00
      0.8000000              1.0000000
****
N     0
S    6   1.00
   4173.5110000              0.0018348
    627.4579000              0.0139950
    142.9021000              0.0685870
     40.2343300              0.2322410
     12.8202100              0.4690700
      4.3904370              0.3604550
SP   3   1.00
     11.6263580             -0.1149610              0.0675800
      2.7162800             -0.1691180              0.3239070
      0.7722180              1.1458520              0.7408950
SP   1   1.00
      0.2120313              1.0000000              1.0000000
D    1   1.00
      1.8260000              1.0000000
D    1   1.00
      0.4565000              1.0000000
F    1   1.00
      1.0000000              1.0000000
****
O     0
S    6   1.00
   5484.6717000              0.0018311
    825.2349500              0.0139501
    188.0469600              0.0684451
     52.9645000              0.2327143
     16.8975700              0.4701930
      5.7996353              0.3585209
SP   3   1.00
     15.5396160             -0.1107775              0.0708743
      3.5999336             -0.1480263              0.3397528
      1.0137618              1.1307670              0.7271586
SP   1   1.00
      0.2700058              1.0000000              1.0000000
D    1   1.00
      2.5840000              1.0000000
D    1   1.00
      0.6460000              1.0000000
F    1   1.00
      1.4000000              1.0000000
****
F     0
S    6   1.00
   7001.7130900              0.0018196169
   1051.3660900              0.0139160796
    239.2856900              0.0684053245
     67.3974453              0.233185760
     21.5199573              0.471267439
      7.40310130             0.356618546
SP   3   1.00
     20.8479528             -0.108506975            0.0716287243
      4.80830834            -0.146451658            0.3459121030
      1.34406986             1.128688580            0.7224699570
SP   1   1.00
      0.358151393            1.0000000              1.0000000
D    1   1.00
      3.5000000              1.0000000
D    1   1.00
      0.8750000              1.0000000
F    1   1.00
      1.8500000              1.0000000
****
Al     0
S    6   1.00
  13983.1000000              0.00194267
   2098.7500000              0.0148599
    477.7050000              0.0728494
    134.3600000              0.2468300
     42.8709000              0.4872580
     14.5189000              0.3234960
SP   6   1.00
    239.6680000             -0.00292619             0.00460285
     57.4419000             -0.0374080              0.0331990
     18.2859000             -0.1144870              0.1362820
      6.5991400              0.1156350              0.3304760
      2.4904900              0.6125950              0.4491460
      0.9445400              0.3937990              0.2657040
SP   3   1.00
      1.2779000             -0.2276060             -0.0175130
      0.3975900              0.00144583             0.2445330
      0.1600950              1.0927900              0.8049340
SP   1   1.00
      0.0556577              1.0000000              1.0000000
D    1   1.00
      0.6500000              1.0000000
D    1   1.00
      0.1625000              1.0000000
F    1   1.00
      0.2500000              1.0000000
****
Si     0
S    6   1.00
  16115.9000000              0.00195948
   2425.5800000              0.01492880
    553.8670000              0.07284780
    156.3400000              0.24613000
     50.0683000              0.48591400
     17.0178000              0.32500200
SP   6   1.00
    292.7180000             -0.00278094             0.00443826
     69.8731000             -0.03571460             0.03266790
     22.3363000             -0.11498500             0.13472100
      8.1503900              0.09356340             0.32867800
      3.1345800              0.60301700             0.44964000
      1.2254300              0.41895900             0.26137200
SP   3   1.00
      1.7273800             -0.24463000            -0.01779510
      0.5729220              0.00431572             0.25353900
      0.2221920              1.09818000             0.80066900
SP   1   1.00
      0.0778369              1.00000000             1.00000000
D    1   1.00
      0.9000000              1.0000000
D    1   1.00
      0.2250000              1.0000000
F    1   1.00
      0.3200000              1.0000000
****
P     0
S    6   1.00
  19413.3000000              0.0018516
   2909.4200000              0.0142062
    661.3640000              0.0699995
    185.7590000              0.2400790
     59.1943000              0.4847620
     20.0310000              0.3352000
SP   6   1.00
    339.4780000             -0.00278217             0.00456462
     81.0101000             -0.0360499              0.03369360
     25.8780000             -0.1166310              0.13975500
      9.4522100              0.0968328              0.33936200
      3.6656600              0.6144180              0.45092100
      1.4674600              0.4037980              0.23858600
SP   3   1.00
      2.1562300             -0.2529230             -0.01776530
      0.7489970              0.0328517              0.27405800
      0.2831450              1.0812500              0.78542100
SP   1   1.00
      0.0998317              1.0000000              1.00000000
D    1   1.00
      1.1000000              1.0000000
D    1   1.00
      0.2750000              1.0000000
F    1   1.00
      0.4500000              1.0000000
****
S     0
S    6   1.00
  21917.1000000              0.0018690
   3301.4900000              0.0142300
    754.1460000              0.0696960
    212.7110000              0.2384870
     67.9896000              0.4833070
     23.0515000              0.3380740
SP   6   1.00
    423.7350000             -0.0023767              0.0040610
    100.7100000             -0.0316930              0.0306810
     32.1599000             -0.1133170              0.1304520
     11.8079000              0.0560900              0.3272050
      4.6311000              0.5922550              0.4528510
      1.8702500              0.4550060              0.2560420
SP   3   1.00
      2.6158400             -0.2503740             -0.0145110
      0.9221670              0.0669570              0.3102630
      0.3412870              1.0545100              0.7544830
SP   1   1.00
      0.1171670              1.0000000              1.0000000
D    1   1.00
      1.3000000              1.0000000
D    1   1.00
      0.3250000              1.0000000
F    1   1.00
      0.5500000              1.0000000
****
Cl     0
S    6   1.00
  25180.1000000              0.0018330
   3780.3500000              0.0140340
    860.4740000              0.0690970
    242.1450000              0.2374520
     77.3349000              0.4830340
     26.2470000              0.3398560
SP   6   1.00
    491.7650000             -0.0022974              0.0039894
    116.9840000             -0.0307140              0.0303180
     37.4153000             -0.1125280              0.1298800
     13.7834000              0.0450160              0.3279510
      5.4521500              0.5893530              0.4535270
      2.2258800              0.4652060              0.2521540
SP   3   1.00
      3.1864900             -0.2518300             -0.0142990
      1.1442700              0.0615890              0.3235720
      0.4203770              1.0601800              0.7435070
SP   1   1.00
      0.1426570              1.0000000              1.0000000
D    1   1.00
      1.5000000              1.0000000
D    1   1.00
      0.3750000              1.0000000
F    1   1.00
      0.7000000              1.0000000
****
}

set {
reference uhf
freeze_core true
e_convergence 10
d_convergence 10
dft_spherical_points 1202
dft_radial_points 99
}

e = energy('b3lyp')

print_out('Grab this energy {0}'.format(e))
--------------------------------------------------------------------------

    Molecular point group: cs

    Geometry (in Bohr), charge = 0, multiplicity = 2:

       Center              X                  Y                   Z               Mass
    ------------   -----------------  -----------------  -----------------  -----------------
         C           -0.323340364733    -0.000141383885     0.000000000000    12.000000000000
         C            0.061188496767    -1.400767748185    -2.426734609400    12.000000000000
         C            0.060923439067     2.801256779215     0.000000000000    12.000000000000
         C            0.061188496767    -1.400767748185     2.426734609400    12.000000000000
         H            2.084847127267    -1.643846340185    -2.847668251000     1.007825032230
         H           -0.764240129333    -0.389454555185    -4.024758881800     1.007825032230
         H           -0.764559984933    -3.289305315785    -2.349543871700     1.007825032230
         H            2.090981231967     3.287959388015     0.000000000000     1.007825032230
         H           -0.767821888733     3.681127552715     1.680543149400     1.007825032230
         H           -0.767821888733     3.681127552715    -1.680543149400     1.007825032230
         H            2.084847127267    -1.643846340185     2.847668251000     1.007825032230
         H           -0.764559984933    -3.289305315785     2.349543871700     1.007825032230
         H           -0.764240129333    -0.389454555185     4.024758881800     1.007825032230

  Charge       = 0
  Multiplicity = 2
  Basis Set: ANONYMOUS5E2449D2
    Blend: 6-31G_2DFP_
  Basis Set: (ANONYMOUS5E2449D2 AUX)
    Blend: DEF2-UNIVERSAL-JKFIT

    Orbital Energies [Eh]
    ---------------------

    Alpha Occupied:

       1Ap   -10.180342     2Ap   -10.167685     1App  -10.166695
       3Ap   -10.166664     4Ap    -0.797766     2App   -0.686508
       5Ap    -0.685867     6Ap    -0.530775     7Ap    -0.441125
       8Ap    -0.434757     3App   -0.434585     4App   -0.382821
       9Ap    -0.382376     5App   -0.363612    10Ap    -0.338031
       6App   -0.337966    11Ap    -0.168961

    Alpha Virtual:

      12Ap     0.076071     7App    0.134147    13Ap     0.134150
       8App    0.142531    14Ap     0.142738    15Ap     0.154875
      16Ap     0.178460     9App    0.179101    17Ap     0.203547
      10App    0.214805    11App    0.275939    18Ap     0.276031
      19Ap     0.399146    12App    0.399310    20Ap     0.403344
      13App    0.424001    21Ap     0.424192    22Ap     0.456592
      23Ap     0.495320    14App    0.495460    15App    0.512162
      24Ap     0.513978    25Ap     0.578686    16App    0.578945
      26Ap     0.591315    17App    0.591933    27Ap     0.602590
      28Ap     0.624766    18App    0.631688    19App    0.635952
      29Ap     0.636631    30Ap     0.663232    20App    0.663596
      31Ap     0.683549    21App    0.684170    32Ap     0.734994
      22App    0.824999    33Ap     0.825807    23App    0.853917
      24App    0.915013    34Ap     0.915040    25App    0.944130
      35Ap     0.944612    26App    0.961040    36Ap     0.961552
      37Ap     1.003455    38Ap     1.127774    27App    1.128446
      39Ap     1.142221    28App    1.163186    40Ap     1.163349
      41Ap     1.223324    42Ap     1.274308    29App    1.274672
      43Ap     1.279351    30App    1.323994    44Ap     1.324714
      45Ap     1.355981    46Ap     1.365797    31App    1.366312
      32App    1.392457    47Ap     1.403657    33App    1.404438
      48Ap     1.416793    34App    1.417414    35App    1.427913
      36App    1.491492    49Ap     1.499083    37App    1.542774
      50Ap     1.542888    38App    1.574167    51Ap     1.574731
      52Ap     1.669798    39App    1.739340    53Ap     1.739468
      54Ap     1.768325    55Ap     1.829856    40App    1.833004
      41App    1.971699    56Ap     2.018073    42App    2.018952
      57Ap     2.019348    43App    2.052597    58Ap     2.052729
      44App    2.738038    59Ap     2.738933    60Ap     2.790923
      45App    2.811429    61Ap     2.889632    46App    2.890232
      62Ap     2.894978    47App    2.929390    63Ap     2.929596
      48App    2.959006    64Ap     2.963847    49App    2.964917
      65Ap     3.034020    66Ap     3.071077    50App    3.071484
      51App    3.084380    52App    3.168659    67Ap     3.168904
      68Ap     3.180592    53App    3.285251    69Ap     3.285385
      54App    3.327117    70Ap     3.327207    71Ap     3.375611
      55App    3.489323    72Ap     3.491003    56App    3.514017
      73Ap     3.525344    74Ap     3.568363    57App    3.568373
      58App    3.575191    75Ap     3.665570    59App    3.667129
      76Ap     3.679644    77Ap     3.693714    60App    3.694574
      78Ap     3.776214    61App    3.777412    79Ap     3.789119
      80Ap     3.911763    62App    3.912666    81Ap     4.034439
      82Ap     4.110568    63App    4.112051    64App    4.146021
      83Ap     4.150141    84Ap     4.173314    85Ap     4.200550
      65App    4.203575    86Ap     4.204597    66App    4.211157
      87Ap     4.315272    67App    4.316641    68App    4.358947
      69App    4.424132    88Ap     4.424689    70App    4.443547
      89Ap     4.516579    71App    4.517067    72App    4.577858
      90Ap     4.578727    91Ap     4.617531    92Ap     4.709483
      93Ap     4.774482    73App    4.774701    74App    4.836870
      94Ap     4.962866    95Ap     5.002417    75App    5.003524
      96Ap     5.227836    76App    5.243068    97Ap     5.250523
      98Ap     5.352667    77App    5.358533    78App    5.479432

    Beta Occupied:

       1Ap   -10.168447     1App  -10.167445     2Ap   -10.167433
       3Ap   -10.166517     4Ap    -0.781092     2App   -0.684311
       5Ap    -0.683669     6Ap    -0.511746     7Ap    -0.431139
       3App   -0.430945     8Ap    -0.421823     4App   -0.376915
       9Ap    -0.376452     5App   -0.362596    10Ap    -0.333147
       6App   -0.333096

    Beta Virtual:

      11Ap    -0.025743    12Ap     0.077080     7App    0.134980
      13Ap     0.135097     8App    0.144449    14Ap     0.144559
      15Ap     0.163334    16Ap     0.182140     9App    0.182763
      10App    0.215035    17Ap     0.218929    11App    0.282285
      18Ap     0.282382    19Ap     0.400312    12App    0.400483
      20Ap     0.419791    13App    0.426809    21Ap     0.427007
      22Ap     0.468500    23Ap     0.497580    14App    0.497720
      15App    0.513897    24Ap     0.556324    25Ap     0.584228
      16App    0.584501    26Ap     0.597521    17App    0.598089
      27Ap     0.610009    28Ap     0.628142    18App    0.631886
      19App    0.639219    29Ap     0.639895    30Ap     0.666783
      20App    0.667173    31Ap     0.686219    21App    0.686771
      32Ap     0.757518    22App    0.830141    33Ap     0.831001
      23App    0.855271    24App    0.922985    34Ap     0.923010
      25App    0.945966    35Ap     0.953540    26App    0.966375
      36Ap     0.966830    37Ap     1.008695    38Ap     1.131788
      27App    1.132490    39Ap     1.155597    28App    1.168245
      40Ap     1.168437    41Ap     1.232297    42Ap     1.279903
      29App    1.280272    43Ap     1.285104    30App    1.328936
      44Ap     1.329750    45Ap     1.365390    46Ap     1.371061
      31App    1.371542    32App    1.393515    47Ap     1.407104
      33App    1.407921    48Ap     1.421798    34App    1.422509
      35App    1.428182    36App    1.492541    49Ap     1.509526
      37App    1.547137    50Ap     1.547339    38App    1.582046
      51Ap     1.582596    52Ap     1.674643    39App    1.745117
      53Ap     1.745218    54Ap     1.779102    55Ap     1.833741
      40App    1.836830    41App    1.972562    42App    2.025416
      56Ap     2.025456    57Ap     2.039672    43App    2.059250
      58Ap     2.059510    44App    2.746359    59Ap     2.747283
      45App    2.811841    60Ap     2.816059    61Ap     2.902431
      46App    2.902835    62Ap     2.924657    47App    2.931923
      63Ap     2.932027    48App    2.960069    64Ap     2.968354
      49App    2.969499    65Ap     3.041954    66Ap     3.080931
      50App    3.081412    51App    3.086235    52App    3.184374
      67Ap     3.184672    68Ap     3.188291    53App    3.290023
      69Ap     3.290210    54App    3.330941    70Ap     3.330991
      71Ap     3.383430    55App    3.492085    72Ap     3.493702
      56App    3.512381    73Ap     3.528388    57App    3.574950
      74Ap     3.581732    58App    3.581783    75Ap     3.670274
      59App    3.671928    76Ap     3.692966    77Ap     3.725309
      60App    3.726207    78Ap     3.780772    61App    3.781908
      79Ap     3.817666    80Ap     3.921594    62App    3.922470
      81Ap     4.045321    82Ap     4.117602    63App    4.118623
      64App    4.153459    83Ap     4.157155    84Ap     4.187368
      85Ap     4.207195    65App    4.209560    86Ap     4.211804
      66App    4.215642    87Ap     4.322834    67App    4.323955
      68App    4.362312    69App    4.432356    88Ap     4.432850
      70App    4.446476    89Ap     4.524431    71App    4.524797
      72App    4.588504    90Ap     4.589282    91Ap     4.624723
      92Ap     4.719827    93Ap     4.781403    73App    4.781685
      74App    4.839786    94Ap     4.967662    95Ap     5.006473
      75App    5.007546    96Ap     5.233549    76App    5.244854
      97Ap     5.252313    98Ap     5.359158    77App    5.364998
      78App    5.481753

    Final Occupation by Irrep:
             Ap   App
    DOCC [    10,    6 ]
    SOCC [     1,    0 ]

  @DF-UKS Final Energy:  -157.81305845976280

   => Energetics <=

    Nuclear Repulsion Energy =            125.3946343503660472
    One-Electron Energy =                -458.7489037103777036
    Two-Electron Energy =                 195.8483574494225650
    DFT Exchange-Correlation Energy =     -20.3071465491737264
    Empirical Dispersion Energy =           0.0000000000000000
    VV10 Nonlocal Energy =                  0.0000000000000000
    Total Energy =                       -157.8130584597628001

  UHF NO Occupations:
  HONO-2 :    9 Ap 1.9996009
  HONO-1 :   10 Ap 1.9989805
  HONO-0 :   11 Ap 1.0000000
  LUNO+0 :   12 Ap 0.0010195
  LUNO+1 :   13 Ap 0.0003991
  LUNO+2 :   14 Ap 0.0001976
  LUNO+3 :    7App 0.0001975

Computation Completed

Properties will be evaluated at   0.000000,   0.000000,   0.000000 [a0]

Properties computed using the SCF density matrix

  Nuclear Dipole Moment: [e a0]
     X:     0.8272      Y:     0.0025      Z:     0.0000

  Electronic Dipole Moment: [e a0]
     X:    -0.7493      Y:    -0.0049      Z:     0.0000

  Dipole Moment: [e a0]
     X:     0.0779      Y:    -0.0025      Z:     0.0000     Total:     0.0780

  Dipole Moment: [D]
     X:     0.1980      Y:    -0.0062      Z:     0.0000     Total:     0.1981

*** tstop() called on n056 at Fri Nov  5 15:09:08 2021
Module time:
	user time   =     548.46 seconds =       9.14 minutes
	system time =      11.93 seconds =       0.20 minutes
	total time  =        141 seconds =       2.35 minutes
Total time:
	user time   =     548.46 seconds =       9.14 minutes
	system time =      11.93 seconds =       0.20 minutes
	total time  =        141 seconds =       2.35 minutes
Grab this energy -157.8130584597628
    Psi4 stopped on: Friday, 05 November 2021 03:09PM
    Psi4 wall time for execution: 0:02:20.92

*** Psi4 exiting successfully. Buy a developer a beer!
