                               Psi4 1.4a2.dev629

  ==> Input File <==

--------------------------------------------------------------------------
import os
memory 14 GB

molecule {
 C   -0.3236321420    0.0000050388   -0.0050110089
 C    0.0607579811   -1.4097254348   -2.4354759201
 C    0.0611583826    2.8071904667    0.0062397052
 C    0.0618037603   -1.3974577579    2.4267072554
 H    2.0865551780   -1.6561912681   -2.8572326624
 H   -0.7651057216   -0.4001630776   -4.0378229041
 H   -0.7680306888   -3.3010984870   -2.3542071342
 H    2.0870862579    3.2946738658    0.0111561160
 H   -0.7685722427    3.6786402157    1.6863222692
 H   -0.7630594221    3.6938263498   -1.6674092008
 H    2.0879045009   -1.6385890277    2.8490571660
 H   -0.7634425730   -3.2895383985    2.3537754621
 H   -0.7660311471   -0.3815967988    4.0239008565
units bohr
0 2
}

basis {

assign 6-31g_2dfp_

[ 6-31g_2dfp_ ]

spherical

!----------------------------------------------------------------------
! Basis Set Exchange
! Version v0.8.13
! https://www.basissetexchange.org
!----------------------------------------------------------------------
!   Basis set: 6-31G(2df,p)
! Description: 6-31G(2df,p)
!        Role: orbital
!     Version: 0  (Data from the original Basis Set Exchange)
!----------------------------------------------------------------------

****
H     0
S    3   1.00
     18.7311370              0.03349460
      2.8253937              0.23472695
      0.6401217              0.81375733
S    1   1.00
      0.1612778              1.00000000
P    1   1.00
      1.5000000              1.0000000
P    1   1.00
      0.3750000              1.0000000
****
B     0
S    6   1.00
   2068.8823000              0.0018663
    310.6495700              0.0142515
     70.6830330              0.0695516
     19.8610800              0.2325729
      6.2993048              0.4670787
      2.1270270              0.3634314
SP   3   1.00
      4.7279710             -0.1303938              0.0745976
      1.1903377             -0.1307889              0.3078467
      0.3594117              1.1309444              0.7434568
SP   1   1.00
      0.1267512              1.0000000              1.0000000
D    1   1.00
      0.8020000              1.0000000
D    1   1.00
      0.2005000              1.0000000
F    1   1.00
      0.5000000              1.0000000
****
C     0
S    6   1.00
   3047.5249000              0.0018347
    457.3695100              0.0140373
    103.9486900              0.0688426
     29.2101550              0.2321844
      9.2866630              0.4679413
      3.1639270              0.3623120
SP   3   1.00
      7.8682724             -0.1193324              0.0689991
      1.8812885             -0.1608542              0.3164240
      0.5442493              1.1434564              0.7443083
SP   1   1.00
      0.1687144              1.0000000              1.0000000
D    1   1.00
      1.2520000              1.0000000
D    1   1.00
      0.3130000              1.0000000
F    1   1.00
      0.8000000              1.0000000
****
N     0
S    6   1.00
   4173.5110000              0.0018348
    627.4579000              0.0139950
    142.9021000              0.0685870
     40.2343300              0.2322410
     12.8202100              0.4690700
      4.3904370              0.3604550
SP   3   1.00
     11.6263580             -0.1149610              0.0675800
      2.7162800             -0.1691180              0.3239070
      0.7722180              1.1458520              0.7408950
SP   1   1.00
      0.2120313              1.0000000              1.0000000
D    1   1.00
      1.8260000              1.0000000
D    1   1.00
      0.4565000              1.0000000
F    1   1.00
      1.0000000              1.0000000
****
O     0
S    6   1.00
   5484.6717000              0.0018311
    825.2349500              0.0139501
    188.0469600              0.0684451
     52.9645000              0.2327143
     16.8975700              0.4701930
      5.7996353              0.3585209
SP   3   1.00
     15.5396160             -0.1107775              0.0708743
      3.5999336             -0.1480263              0.3397528
      1.0137618              1.1307670              0.7271586
SP   1   1.00
      0.2700058              1.0000000              1.0000000
D    1   1.00
      2.5840000              1.0000000
D    1   1.00
      0.6460000              1.0000000
F    1   1.00
      1.4000000              1.0000000
****
F     0
S    6   1.00
   7001.7130900              0.0018196169
   1051.3660900              0.0139160796
    239.2856900              0.0684053245
     67.3974453              0.233185760
     21.5199573              0.471267439
      7.40310130             0.356618546
SP   3   1.00
     20.8479528             -0.108506975            0.0716287243
      4.80830834            -0.146451658            0.3459121030
      1.34406986             1.128688580            0.7224699570
SP   1   1.00
      0.358151393            1.0000000              1.0000000
D    1   1.00
      3.5000000              1.0000000
D    1   1.00
      0.8750000              1.0000000
F    1   1.00
      1.8500000              1.0000000
****
Al     0
S    6   1.00
  13983.1000000              0.00194267
   2098.7500000              0.0148599
    477.7050000              0.0728494
    134.3600000              0.2468300
     42.8709000              0.4872580
     14.5189000              0.3234960
SP   6   1.00
    239.6680000             -0.00292619             0.00460285
     57.4419000             -0.0374080              0.0331990
     18.2859000             -0.1144870              0.1362820
      6.5991400              0.1156350              0.3304760
      2.4904900              0.6125950              0.4491460
      0.9445400              0.3937990              0.2657040
SP   3   1.00
      1.2779000             -0.2276060             -0.0175130
      0.3975900              0.00144583             0.2445330
      0.1600950              1.0927900              0.8049340
SP   1   1.00
      0.0556577              1.0000000              1.0000000
D    1   1.00
      0.6500000              1.0000000
D    1   1.00
      0.1625000              1.0000000
F    1   1.00
      0.2500000              1.0000000
****
Si     0
S    6   1.00
  16115.9000000              0.00195948
   2425.5800000              0.01492880
    553.8670000              0.07284780
    156.3400000              0.24613000
     50.0683000              0.48591400
     17.0178000              0.32500200
SP   6   1.00
    292.7180000             -0.00278094             0.00443826
     69.8731000             -0.03571460             0.03266790
     22.3363000             -0.11498500             0.13472100
      8.1503900              0.09356340             0.32867800
      3.1345800              0.60301700             0.44964000
      1.2254300              0.41895900             0.26137200
SP   3   1.00
      1.7273800             -0.24463000            -0.01779510
      0.5729220              0.00431572             0.25353900
      0.2221920              1.09818000             0.80066900
SP   1   1.00
      0.0778369              1.00000000             1.00000000
D    1   1.00
      0.9000000              1.0000000
D    1   1.00
      0.2250000              1.0000000
F    1   1.00
      0.3200000              1.0000000
****
P     0
S    6   1.00
  19413.3000000              0.0018516
   2909.4200000              0.0142062
    661.3640000              0.0699995
    185.7590000              0.2400790
     59.1943000              0.4847620
     20.0310000              0.3352000
SP   6   1.00
    339.4780000             -0.00278217             0.00456462
     81.0101000             -0.0360499              0.03369360
     25.8780000             -0.1166310              0.13975500
      9.4522100              0.0968328              0.33936200
      3.6656600              0.6144180              0.45092100
      1.4674600              0.4037980              0.23858600
SP   3   1.00
      2.1562300             -0.2529230             -0.01776530
      0.7489970              0.0328517              0.27405800
      0.2831450              1.0812500              0.78542100
SP   1   1.00
      0.0998317              1.0000000              1.00000000
D    1   1.00
      1.1000000              1.0000000
D    1   1.00
      0.2750000              1.0000000
F    1   1.00
      0.4500000              1.0000000
****
S     0
S    6   1.00
  21917.1000000              0.0018690
   3301.4900000              0.0142300
    754.1460000              0.0696960
    212.7110000              0.2384870
     67.9896000              0.4833070
     23.0515000              0.3380740
SP   6   1.00
    423.7350000             -0.0023767              0.0040610
    100.7100000             -0.0316930              0.0306810
     32.1599000             -0.1133170              0.1304520
     11.8079000              0.0560900              0.3272050
      4.6311000              0.5922550              0.4528510
      1.8702500              0.4550060              0.2560420
SP   3   1.00
      2.6158400             -0.2503740             -0.0145110
      0.9221670              0.0669570              0.3102630
      0.3412870              1.0545100              0.7544830
SP   1   1.00
      0.1171670              1.0000000              1.0000000
D    1   1.00
      1.3000000              1.0000000
D    1   1.00
      0.3250000              1.0000000
F    1   1.00
      0.5500000              1.0000000
****
Cl     0
S    6   1.00
  25180.1000000              0.0018330
   3780.3500000              0.0140340
    860.4740000              0.0690970
    242.1450000              0.2374520
     77.3349000              0.4830340
     26.2470000              0.3398560
SP   6   1.00
    491.7650000             -0.0022974              0.0039894
    116.9840000             -0.0307140              0.0303180
     37.4153000             -0.1125280              0.1298800
     13.7834000              0.0450160              0.3279510
      5.4521500              0.5893530              0.4535270
      2.2258800              0.4652060              0.2521540
SP   3   1.00
      3.1864900             -0.2518300             -0.0142990
      1.1442700              0.0615890              0.3235720
      0.4203770              1.0601800              0.7435070
SP   1   1.00
      0.1426570              1.0000000              1.0000000
D    1   1.00
      1.5000000              1.0000000
D    1   1.00
      0.3750000              1.0000000
F    1   1.00
      0.7000000              1.0000000
****
}

set {
reference uhf
freeze_core true
e_convergence 10
d_convergence 10
dft_spherical_points 1202
dft_radial_points 99
}

e = energy('b3lyp')

print_out('Grab this energy {0}'.format(e))
--------------------------------------------------------------------------

    Molecular point group: c1

    Geometry (in Bohr), charge = 0, multiplicity = 2:

       Center              X                  Y                   Z               Mass
    ------------   -----------------  -----------------  -----------------  -----------------
         C           -0.323656789339     0.000003096628    -0.003558756677    12.000000000000
         C            0.060733333761    -1.409727376972    -2.434023667877    12.000000000000
         C            0.061133735261     2.807188524528     0.007691957423    12.000000000000
         C            0.061779112961    -1.397459700072     2.428159507623    12.000000000000
         H            2.086530530661    -1.656193210272    -2.855780410177     1.007825032230
         H           -0.765130368939    -0.400165019772    -4.036370651877     1.007825032230
         H           -0.768055336139    -3.301100429172    -2.352754881977     1.007825032230
         H            2.087061610561     3.294671923628     0.012608368223     1.007825032230
         H           -0.768596890039     3.678638273528     1.687774521423     1.007825032230
         H           -0.763084069439     3.693824407628    -1.665956948577     1.007825032230
         H            2.087879853561    -1.638590969872     2.850509418223     1.007825032230
         H           -0.763467220339    -3.289540340672     2.355227714323     1.007825032230
         H           -0.766055794439    -0.381598740972     4.025353108723     1.007825032230

  Charge       = 0
  Multiplicity = 2
  Basis Set: ANONYMOUS06D995DD
    Blend: 6-31G_2DFP_
  Basis Set: (ANONYMOUS06D995DD AUX)
    Blend: DEF2-UNIVERSAL-JKFIT

    Orbital Energies [Eh]
    ---------------------

    Alpha Occupied:

       1A    -10.181113     2A    -10.167648     3A    -10.167377
       4A    -10.167105     5A     -0.796724     6A     -0.686105
       7A     -0.685667     8A     -0.530778     9A     -0.440533
      10A     -0.434456    11A     -0.433928    12A     -0.382668
      13A     -0.382380    14A     -0.363728    15A     -0.338082
      16A     -0.337538    17A     -0.169286

    Alpha Virtual:

      18A      0.076101    19A      0.133876    20A      0.134353
      21A      0.142288    22A      0.142563    23A      0.154819
      24A      0.178381    25A      0.178827    26A      0.202434
      27A      0.214462    28A      0.275289    29A      0.275618
      30A      0.399079    31A      0.399356    32A      0.403615
      33A      0.424240    34A      0.424534    35A      0.456033
      36A      0.494763    37A      0.495556    38A      0.511838
      39A      0.513577    40A      0.577871    41A      0.578344
      42A      0.591058    43A      0.591131    44A      0.602126
      45A      0.624360    46A      0.631414    47A      0.635234
      48A      0.635674    49A      0.662715    50A      0.663151
      51A      0.683177    52A      0.683650    53A      0.735193
      54A      0.824734    55A      0.826375    56A      0.852910
      57A      0.914067    58A      0.914537    59A      0.942730
      60A      0.945076    61A      0.960192    62A      0.960692
      63A      1.002351    64A      1.126066    65A      1.128391
      66A      1.141873    67A      1.162002    68A      1.162973
      69A      1.222443    70A      1.273068    71A      1.274114
      72A      1.278834    73A      1.323934    74A      1.324101
      75A      1.355821    76A      1.363488    77A      1.364921
      78A      1.390926    79A      1.403565    80A      1.405135
      81A      1.416253    82A      1.417280    83A      1.426500
      84A      1.490241    85A      1.498493    86A      1.541754
      87A      1.542438    88A      1.571455    89A      1.575215
      90A      1.669892    91A      1.737707    92A      1.739821
      93A      1.766839    94A      1.829700    95A      1.830705
      96A      1.970354    97A      2.015971    98A      2.016540
      99A      2.019329   100A      2.045696   101A      2.050778
     102A      2.737633   103A      2.738130   104A      2.789759
     105A      2.808717   106A      2.888667   107A      2.888897
     108A      2.893422   109A      2.929153   110A      2.929497
     111A      2.958753   112A      2.963791   113A      2.965592
     114A      3.034040   115A      3.069346   116A      3.071318
     117A      3.082815   118A      3.167179   119A      3.168729
     120A      3.178706   121A      3.284060   122A      3.285500
     123A      3.325799   124A      3.327700   125A      3.377021
     126A      3.487837   127A      3.488806   128A      3.513252
     129A      3.522955   130A      3.567257   131A      3.569442
     132A      3.573352   133A      3.666318   134A      3.666549
     135A      3.677734   136A      3.692243   137A      3.693117
     138A      3.771496   139A      3.773114   140A      3.788560
     141A      3.908718   142A      3.911564   143A      4.032639
     144A      4.107118   145A      4.109859   146A      4.145750
     147A      4.149062   148A      4.172018   149A      4.199070
     150A      4.201235   151A      4.202378   152A      4.209340
     153A      4.314388   154A      4.314438   155A      4.356508
     156A      4.422207   157A      4.422479   158A      4.441129
     159A      4.513063   160A      4.514693   161A      4.573626
     162A      4.575808   163A      4.610244   164A      4.704675
     165A      4.766873   166A      4.769474   167A      4.832984
     168A      4.959845   169A      5.000352   170A      5.002342
     171A      5.227011   172A      5.245249   173A      5.245574
     174A      5.352206   175A      5.353602   176A      5.473631

    Beta Occupied:

       1A    -10.168403     2A    -10.168136     3A    -10.167871
       4A    -10.167257     5A     -0.780072     6A     -0.683931
       7A     -0.683486     8A     -0.511649     9A     -0.430854
      10A     -0.430311    11A     -0.421326    12A     -0.376800
      13A     -0.376492    14A     -0.362723    15A     -0.333204
      16A     -0.332652

    Beta Virtual:

      17A     -0.025775    18A      0.077099    19A      0.134762
      20A      0.135261    21A      0.144137    22A      0.144398
      23A      0.163234    24A      0.182016    25A      0.182481
      26A      0.214685    27A      0.217996    28A      0.281695
      29A      0.282048    30A      0.400269    31A      0.400495
      32A      0.420099    33A      0.427046    34A      0.427370
      35A      0.467589    36A      0.497007    37A      0.497808
      38A      0.513558    39A      0.555990    40A      0.583442
      41A      0.583864    42A      0.597285    43A      0.597377
      44A      0.609510    45A      0.627682    46A      0.631563
      47A      0.638429    48A      0.638903    49A      0.666291
      50A      0.666781    51A      0.685685    52A      0.686258
      53A      0.757894    54A      0.829875    55A      0.831537
      56A      0.854227    57A      0.922012    58A      0.922508
      59A      0.944586    60A      0.954074    61A      0.965424
      62A      0.966027    63A      1.007666    64A      1.130104
      65A      1.132413    66A      1.155233    67A      1.167042
      68A      1.168078    69A      1.231272    70A      1.278622
      71A      1.279677    72A      1.284653    73A      1.328910
      74A      1.329111    75A      1.365209    76A      1.368636
      77A      1.370266    78A      1.391979    79A      1.407091
      80A      1.408616    81A      1.421244    82A      1.422265
      83A      1.426741    84A      1.491293    85A      1.508873
      86A      1.546113    87A      1.547003    88A      1.579407
      89A      1.582871    90A      1.674731    91A      1.743471
      92A      1.745577    93A      1.777594    94A      1.833520
      95A      1.834560    96A      1.971213    97A      2.022849
      98A      2.025790    99A      2.037282   100A      2.052483
     101A      2.057370   102A      2.746019   103A      2.746606
     104A      2.809125   105A      2.814913   106A      2.901601
     107A      2.901774   108A      2.923063   109A      2.931561
     110A      2.931739   111A      2.959807   112A      2.968307
     113A      2.970045   114A      3.041888   115A      3.079007
     116A      3.081157   117A      3.084770   118A      3.183142
     119A      3.184460   120A      3.186449   121A      3.288752
     122A      3.290060   123A      3.329672   124A      3.331589
     125A      3.384855   126A      3.490590   127A      3.491540
     128A      3.511636   129A      3.526060   130A      3.572690
     131A      3.580804   132A      3.583033   133A      3.671145
     134A      3.671421   135A      3.691047   136A      3.724097
     137A      3.724880   138A      3.775986   139A      3.777649
     140A      3.817183   141A      3.918528   142A      3.921374
     143A      4.043596   144A      4.114212   145A      4.116939
     146A      4.152833   147A      4.156032   148A      4.185965
     149A      4.204980   150A      4.208284   151A      4.209176
     152A      4.213766   153A      4.321779   154A      4.321865
     155A      4.359891   156A      4.430306   157A      4.430555
     158A      4.444045   159A      4.520820   160A      4.522254
     161A      4.584128   162A      4.586470   163A      4.617452
     164A      4.714939   165A      4.773786   166A      4.776460
     167A      4.835905   168A      4.964615   169A      5.004353
     170A      5.006342   171A      5.232686   172A      5.247018
     173A      5.247352   174A      5.358615   175A      5.360046
     176A      5.475930

    Final Occupation by Irrep:
              A
    DOCC [    16 ]
    SOCC [     1 ]

  @DF-UKS Final Energy:  -157.81306511881877

   => Energetics <=

    Nuclear Repulsion Energy =            125.2138951192222436
    One-Electron Energy =                -458.3930486269520657
    Two-Electron Energy =                 195.6694418295344633
    DFT Exchange-Correlation Energy =     -20.3033534406233898
    Empirical Dispersion Energy =           0.0000000000000000
    VV10 Nonlocal Energy =                  0.0000000000000000
    Total Energy =                       -157.8130651188187699

  UHF NO Occupations:
  HONO-2 :   15  A 1.9996026
  HONO-1 :   16  A 1.9989734
  HONO-0 :   17  A 1.0000000
  LUNO+0 :   18  A 0.0010266
  LUNO+1 :   19  A 0.0003974
  LUNO+2 :   20  A 0.0002001
  LUNO+3 :   21  A 0.0001994

Computation Completed

Properties will be evaluated at   0.000000,   0.000000,   0.000000 [a0]

Properties computed using the SCF density matrix

  Nuclear Dipole Moment: [e a0]
     X:     0.8270      Y:    -0.0000      Z:     0.0102

  Electronic Dipole Moment: [e a0]
     X:    -0.7482      Y:     0.0000      Z:    -0.0110

  Dipole Moment: [e a0]
     X:     0.0788      Y:    -0.0000      Z:    -0.0007     Total:     0.0788

  Dipole Moment: [D]
     X:     0.2002      Y:    -0.0000      Z:    -0.0019     Total:     0.2002

*** tstop() called on n065 at Fri Nov  5 15:50:20 2021
Module time:
	user time   =     538.62 seconds =       8.98 minutes
	system time =      11.79 seconds =       0.20 minutes
	total time  =        138 seconds =       2.30 minutes
Total time:
	user time   =     538.62 seconds =       8.98 minutes
	system time =      11.79 seconds =       0.20 minutes
	total time  =        138 seconds =       2.30 minutes
Grab this energy -157.81306511881877
    Psi4 stopped on: Friday, 05 November 2021 03:50PM
    Psi4 wall time for execution: 0:02:18.40

*** Psi4 exiting successfully. Buy a developer a beer!
