                               Psi4 1.4a2.dev629

  ==> Input File <==

--------------------------------------------------------------------------
import os
memory 14 GB

molecule {
 C   -0.3233400310   -0.0000021385    0.0007403388
 C    0.0620193824   -1.4004060424   -2.4256716848
 C    0.0610199525    2.8017595267   -0.0001076895
 C    0.0602623638   -1.4013491911    2.4270897228
 H    2.0933623779   -1.6457101334   -2.8521211254
 H   -0.7663038507   -0.3846416323   -4.0258410467
 H   -0.7655913223   -3.2933550019   -2.3442846273
 H    2.0867978035    3.2881034133   -0.0018818705
 H   -0.7647738851    3.6783415563    1.6767451477
 H   -0.7665190941    3.6821673217   -1.6762539402
 H    2.0805002231   -1.6424917998    2.8427836849
 H   -0.7655367323   -3.2906403962    2.3536832343
 H   -0.7645050645   -0.3917997959    4.0251198559
units bohr
0 2
}

basis {

assign 6-31g_2dfp_

[ 6-31g_2dfp_ ]

spherical

!----------------------------------------------------------------------
! Basis Set Exchange
! Version v0.8.13
! https://www.basissetexchange.org
!----------------------------------------------------------------------
!   Basis set: 6-31G(2df,p)
! Description: 6-31G(2df,p)
!        Role: orbital
!     Version: 0  (Data from the original Basis Set Exchange)
!----------------------------------------------------------------------

****
H     0
S    3   1.00
     18.7311370              0.03349460
      2.8253937              0.23472695
      0.6401217              0.81375733
S    1   1.00
      0.1612778              1.00000000
P    1   1.00
      1.5000000              1.0000000
P    1   1.00
      0.3750000              1.0000000
****
B     0
S    6   1.00
   2068.8823000              0.0018663
    310.6495700              0.0142515
     70.6830330              0.0695516
     19.8610800              0.2325729
      6.2993048              0.4670787
      2.1270270              0.3634314
SP   3   1.00
      4.7279710             -0.1303938              0.0745976
      1.1903377             -0.1307889              0.3078467
      0.3594117              1.1309444              0.7434568
SP   1   1.00
      0.1267512              1.0000000              1.0000000
D    1   1.00
      0.8020000              1.0000000
D    1   1.00
      0.2005000              1.0000000
F    1   1.00
      0.5000000              1.0000000
****
C     0
S    6   1.00
   3047.5249000              0.0018347
    457.3695100              0.0140373
    103.9486900              0.0688426
     29.2101550              0.2321844
      9.2866630              0.4679413
      3.1639270              0.3623120
SP   3   1.00
      7.8682724             -0.1193324              0.0689991
      1.8812885             -0.1608542              0.3164240
      0.5442493              1.1434564              0.7443083
SP   1   1.00
      0.1687144              1.0000000              1.0000000
D    1   1.00
      1.2520000              1.0000000
D    1   1.00
      0.3130000              1.0000000
F    1   1.00
      0.8000000              1.0000000
****
N     0
S    6   1.00
   4173.5110000              0.0018348
    627.4579000              0.0139950
    142.9021000              0.0685870
     40.2343300              0.2322410
     12.8202100              0.4690700
      4.3904370              0.3604550
SP   3   1.00
     11.6263580             -0.1149610              0.0675800
      2.7162800             -0.1691180              0.3239070
      0.7722180              1.1458520              0.7408950
SP   1   1.00
      0.2120313              1.0000000              1.0000000
D    1   1.00
      1.8260000              1.0000000
D    1   1.00
      0.4565000              1.0000000
F    1   1.00
      1.0000000              1.0000000
****
O     0
S    6   1.00
   5484.6717000              0.0018311
    825.2349500              0.0139501
    188.0469600              0.0684451
     52.9645000              0.2327143
     16.8975700              0.4701930
      5.7996353              0.3585209
SP   3   1.00
     15.5396160             -0.1107775              0.0708743
      3.5999336             -0.1480263              0.3397528
      1.0137618              1.1307670              0.7271586
SP   1   1.00
      0.2700058              1.0000000              1.0000000
D    1   1.00
      2.5840000              1.0000000
D    1   1.00
      0.6460000              1.0000000
F    1   1.00
      1.4000000              1.0000000
****
F     0
S    6   1.00
   7001.7130900              0.0018196169
   1051.3660900              0.0139160796
    239.2856900              0.0684053245
     67.3974453              0.233185760
     21.5199573              0.471267439
      7.40310130             0.356618546
SP   3   1.00
     20.8479528             -0.108506975            0.0716287243
      4.80830834            -0.146451658            0.3459121030
      1.34406986             1.128688580            0.7224699570
SP   1   1.00
      0.358151393            1.0000000              1.0000000
D    1   1.00
      3.5000000              1.0000000
D    1   1.00
      0.8750000              1.0000000
F    1   1.00
      1.8500000              1.0000000
****
Al     0
S    6   1.00
  13983.1000000              0.00194267
   2098.7500000              0.0148599
    477.7050000              0.0728494
    134.3600000              0.2468300
     42.8709000              0.4872580
     14.5189000              0.3234960
SP   6   1.00
    239.6680000             -0.00292619             0.00460285
     57.4419000             -0.0374080              0.0331990
     18.2859000             -0.1144870              0.1362820
      6.5991400              0.1156350              0.3304760
      2.4904900              0.6125950              0.4491460
      0.9445400              0.3937990              0.2657040
SP   3   1.00
      1.2779000             -0.2276060             -0.0175130
      0.3975900              0.00144583             0.2445330
      0.1600950              1.0927900              0.8049340
SP   1   1.00
      0.0556577              1.0000000              1.0000000
D    1   1.00
      0.6500000              1.0000000
D    1   1.00
      0.1625000              1.0000000
F    1   1.00
      0.2500000              1.0000000
****
Si     0
S    6   1.00
  16115.9000000              0.00195948
   2425.5800000              0.01492880
    553.8670000              0.07284780
    156.3400000              0.24613000
     50.0683000              0.48591400
     17.0178000              0.32500200
SP   6   1.00
    292.7180000             -0.00278094             0.00443826
     69.8731000             -0.03571460             0.03266790
     22.3363000             -0.11498500             0.13472100
      8.1503900              0.09356340             0.32867800
      3.1345800              0.60301700             0.44964000
      1.2254300              0.41895900             0.26137200
SP   3   1.00
      1.7273800             -0.24463000            -0.01779510
      0.5729220              0.00431572             0.25353900
      0.2221920              1.09818000             0.80066900
SP   1   1.00
      0.0778369              1.00000000             1.00000000
D    1   1.00
      0.9000000              1.0000000
D    1   1.00
      0.2250000              1.0000000
F    1   1.00
      0.3200000              1.0000000
****
P     0
S    6   1.00
  19413.3000000              0.0018516
   2909.4200000              0.0142062
    661.3640000              0.0699995
    185.7590000              0.2400790
     59.1943000              0.4847620
     20.0310000              0.3352000
SP   6   1.00
    339.4780000             -0.00278217             0.00456462
     81.0101000             -0.0360499              0.03369360
     25.8780000             -0.1166310              0.13975500
      9.4522100              0.0968328              0.33936200
      3.6656600              0.6144180              0.45092100
      1.4674600              0.4037980              0.23858600
SP   3   1.00
      2.1562300             -0.2529230             -0.01776530
      0.7489970              0.0328517              0.27405800
      0.2831450              1.0812500              0.78542100
SP   1   1.00
      0.0998317              1.0000000              1.00000000
D    1   1.00
      1.1000000              1.0000000
D    1   1.00
      0.2750000              1.0000000
F    1   1.00
      0.4500000              1.0000000
****
S     0
S    6   1.00
  21917.1000000              0.0018690
   3301.4900000              0.0142300
    754.1460000              0.0696960
    212.7110000              0.2384870
     67.9896000              0.4833070
     23.0515000              0.3380740
SP   6   1.00
    423.7350000             -0.0023767              0.0040610
    100.7100000             -0.0316930              0.0306810
     32.1599000             -0.1133170              0.1304520
     11.8079000              0.0560900              0.3272050
      4.6311000              0.5922550              0.4528510
      1.8702500              0.4550060              0.2560420
SP   3   1.00
      2.6158400             -0.2503740             -0.0145110
      0.9221670              0.0669570              0.3102630
      0.3412870              1.0545100              0.7544830
SP   1   1.00
      0.1171670              1.0000000              1.0000000
D    1   1.00
      1.3000000              1.0000000
D    1   1.00
      0.3250000              1.0000000
F    1   1.00
      0.5500000              1.0000000
****
Cl     0
S    6   1.00
  25180.1000000              0.0018330
   3780.3500000              0.0140340
    860.4740000              0.0690970
    242.1450000              0.2374520
     77.3349000              0.4830340
     26.2470000              0.3398560
SP   6   1.00
    491.7650000             -0.0022974              0.0039894
    116.9840000             -0.0307140              0.0303180
     37.4153000             -0.1125280              0.1298800
     13.7834000              0.0450160              0.3279510
      5.4521500              0.5893530              0.4535270
      2.2258800              0.4652060              0.2521540
SP   3   1.00
      3.1864900             -0.2518300             -0.0142990
      1.1442700              0.0615890              0.3235720
      0.4203770              1.0601800              0.7435070
SP   1   1.00
      0.1426570              1.0000000              1.0000000
D    1   1.00
      1.5000000              1.0000000
D    1   1.00
      0.3750000              1.0000000
F    1   1.00
      0.7000000              1.0000000
****
}

set {
reference uhf
freeze_core true
e_convergence 10
d_convergence 10
dft_spherical_points 1202
dft_radial_points 99
}

e = energy('b3lyp')

print_out('Grab this energy {0}'.format(e))
--------------------------------------------------------------------------

    Molecular point group: c1

    Geometry (in Bohr), charge = 0, multiplicity = 2:

       Center              X                  Y                   Z               Mass
    ------------   -----------------  -----------------  -----------------  -----------------
         C           -0.323340349290    -0.000002124151     0.000345361656    12.000000000000
         C            0.062019064110    -1.400406028051    -2.426066661944    12.000000000000
         C            0.061019634210     2.801759541049    -0.000502666644    12.000000000000
         C            0.060262045510    -1.401349176751     2.426694745656    12.000000000000
         H            2.093362059610    -1.645710119051    -2.852516102544     1.007825032230
         H           -0.766304168990    -0.384641617951    -4.026236023844     1.007825032230
         H           -0.765591640590    -3.293354987551    -2.344679604444     1.007825032230
         H            2.086797485210     3.288103427649    -0.002276847644     1.007825032230
         H           -0.764774203390     3.678341570649     1.676350170556     1.007825032230
         H           -0.766519412390     3.682167336049    -1.676648917344     1.007825032230
         H            2.080499904810    -1.642491785451     2.842388707756     1.007825032230
         H           -0.765537050590    -3.290640381851     2.353288257156     1.007825032230
         H           -0.764505382790    -0.391799781551     4.024724878756     1.007825032230

  Charge       = 0
  Multiplicity = 2
  Basis Set: ANONYMOUS5780E648
    Blend: 6-31G_2DFP_
  Basis Set: (ANONYMOUS5780E648 AUX)
    Blend: DEF2-UNIVERSAL-JKFIT

    Orbital Energies [Eh]
    ---------------------

    Alpha Occupied:

       1A    -10.180343     2A    -10.167566     3A    -10.167016
       4A    -10.166462     5A     -0.797768     6A     -0.686539
       7A     -0.685837     8A     -0.530775     9A     -0.441130
      10A     -0.434671    11A     -0.434670    12A     -0.383045
      13A     -0.382150    14A     -0.363612    15A     -0.338120
      16A     -0.337877    17A     -0.168962

    Alpha Virtual:

      18A      0.076071    19A      0.134102    20A      0.134196
      21A      0.142530    22A      0.142735    23A      0.154875
      24A      0.178321    25A      0.179238    26A      0.203550
      27A      0.214803    28A      0.275961    29A      0.276009
      30A      0.399182    31A      0.399274    32A      0.403344
      33A      0.423899    34A      0.424295    35A      0.456594
      36A      0.495329    37A      0.495447    38A      0.512164
      39A      0.513980    40A      0.578800    41A      0.578810
      42A      0.591040    43A      0.592149    44A      0.602675
      45A      0.624766    46A      0.631763    47A      0.636088
      48A      0.636417    49A      0.663275    50A      0.663561
      51A      0.683655    52A      0.684057    53A      0.734994
      54A      0.825061    55A      0.825740    56A      0.853921
      57A      0.914715    58A      0.915329    59A      0.944128
      60A      0.944606    61A      0.961134    62A      0.961474
      63A      1.003454    64A      1.128028    65A      1.128182
      66A      1.142212    67A      1.163025    68A      1.163518
      69A      1.223320    70A      1.274410    71A      1.274570
      72A      1.279363    73A      1.324067    74A      1.324636
      75A      1.355935    76A      1.365806    77A      1.366327
      78A      1.392452    79A      1.403163    80A      1.404910
      81A      1.416459    82A      1.417768    83A      1.427927
      84A      1.491496    85A      1.499072    86A      1.542773
      87A      1.542899    88A      1.574252    89A      1.574664
      90A      1.669821    91A      1.739346    92A      1.739414
      93A      1.768370    94A      1.830253    95A      1.832594
      96A      1.971718    97A      2.018037    98A      2.019031
      99A      2.019272   100A      2.052283   101A      2.053081
     102A      2.738058   103A      2.738929   104A      2.790928
     105A      2.811425   106A      2.889745   107A      2.890009
     108A      2.895087   109A      2.929293   110A      2.929700
     111A      2.958980   112A      2.964053   113A      2.964738
     114A      3.034017   115A      3.070413   116A      3.072144
     117A      3.084397   118A      3.168426   119A      3.169142
     120A      3.180587   121A      3.285131   122A      3.285501
     123A      3.326243   124A      3.328083   125A      3.375614
     126A      3.489927   127A      3.490392   128A      3.514002
     129A      3.525345   130A      3.568047   131A      3.568382
     132A      3.575496   133A      3.665194   134A      3.667543
     135A      3.679553   136A      3.693047   137A      3.695278
     138A      3.776281   139A      3.777320   140A      3.789194
     141A      3.911899   142A      3.912533   143A      4.034421
     144A      4.110426   145A      4.112139   146A      4.146130
     147A      4.150057   148A      4.173362   149A      4.201399
     150A      4.202885   151A      4.204354   152A      4.211203
     153A      4.315065   154A      4.316845   155A      4.358915
     156A      4.424313   157A      4.424584   158A      4.443561
     159A      4.515959   160A      4.517671   161A      4.577806
     162A      4.578733   163A      4.617586   164A      4.709417
     165A      4.773908   166A      4.775303   167A      4.836913
     168A      4.962846   169A      5.001851   170A      5.004090
     171A      5.227834   172A      5.243673   173A      5.249939
     174A      5.352655   175A      5.358595   176A      5.479417

    Beta Occupied:

       1A    -10.168331     2A    -10.167775     3A    -10.167220
       4A    -10.166517     5A     -0.781093     6A     -0.684336
       7A     -0.683644     8A     -0.511747     9A     -0.431042
      10A     -0.431042    11A     -0.421829    12A     -0.377144
      13A     -0.376218    14A     -0.362595    15A     -0.333239
      16A     -0.333005

    Beta Virtual:

      17A     -0.025744    18A      0.077080    19A      0.135024
      20A      0.135058    21A      0.144373    22A      0.144630
      23A      0.163334    24A      0.181997    25A      0.182905
      26A      0.215033    27A      0.218932    28A      0.282312
      29A      0.282355    30A      0.400358    31A      0.400436
      32A      0.419790    33A      0.426706    34A      0.427111
      35A      0.468501    36A      0.497592    37A      0.497707
      38A      0.513899    39A      0.556325    40A      0.584353
      41A      0.584360    42A      0.597244    43A      0.598319
      44A      0.610076    45A      0.628144    46A      0.631927
      47A      0.639392    48A      0.639681    49A      0.666833
      50A      0.667130    51A      0.686309    52A      0.686674
      53A      0.757517    54A      0.830201    55A      0.830937
      56A      0.855275    57A      0.922711    58A      0.923277
      59A      0.945965    60A      0.953528    61A      0.966458
      62A      0.966767    63A      1.008694    64A      1.132118
      65A      1.132151    66A      1.155587    67A      1.168051
      68A      1.168637    69A      1.232293    70A      1.279993
      71A      1.280182    72A      1.285117    73A      1.329015
      74A      1.329667    75A      1.365309    76A      1.371099
      77A      1.371562    78A      1.393514    79A      1.406602
      80A      1.408398    81A      1.421464    82A      1.422854
      83A      1.428205    84A      1.492545    85A      1.509511
      86A      1.547040    87A      1.547456    88A      1.582022
      89A      1.582631    90A      1.674667    91A      1.745111
      92A      1.745185    93A      1.779138    94A      1.834133
      95A      1.836424    96A      1.972578    97A      2.025407
      98A      2.025456    99A      2.039636   100A      2.059054
     101A      2.059759   102A      2.746392   103A      2.747267
     104A      2.811837   105A      2.816064   106A      2.902605
     107A      2.902635   108A      2.924674   109A      2.931738
     110A      2.932224   111A      2.960055   112A      2.968553
     113A      2.969319   114A      3.041949   115A      3.080205
     116A      3.082122   117A      3.086265   118A      3.184132
     119A      3.184925   120A      3.188279   121A      3.289866
     122A      3.290364   123A      3.330078   124A      3.331856
     125A      3.383433   126A      3.492649   127A      3.493132
     128A      3.512366   129A      3.528389   130A      3.574684
     131A      3.581668   132A      3.582111   133A      3.669898
     134A      3.672326   135A      3.692919   136A      3.724900
     137A      3.726641   138A      3.780812   139A      3.781847
     140A      3.817722   141A      3.921736   142A      3.922332
     143A      4.045304   144A      4.117477   145A      4.118698
     146A      4.153651   147A      4.156994   148A      4.187403
     149A      4.208090   150A      4.208917   151A      4.211472
     152A      4.215685   153A      4.322656   154A      4.324130
     155A      4.362281   156A      4.432556   157A      4.432727
     158A      4.446484   159A      4.523818   160A      4.525394
     161A      4.588439   162A      4.589304   163A      4.624778
     164A      4.719758   165A      4.780800   166A      4.782319
     167A      4.839831   168A      4.967643   169A      5.005923
     170A      5.008097   171A      5.233539   172A      5.245465
     173A      5.251729   174A      5.359141   175A      5.365066
     176A      5.481738

    Final Occupation by Irrep:
              A
    DOCC [    16 ]
    SOCC [     1 ]

  @DF-UKS Final Energy:  -157.81305240109390

   => Energetics <=

    Nuclear Repulsion Energy =            125.3946668666035293
    One-Electron Energy =                -458.7489468204028640
    Two-Electron Energy =                 195.8483756339399235
    DFT Exchange-Correlation Energy =     -20.3071480812344909
    Empirical Dispersion Energy =           0.0000000000000000
    VV10 Nonlocal Energy =                  0.0000000000000000
    Total Energy =                       -157.8130524010938984

  UHF NO Occupations:
  HONO-2 :   15  A 1.9996008
  HONO-1 :   16  A 1.9989804
  HONO-0 :   17  A 1.0000000
  LUNO+0 :   18  A 0.0010196
  LUNO+1 :   19  A 0.0003992
  LUNO+2 :   20  A 0.0001977
  LUNO+3 :   21  A 0.0001973

Computation Completed

Properties will be evaluated at   0.000000,   0.000000,   0.000000 [a0]

Properties computed using the SCF density matrix

  Nuclear Dipole Moment: [e a0]
     X:     0.8272      Y:    -0.0000      Z:    -0.0028

  Electronic Dipole Moment: [e a0]
     X:    -0.7493      Y:     0.0000      Z:     0.0060

  Dipole Moment: [e a0]
     X:     0.0779      Y:     0.0000      Z:     0.0032     Total:     0.0780

  Dipole Moment: [D]
     X:     0.1980      Y:     0.0000      Z:     0.0082     Total:     0.1982

*** tstop() called on n056 at Fri Nov  5 15:03:22 2021
Module time:
	user time   =     541.88 seconds =       9.03 minutes
	system time =      11.97 seconds =       0.20 minutes
	total time  =        140 seconds =       2.33 minutes
Total time:
	user time   =     541.88 seconds =       9.03 minutes
	system time =      11.97 seconds =       0.20 minutes
	total time  =        140 seconds =       2.33 minutes
Grab this energy -157.8130524010939
    Psi4 stopped on: Friday, 05 November 2021 03:03PM
    Psi4 wall time for execution: 0:02:19.26

*** Psi4 exiting successfully. Buy a developer a beer!
