                               Psi4 1.4a2.dev629

  ==> Input File <==

--------------------------------------------------------------------------
import os
memory 14 GB

molecule {
 C   -0.3233285557   -0.0019974466    0.0000000000
 C    0.0612460006   -1.4023498913   -2.4269350881
 C    0.0613562257    2.8042474419    0.0000000000
 C    0.0612460006   -1.4023498913    2.4269350881
 H    2.0870964197   -1.6457761857   -2.8432512965
 H   -0.7640798374   -0.3852550786   -4.0211433130
 H   -0.7666206296   -3.2934059068   -2.3533676403
 H    2.0866232071    3.2921968079    0.0000000000
 H   -0.7662713302    3.6795515039    1.6773690237
 H   -0.7662713302    3.6795515039   -1.6773690237
 H    2.0870964197   -1.6457761857    2.8432512965
 H   -0.7666206296   -3.2934059068    2.3533676403
 H   -0.7640798374   -0.3852550786    4.0211433130
units bohr
0 2
}

basis {

assign 6-31g_2dfp_

[ 6-31g_2dfp_ ]

spherical

!----------------------------------------------------------------------
! Basis Set Exchange
! Version v0.8.13
! https://www.basissetexchange.org
!----------------------------------------------------------------------
!   Basis set: 6-31G(2df,p)
! Description: 6-31G(2df,p)
!        Role: orbital
!     Version: 0  (Data from the original Basis Set Exchange)
!----------------------------------------------------------------------

****
H     0
S    3   1.00
     18.7311370              0.03349460
      2.8253937              0.23472695
      0.6401217              0.81375733
S    1   1.00
      0.1612778              1.00000000
P    1   1.00
      1.5000000              1.0000000
P    1   1.00
      0.3750000              1.0000000
****
B     0
S    6   1.00
   2068.8823000              0.0018663
    310.6495700              0.0142515
     70.6830330              0.0695516
     19.8610800              0.2325729
      6.2993048              0.4670787
      2.1270270              0.3634314
SP   3   1.00
      4.7279710             -0.1303938              0.0745976
      1.1903377             -0.1307889              0.3078467
      0.3594117              1.1309444              0.7434568
SP   1   1.00
      0.1267512              1.0000000              1.0000000
D    1   1.00
      0.8020000              1.0000000
D    1   1.00
      0.2005000              1.0000000
F    1   1.00
      0.5000000              1.0000000
****
C     0
S    6   1.00
   3047.5249000              0.0018347
    457.3695100              0.0140373
    103.9486900              0.0688426
     29.2101550              0.2321844
      9.2866630              0.4679413
      3.1639270              0.3623120
SP   3   1.00
      7.8682724             -0.1193324              0.0689991
      1.8812885             -0.1608542              0.3164240
      0.5442493              1.1434564              0.7443083
SP   1   1.00
      0.1687144              1.0000000              1.0000000
D    1   1.00
      1.2520000              1.0000000
D    1   1.00
      0.3130000              1.0000000
F    1   1.00
      0.8000000              1.0000000
****
N     0
S    6   1.00
   4173.5110000              0.0018348
    627.4579000              0.0139950
    142.9021000              0.0685870
     40.2343300              0.2322410
     12.8202100              0.4690700
      4.3904370              0.3604550
SP   3   1.00
     11.6263580             -0.1149610              0.0675800
      2.7162800             -0.1691180              0.3239070
      0.7722180              1.1458520              0.7408950
SP   1   1.00
      0.2120313              1.0000000              1.0000000
D    1   1.00
      1.8260000              1.0000000
D    1   1.00
      0.4565000              1.0000000
F    1   1.00
      1.0000000              1.0000000
****
O     0
S    6   1.00
   5484.6717000              0.0018311
    825.2349500              0.0139501
    188.0469600              0.0684451
     52.9645000              0.2327143
     16.8975700              0.4701930
      5.7996353              0.3585209
SP   3   1.00
     15.5396160             -0.1107775              0.0708743
      3.5999336             -0.1480263              0.3397528
      1.0137618              1.1307670              0.7271586
SP   1   1.00
      0.2700058              1.0000000              1.0000000
D    1   1.00
      2.5840000              1.0000000
D    1   1.00
      0.6460000              1.0000000
F    1   1.00
      1.4000000              1.0000000
****
F     0
S    6   1.00
   7001.7130900              0.0018196169
   1051.3660900              0.0139160796
    239.2856900              0.0684053245
     67.3974453              0.233185760
     21.5199573              0.471267439
      7.40310130             0.356618546
SP   3   1.00
     20.8479528             -0.108506975            0.0716287243
      4.80830834            -0.146451658            0.3459121030
      1.34406986             1.128688580            0.7224699570
SP   1   1.00
      0.358151393            1.0000000              1.0000000
D    1   1.00
      3.5000000              1.0000000
D    1   1.00
      0.8750000              1.0000000
F    1   1.00
      1.8500000              1.0000000
****
Al     0
S    6   1.00
  13983.1000000              0.00194267
   2098.7500000              0.0148599
    477.7050000              0.0728494
    134.3600000              0.2468300
     42.8709000              0.4872580
     14.5189000              0.3234960
SP   6   1.00
    239.6680000             -0.00292619             0.00460285
     57.4419000             -0.0374080              0.0331990
     18.2859000             -0.1144870              0.1362820
      6.5991400              0.1156350              0.3304760
      2.4904900              0.6125950              0.4491460
      0.9445400              0.3937990              0.2657040
SP   3   1.00
      1.2779000             -0.2276060             -0.0175130
      0.3975900              0.00144583             0.2445330
      0.1600950              1.0927900              0.8049340
SP   1   1.00
      0.0556577              1.0000000              1.0000000
D    1   1.00
      0.6500000              1.0000000
D    1   1.00
      0.1625000              1.0000000
F    1   1.00
      0.2500000              1.0000000
****
Si     0
S    6   1.00
  16115.9000000              0.00195948
   2425.5800000              0.01492880
    553.8670000              0.07284780
    156.3400000              0.24613000
     50.0683000              0.48591400
     17.0178000              0.32500200
SP   6   1.00
    292.7180000             -0.00278094             0.00443826
     69.8731000             -0.03571460             0.03266790
     22.3363000             -0.11498500             0.13472100
      8.1503900              0.09356340             0.32867800
      3.1345800              0.60301700             0.44964000
      1.2254300              0.41895900             0.26137200
SP   3   1.00
      1.7273800             -0.24463000            -0.01779510
      0.5729220              0.00431572             0.25353900
      0.2221920              1.09818000             0.80066900
SP   1   1.00
      0.0778369              1.00000000             1.00000000
D    1   1.00
      0.9000000              1.0000000
D    1   1.00
      0.2250000              1.0000000
F    1   1.00
      0.3200000              1.0000000
****
P     0
S    6   1.00
  19413.3000000              0.0018516
   2909.4200000              0.0142062
    661.3640000              0.0699995
    185.7590000              0.2400790
     59.1943000              0.4847620
     20.0310000              0.3352000
SP   6   1.00
    339.4780000             -0.00278217             0.00456462
     81.0101000             -0.0360499              0.03369360
     25.8780000             -0.1166310              0.13975500
      9.4522100              0.0968328              0.33936200
      3.6656600              0.6144180              0.45092100
      1.4674600              0.4037980              0.23858600
SP   3   1.00
      2.1562300             -0.2529230             -0.01776530
      0.7489970              0.0328517              0.27405800
      0.2831450              1.0812500              0.78542100
SP   1   1.00
      0.0998317              1.0000000              1.00000000
D    1   1.00
      1.1000000              1.0000000
D    1   1.00
      0.2750000              1.0000000
F    1   1.00
      0.4500000              1.0000000
****
S     0
S    6   1.00
  21917.1000000              0.0018690
   3301.4900000              0.0142300
    754.1460000              0.0696960
    212.7110000              0.2384870
     67.9896000              0.4833070
     23.0515000              0.3380740
SP   6   1.00
    423.7350000             -0.0023767              0.0040610
    100.7100000             -0.0316930              0.0306810
     32.1599000             -0.1133170              0.1304520
     11.8079000              0.0560900              0.3272050
      4.6311000              0.5922550              0.4528510
      1.8702500              0.4550060              0.2560420
SP   3   1.00
      2.6158400             -0.2503740             -0.0145110
      0.9221670              0.0669570              0.3102630
      0.3412870              1.0545100              0.7544830
SP   1   1.00
      0.1171670              1.0000000              1.0000000
D    1   1.00
      1.3000000              1.0000000
D    1   1.00
      0.3250000              1.0000000
F    1   1.00
      0.5500000              1.0000000
****
Cl     0
S    6   1.00
  25180.1000000              0.0018330
   3780.3500000              0.0140340
    860.4740000              0.0690970
    242.1450000              0.2374520
     77.3349000              0.4830340
     26.2470000              0.3398560
SP   6   1.00
    491.7650000             -0.0022974              0.0039894
    116.9840000             -0.0307140              0.0303180
     37.4153000             -0.1125280              0.1298800
     13.7834000              0.0450160              0.3279510
      5.4521500              0.5893530              0.4535270
      2.2258800              0.4652060              0.2521540
SP   3   1.00
      3.1864900             -0.2518300             -0.0142990
      1.1442700              0.0615890              0.3235720
      0.4203770              1.0601800              0.7435070
SP   1   1.00
      0.1426570              1.0000000              1.0000000
D    1   1.00
      1.5000000              1.0000000
D    1   1.00
      0.3750000              1.0000000
F    1   1.00
      0.7000000              1.0000000
****
}

set {
reference uhf
freeze_core true
e_convergence 10
d_convergence 10
dft_spherical_points 1202
dft_radial_points 99
}

e = energy('b3lyp')

print_out('Grab this energy {0}'.format(e))
--------------------------------------------------------------------------

    Molecular point group: cs

    Geometry (in Bohr), charge = 0, multiplicity = 2:

       Center              X                  Y                   Z               Mass
    ------------   -----------------  -----------------  -----------------  -----------------
         C           -0.323436349485    -0.001525170556     0.000000000000    12.000000000000
         C            0.061138206815    -1.401877615256    -2.426935088100    12.000000000000
         C            0.061248431915     2.804719717944     0.000000000000    12.000000000000
         C            0.061138206815    -1.401877615256     2.426935088100    12.000000000000
         H            2.086988625915    -1.645303909656    -2.843251296500     1.007825032230
         H           -0.764187631185    -0.384782802556    -4.021143313000     1.007825032230
         H           -0.766728423385    -3.292933630756    -2.353367640300     1.007825032230
         H            2.086515413315     3.292669083944     0.000000000000     1.007825032230
         H           -0.766379123985     3.680023779944     1.677369023700     1.007825032230
         H           -0.766379123985     3.680023779944    -1.677369023700     1.007825032230
         H            2.086988625915    -1.645303909656     2.843251296500     1.007825032230
         H           -0.766728423385    -3.292933630756     2.353367640300     1.007825032230
         H           -0.764187631185    -0.384782802556     4.021143313000     1.007825032230

  Charge       = 0
  Multiplicity = 2
  Basis Set: ANONYMOUS44724FFA
    Blend: 6-31G_2DFP_
  Basis Set: (ANONYMOUS44724FFA AUX)
    Blend: DEF2-UNIVERSAL-JKFIT

    Orbital Energies [Eh]
    ---------------------

    Alpha Occupied:

       1Ap   -10.180393     2Ap   -10.167146     1App  -10.166886
       3Ap   -10.166854     4Ap    -0.797510     2App   -0.686299
       5Ap    -0.686056     6Ap    -0.530609     7Ap    -0.441119
       3App   -0.434675     8Ap    -0.434530     4App   -0.382771
       9Ap    -0.382701     5App   -0.363813     6App   -0.337902
      10Ap    -0.337773    11Ap    -0.168940

    Alpha Virtual:

      12Ap     0.076081    13Ap     0.134182     7App    0.134247
       8App    0.142700    14Ap     0.142819    15Ap     0.154774
       9App    0.178903    16Ap     0.178984    17Ap     0.203256
      10App    0.214928    18Ap     0.275476    11App    0.276011
      19Ap     0.399189    12App    0.399273    20Ap     0.403443
      13App    0.424096    21Ap     0.424208    22Ap     0.456412
      14App    0.495340    23Ap     0.495458    15App    0.512214
      24Ap     0.514037    25Ap     0.578562    16App    0.579152
      26Ap     0.591437    17App    0.592028    27Ap     0.602618
      28Ap     0.624879    18App    0.632007    29Ap     0.636164
      19App    0.636228    20App    0.663264    30Ap     0.663329
      31Ap     0.683835    21App    0.683898    32Ap     0.735125
      22App    0.825169    33Ap     0.825603    23App    0.853779
      34Ap     0.914919    24App    0.915203    25App    0.944077
      35Ap     0.944300    26App    0.960667    36Ap     0.962056
      37Ap     1.003632    27App    1.127821    38Ap     1.128232
      39Ap     1.141804    28App    1.163785    40Ap     1.163986
      41Ap     1.222906    42Ap     1.274206    29App    1.274516
      43Ap     1.279186    30App    1.324152    44Ap     1.324163
      45Ap     1.355659    46Ap     1.365751    31App    1.366074
      32App    1.392942    47Ap     1.404465    33App    1.405093
      48Ap     1.416727    34App    1.417514    35App    1.428166
      36App    1.490972    49Ap     1.499659    37App    1.542394
      50Ap     1.542938    38App    1.574337    51Ap     1.574350
      52Ap     1.670619    53Ap     1.738529    39App    1.739292
      54Ap     1.768338    55Ap     1.831353    40App    1.832327
      41App    1.971135    56Ap     2.017896    42App    2.018244
      57Ap     2.018969    58Ap     2.051406    43App    2.053031
      44App    2.738036    59Ap     2.738583    60Ap     2.790703
      45App    2.811329    61Ap     2.889535    46App    2.890130
      62Ap     2.894581    63Ap     2.929627    47App    2.929677
      48App    2.959044    49App    2.964260    64Ap     2.964546
      65Ap     3.033837    50App    3.071194    66Ap     3.071474
      51App    3.083947    67Ap     3.168475    52App    3.168890
      68Ap     3.179988    69Ap     3.285604    53App    3.285686
      70Ap     3.326576    54App    3.327246    71Ap     3.375708
      72Ap     3.489923    55App    3.490194    56App    3.513870
      73Ap     3.524956    74Ap     3.567867    57App    3.568357
      58App    3.575377    59App    3.666948    75Ap     3.667324
      76Ap     3.680201    77Ap     3.693803    60App    3.694741
      61App    3.775515    78Ap     3.777984    79Ap     3.789443
      80Ap     3.910861    62App    3.911399    81Ap     4.033899
      82Ap     4.110391    63App    4.112878    83Ap     4.147208
      64App    4.149027    84Ap     4.172607    85Ap     4.201753
      86Ap     4.202394    65App    4.202433    66App    4.210504
      87Ap     4.315266    67App    4.316821    68App    4.359664
      69App    4.425384    88Ap     4.425904    70App    4.445411
      89Ap     4.516086    71App    4.516914    90Ap     4.577201
      72App    4.577874    91Ap     4.617139    92Ap     4.708171
      73App    4.772688    93Ap     4.774880    74App    4.835616
      94Ap     4.964176    95Ap     5.003500    75App    5.004179
      96Ap     5.228563    76App    5.246615    97Ap     5.247572
      98Ap     5.354622    77App    5.356060    78App    5.478141

    Beta Occupied:

       1Ap   -10.167903     1App  -10.167637     2Ap   -10.167622
       3Ap   -10.166560     4Ap    -0.780850     2App   -0.684100
       5Ap    -0.683872     6Ap    -0.511534     3App   -0.431055
       7Ap    -0.430937     8Ap    -0.421851     4App   -0.376868
       9Ap    -0.376807     5App   -0.362801     6App   -0.333007
      10Ap    -0.332885

    Beta Virtual:

      11Ap    -0.025573    12Ap     0.077086    13Ap     0.135071
       7App    0.135120     8App    0.144567    14Ap     0.144690
      15Ap     0.163192     9App    0.182578    16Ap     0.182622
      10App    0.215156    17Ap     0.218687    18Ap     0.281854
      11App    0.282368    19Ap     0.400359    12App    0.400435
      20Ap     0.419873    13App    0.426904    21Ap     0.427022
      22Ap     0.468244    14App    0.497596    23Ap     0.497709
      15App    0.513940    24Ap     0.556413    25Ap     0.584113
      16App    0.584704    26Ap     0.597640    17App    0.598203
      27Ap     0.610047    28Ap     0.628218    18App    0.632159
      29Ap     0.639413    19App    0.639517    20App    0.666824
      30Ap     0.666892    31Ap     0.686439    21App    0.686544
      32Ap     0.757725    22App    0.830301    33Ap     0.830778
      23App    0.855120    34Ap     0.922929    24App    0.923141
      25App    0.945908    35Ap     0.953212    26App    0.966019
      36Ap     0.967302    37Ap     1.008882    27App    1.131783
      38Ap     1.132341    39Ap     1.155146    28App    1.168948
      40Ap     1.168987    41Ap     1.231936    42Ap     1.279772
      29App    1.280079    43Ap     1.284964    44Ap     1.329113
      30App    1.329136    45Ap     1.365066    46Ap     1.371084
      31App    1.371348    32App    1.393991    47Ap     1.407874
      33App    1.408550    48Ap     1.421781    34App    1.422558
      35App    1.428447    36App    1.492007    49Ap     1.510081
      37App    1.546780    50Ap     1.547323    38App    1.582227
      51Ap     1.582241    52Ap     1.675472    53Ap     1.744285
      39App    1.745063    54Ap     1.779077    55Ap     1.835187
      40App    1.836155    41App    1.971987    42App    2.024577
      56Ap     2.024687    57Ap     2.039900    58Ap     2.058133
      43App    2.059809    44App    2.746418    59Ap     2.746937
      45App    2.811744    60Ap     2.815870    61Ap     2.902356
      46App    2.902796    62Ap     2.924220    63Ap     2.932092
      47App    2.932114    48App    2.960108    49App    2.968791
      64Ap     2.969042    65Ap     3.041729    50App    3.081070
      66Ap     3.081330    51App    3.085756    67Ap     3.184290
      52App    3.184769    68Ap     3.187690    69Ap     3.290330
      53App    3.290460    70Ap     3.330404    54App    3.331038
      71Ap     3.383494    72Ap     3.492663    55App    3.492896
      56App    3.512240    73Ap     3.528045    57App    3.575046
      74Ap     3.581228    58App    3.581986    75Ap     3.672026
      59App    3.672166    76Ap     3.693500    77Ap     3.725631
      60App    3.725894    61App    3.780023    78Ap     3.782402
      79Ap     3.818044    80Ap     3.920733    62App    3.921236
      81Ap     4.044865    82Ap     4.117225    63App    4.119486
      83Ap     4.154450    64App    4.156309    84Ap     4.186607
      85Ap     4.208290    65App    4.208387    86Ap     4.209710
      66App    4.214961    87Ap     4.322772    67App    4.324371
      68App    4.363011    69App    4.433578    88Ap     4.434012
      70App    4.448294    89Ap     4.523822    71App    4.524630
      90Ap     4.587783    72App    4.588454    91Ap     4.624314
      92Ap     4.718514    73App    4.779683    93Ap     4.781794
      74App    4.838538    94Ap     4.968948    95Ap     5.007508
      75App    5.008205    96Ap     5.234262    76App    5.248381
      97Ap     5.249355    98Ap     5.361052    77App    5.362534
      78App    5.480455

    Final Occupation by Irrep:
             Ap   App
    DOCC [    10,    6 ]
    SOCC [     1,    0 ]

  @DF-UKS Final Energy:  -157.81304453841926

   => Energetics <=

    Nuclear Repulsion Energy =            125.3666741277483681
    One-Electron Energy =                -458.6939068964666717
    Two-Electron Energy =                 195.8214475740447256
    DFT Exchange-Correlation Energy =     -20.3072593437456739
    Empirical Dispersion Energy =           0.0000000000000000
    VV10 Nonlocal Energy =                  0.0000000000000000
    Total Energy =                       -157.8130445384192626

  UHF NO Occupations:
  HONO-2 :    9 Ap 1.9996025
  HONO-1 :   10 Ap 1.9989782
  HONO-0 :   11 Ap 1.0000000
  LUNO+0 :   12 Ap 0.0010218
  LUNO+1 :   13 Ap 0.0003975
  LUNO+2 :   14 Ap 0.0001987
  LUNO+3 :    7App 0.0001980

Computation Completed

Properties will be evaluated at   0.000000,   0.000000,   0.000000 [a0]

Properties computed using the SCF density matrix

  Nuclear Dipole Moment: [e a0]
     X:     0.8264      Y:     0.0033      Z:     0.0000

  Electronic Dipole Moment: [e a0]
     X:    -0.7484      Y:    -0.0033      Z:     0.0000

  Dipole Moment: [e a0]
     X:     0.0780      Y:    -0.0000      Z:     0.0000     Total:     0.0780

  Dipole Moment: [D]
     X:     0.1984      Y:    -0.0001      Z:     0.0000     Total:     0.1984

*** tstop() called on n083 at Fri Nov  5 13:25:52 2021
Module time:
	user time   =     493.82 seconds =       8.23 minutes
	system time =       4.41 seconds =       0.07 minutes
	total time  =        125 seconds =       2.08 minutes
Total time:
	user time   =     493.82 seconds =       8.23 minutes
	system time =       4.41 seconds =       0.07 minutes
	total time  =        125 seconds =       2.08 minutes
Grab this energy -157.81304453841926
    Psi4 stopped on: Friday, 05 November 2021 01:25PM
    Psi4 wall time for execution: 0:02:05.29

*** Psi4 exiting successfully. Buy a developer a beer!
