                               Psi4 1.4a2.dev629

  ==> Input File <==

--------------------------------------------------------------------------
import os
memory 14 GB

molecule {
 C   -0.3233405825    0.0002436017   -0.0004965566
 C    0.0605035236   -1.4008336362   -2.4264314745
 C    0.0599100849    2.8018822995   -0.0003818714
 C    0.0628870371   -1.4010836081    2.4260940894
 H    2.0921293180   -1.6467277492   -2.8489556791
 H   -0.7648042442   -0.3887760879   -4.0216034614
 H   -0.7678334837   -3.2892238558   -2.3504014129
 H    2.0835472461    3.2820127069   -0.0001798840
 H   -0.7684818198    3.6840524577    1.6769141470
 H   -0.7660849222    3.6831214336   -1.6763073561
 H    2.0849845080   -1.6472982511    2.8495938396
 H   -0.7633311280   -3.2933805443    2.3473699894
 H   -0.7626934142   -0.3840130805    4.0247856308
units bohr
0 2
}

basis {

assign 6-31g_2dfp_

[ 6-31g_2dfp_ ]

spherical

!----------------------------------------------------------------------
! Basis Set Exchange
! Version v0.8.13
! https://www.basissetexchange.org
!----------------------------------------------------------------------
!   Basis set: 6-31G(2df,p)
! Description: 6-31G(2df,p)
!        Role: orbital
!     Version: 0  (Data from the original Basis Set Exchange)
!----------------------------------------------------------------------

****
H     0
S    3   1.00
     18.7311370              0.03349460
      2.8253937              0.23472695
      0.6401217              0.81375733
S    1   1.00
      0.1612778              1.00000000
P    1   1.00
      1.5000000              1.0000000
P    1   1.00
      0.3750000              1.0000000
****
B     0
S    6   1.00
   2068.8823000              0.0018663
    310.6495700              0.0142515
     70.6830330              0.0695516
     19.8610800              0.2325729
      6.2993048              0.4670787
      2.1270270              0.3634314
SP   3   1.00
      4.7279710             -0.1303938              0.0745976
      1.1903377             -0.1307889              0.3078467
      0.3594117              1.1309444              0.7434568
SP   1   1.00
      0.1267512              1.0000000              1.0000000
D    1   1.00
      0.8020000              1.0000000
D    1   1.00
      0.2005000              1.0000000
F    1   1.00
      0.5000000              1.0000000
****
C     0
S    6   1.00
   3047.5249000              0.0018347
    457.3695100              0.0140373
    103.9486900              0.0688426
     29.2101550              0.2321844
      9.2866630              0.4679413
      3.1639270              0.3623120
SP   3   1.00
      7.8682724             -0.1193324              0.0689991
      1.8812885             -0.1608542              0.3164240
      0.5442493              1.1434564              0.7443083
SP   1   1.00
      0.1687144              1.0000000              1.0000000
D    1   1.00
      1.2520000              1.0000000
D    1   1.00
      0.3130000              1.0000000
F    1   1.00
      0.8000000              1.0000000
****
N     0
S    6   1.00
   4173.5110000              0.0018348
    627.4579000              0.0139950
    142.9021000              0.0685870
     40.2343300              0.2322410
     12.8202100              0.4690700
      4.3904370              0.3604550
SP   3   1.00
     11.6263580             -0.1149610              0.0675800
      2.7162800             -0.1691180              0.3239070
      0.7722180              1.1458520              0.7408950
SP   1   1.00
      0.2120313              1.0000000              1.0000000
D    1   1.00
      1.8260000              1.0000000
D    1   1.00
      0.4565000              1.0000000
F    1   1.00
      1.0000000              1.0000000
****
O     0
S    6   1.00
   5484.6717000              0.0018311
    825.2349500              0.0139501
    188.0469600              0.0684451
     52.9645000              0.2327143
     16.8975700              0.4701930
      5.7996353              0.3585209
SP   3   1.00
     15.5396160             -0.1107775              0.0708743
      3.5999336             -0.1480263              0.3397528
      1.0137618              1.1307670              0.7271586
SP   1   1.00
      0.2700058              1.0000000              1.0000000
D    1   1.00
      2.5840000              1.0000000
D    1   1.00
      0.6460000              1.0000000
F    1   1.00
      1.4000000              1.0000000
****
F     0
S    6   1.00
   7001.7130900              0.0018196169
   1051.3660900              0.0139160796
    239.2856900              0.0684053245
     67.3974453              0.233185760
     21.5199573              0.471267439
      7.40310130             0.356618546
SP   3   1.00
     20.8479528             -0.108506975            0.0716287243
      4.80830834            -0.146451658            0.3459121030
      1.34406986             1.128688580            0.7224699570
SP   1   1.00
      0.358151393            1.0000000              1.0000000
D    1   1.00
      3.5000000              1.0000000
D    1   1.00
      0.8750000              1.0000000
F    1   1.00
      1.8500000              1.0000000
****
Al     0
S    6   1.00
  13983.1000000              0.00194267
   2098.7500000              0.0148599
    477.7050000              0.0728494
    134.3600000              0.2468300
     42.8709000              0.4872580
     14.5189000              0.3234960
SP   6   1.00
    239.6680000             -0.00292619             0.00460285
     57.4419000             -0.0374080              0.0331990
     18.2859000             -0.1144870              0.1362820
      6.5991400              0.1156350              0.3304760
      2.4904900              0.6125950              0.4491460
      0.9445400              0.3937990              0.2657040
SP   3   1.00
      1.2779000             -0.2276060             -0.0175130
      0.3975900              0.00144583             0.2445330
      0.1600950              1.0927900              0.8049340
SP   1   1.00
      0.0556577              1.0000000              1.0000000
D    1   1.00
      0.6500000              1.0000000
D    1   1.00
      0.1625000              1.0000000
F    1   1.00
      0.2500000              1.0000000
****
Si     0
S    6   1.00
  16115.9000000              0.00195948
   2425.5800000              0.01492880
    553.8670000              0.07284780
    156.3400000              0.24613000
     50.0683000              0.48591400
     17.0178000              0.32500200
SP   6   1.00
    292.7180000             -0.00278094             0.00443826
     69.8731000             -0.03571460             0.03266790
     22.3363000             -0.11498500             0.13472100
      8.1503900              0.09356340             0.32867800
      3.1345800              0.60301700             0.44964000
      1.2254300              0.41895900             0.26137200
SP   3   1.00
      1.7273800             -0.24463000            -0.01779510
      0.5729220              0.00431572             0.25353900
      0.2221920              1.09818000             0.80066900
SP   1   1.00
      0.0778369              1.00000000             1.00000000
D    1   1.00
      0.9000000              1.0000000
D    1   1.00
      0.2250000              1.0000000
F    1   1.00
      0.3200000              1.0000000
****
P     0
S    6   1.00
  19413.3000000              0.0018516
   2909.4200000              0.0142062
    661.3640000              0.0699995
    185.7590000              0.2400790
     59.1943000              0.4847620
     20.0310000              0.3352000
SP   6   1.00
    339.4780000             -0.00278217             0.00456462
     81.0101000             -0.0360499              0.03369360
     25.8780000             -0.1166310              0.13975500
      9.4522100              0.0968328              0.33936200
      3.6656600              0.6144180              0.45092100
      1.4674600              0.4037980              0.23858600
SP   3   1.00
      2.1562300             -0.2529230             -0.01776530
      0.7489970              0.0328517              0.27405800
      0.2831450              1.0812500              0.78542100
SP   1   1.00
      0.0998317              1.0000000              1.00000000
D    1   1.00
      1.1000000              1.0000000
D    1   1.00
      0.2750000              1.0000000
F    1   1.00
      0.4500000              1.0000000
****
S     0
S    6   1.00
  21917.1000000              0.0018690
   3301.4900000              0.0142300
    754.1460000              0.0696960
    212.7110000              0.2384870
     67.9896000              0.4833070
     23.0515000              0.3380740
SP   6   1.00
    423.7350000             -0.0023767              0.0040610
    100.7100000             -0.0316930              0.0306810
     32.1599000             -0.1133170              0.1304520
     11.8079000              0.0560900              0.3272050
      4.6311000              0.5922550              0.4528510
      1.8702500              0.4550060              0.2560420
SP   3   1.00
      2.6158400             -0.2503740             -0.0145110
      0.9221670              0.0669570              0.3102630
      0.3412870              1.0545100              0.7544830
SP   1   1.00
      0.1171670              1.0000000              1.0000000
D    1   1.00
      1.3000000              1.0000000
D    1   1.00
      0.3250000              1.0000000
F    1   1.00
      0.5500000              1.0000000
****
Cl     0
S    6   1.00
  25180.1000000              0.0018330
   3780.3500000              0.0140340
    860.4740000              0.0690970
    242.1450000              0.2374520
     77.3349000              0.4830340
     26.2470000              0.3398560
SP   6   1.00
    491.7650000             -0.0022974              0.0039894
    116.9840000             -0.0307140              0.0303180
     37.4153000             -0.1125280              0.1298800
     13.7834000              0.0450160              0.3279510
      5.4521500              0.5893530              0.4535270
      2.2258800              0.4652060              0.2521540
SP   3   1.00
      3.1864900             -0.2518300             -0.0142990
      1.1442700              0.0615890              0.3235720
      0.4203770              1.0601800              0.7435070
SP   1   1.00
      0.1426570              1.0000000              1.0000000
D    1   1.00
      1.5000000              1.0000000
D    1   1.00
      0.3750000              1.0000000
F    1   1.00
      0.7000000              1.0000000
****
}

set {
reference uhf
freeze_core true
e_convergence 10
d_convergence 10
dft_spherical_points 1202
dft_radial_points 99
}

e = energy('b3lyp')

print_out('Grab this energy {0}'.format(e))
--------------------------------------------------------------------------

    Molecular point group: c1

    Geometry (in Bohr), charge = 0, multiplicity = 2:

       Center              X                  Y                   Z               Mass
    ------------   -----------------  -----------------  -----------------  -----------------
         C           -0.323340591731     0.000203842242    -0.000262382243    12.000000000000
         C            0.060503514369    -1.400873395658    -2.426197300143    12.000000000000
         C            0.059910075669     2.801842540042    -0.000147697043    12.000000000000
         C            0.062887027869    -1.401123367558     2.426328263757    12.000000000000
         H            2.092129308769    -1.646767508658    -2.848721504743     1.007825032230
         H           -0.764804253431    -0.388815847358    -4.021369287043     1.007825032230
         H           -0.767833492931    -3.289263615258    -2.350167238543     1.007825032230
         H            2.083547236869     3.281972947442     0.000054290357     1.007825032230
         H           -0.768481829031     3.684012698242     1.677148321357     1.007825032230
         H           -0.766084931431     3.683081674142    -1.676073181743     1.007825032230
         H            2.084984498769    -1.647338010558     2.849828013957     1.007825032230
         H           -0.763331137231    -3.293420303758     2.347604163757     1.007825032230
         H           -0.762693423431    -0.384052839958     4.025019805157     1.007825032230

  Charge       = 0
  Multiplicity = 2
  Basis Set: ANONYMOUS2385117B
    Blend: 6-31G_2DFP_
  Basis Set: (ANONYMOUS2385117B AUX)
    Blend: DEF2-UNIVERSAL-JKFIT

    Orbital Energies [Eh]
    ---------------------

    Alpha Occupied:

       1A    -10.180343     2A    -10.167056     3A    -10.167022
       4A    -10.166967     5A     -0.797767     6A     -0.686218
       7A     -0.686159     8A     -0.530777     9A     -0.441128
      10A     -0.434761    11A     -0.434581    12A     -0.382824
      13A     -0.382371    14A     -0.363610    15A     -0.338156
      16A     -0.337843    17A     -0.168961

    Alpha Virtual:

      18A      0.076071    19A      0.133979    20A      0.134328
      21A      0.142410    22A      0.142841    23A      0.154881
      24A      0.178621    25A      0.178933    26A      0.203552
      27A      0.214803    28A      0.275907    29A      0.276065
      30A      0.399095    31A      0.399360    32A      0.403344
      33A      0.423964    34A      0.424231    35A      0.456594
      36A      0.495240    37A      0.495535    38A      0.512162
      39A      0.513983    40A      0.578588    41A      0.579032
      42A      0.591319    43A      0.591921    44A      0.602612
      45A      0.624763    46A      0.631730    47A      0.636018
      48A      0.636521    49A      0.663047    50A      0.663791
      51A      0.683643    52A      0.684065    53A      0.734994
      54A      0.825341    55A      0.825463    56A      0.853921
      57A      0.914640    58A      0.915407    59A      0.944108
      60A      0.944610    61A      0.961156    62A      0.961459
      63A      1.003451    64A      1.127693    65A      1.128523
      66A      1.142197    67A      1.163070    68A      1.163488
      69A      1.223327    70A      1.274311    71A      1.274637
      72A      1.279387    73A      1.324268    74A      1.324440
      75A      1.355941    76A      1.366028    77A      1.366086
      78A      1.392448    79A      1.403390    80A      1.404715
      81A      1.416482    82A      1.417736    83A      1.427926
      84A      1.491497    85A      1.499059    86A      1.542402
      87A      1.543290    88A      1.573943    89A      1.574962
      90A      1.669824    91A      1.739189    92A      1.739594
      93A      1.768366    94A      1.830487    95A      1.832315
      96A      1.971708    97A      2.018063    98A      2.018784
      99A      2.019558   100A      2.051616   101A      2.053695
     102A      2.738079   103A      2.738896   104A      2.790927
     105A      2.811427   106A      2.889759   107A      2.890091
     108A      2.895002   109A      2.929189   110A      2.929802
     111A      2.958992   112A      2.964005   113A      2.964757
     114A      3.034011   115A      3.070633   116A      3.071927
     117A      3.084366   118A      3.168465   119A      3.169099
     120A      3.180595   121A      3.284973   122A      3.285659
     123A      3.326267   124A      3.328061   125A      3.375626
     126A      3.489071   127A      3.491240   128A      3.514008
     129A      3.525332   130A      3.568248   131A      3.568384
     132A      3.575308   133A      3.665553   134A      3.667191
     135A      3.679660   136A      3.693463   137A      3.694781
     138A      3.776725   139A      3.776869   140A      3.789180
     141A      3.912066   142A      3.912399   143A      4.034431
     144A      4.110870   145A      4.111837   146A      4.147507
     147A      4.148668   148A      4.173232   149A      4.202078
     150A      4.202250   151A      4.204451   152A      4.210908
     153A      4.315106   154A      4.316874   155A      4.358981
     156A      4.424153   157A      4.424802   158A      4.443406
     159A      4.515914   160A      4.517751   161A      4.578154
     162A      4.578386   163A      4.617608   164A      4.709402
     165A      4.773854   166A      4.775355   167A      4.836907
     168A      4.962869   169A      5.002015   170A      5.003883
     171A      5.228034   172A      5.244663   173A      5.248948
     174A      5.354339   175A      5.356743   176A      5.479374

    Beta Occupied:

       1A    -10.167808     2A    -10.167783     3A    -10.167733
       4A    -10.166520     5A     -0.781092     6A     -0.684016
       7A     -0.683966     8A     -0.511749     9A     -0.431142
      10A     -0.430947    11A     -0.421821    12A     -0.376918
      13A     -0.376446    14A     -0.362595    15A     -0.333266
      16A     -0.332978

    Beta Virtual:

      17A     -0.025743    18A      0.077080    19A      0.134882
      20A      0.135206    21A      0.144309    22A      0.144684
      23A      0.163338    24A      0.182278    25A      0.182620
      26A      0.215032    27A      0.218933    28A      0.282250
      29A      0.282417    30A      0.400268    31A      0.400526
      32A      0.419790    33A      0.426775    34A      0.427043
      35A      0.468501    36A      0.497496    37A      0.497803
      38A      0.513897    39A      0.556326    40A      0.584148
      41A      0.584574    42A      0.597486    43A      0.598119
      44A      0.610026    45A      0.628140    46A      0.631905
      47A      0.639299    48A      0.639792    49A      0.666642
      50A      0.667326    51A      0.686303    52A      0.686676
      53A      0.757517    54A      0.830511    55A      0.830629
      56A      0.855275    57A      0.922640    58A      0.923350
      59A      0.945947    60A      0.953536    61A      0.966443
      62A      0.966783    63A      1.008691    64A      1.131770
      65A      1.132502    66A      1.155566    67A      1.168097
      68A      1.168618    69A      1.232298    70A      1.279907
      71A      1.280235    72A      1.285142    73A      1.329254
      74A      1.329432    75A      1.365337    76A      1.371297
      77A      1.371322    78A      1.393508    79A      1.406824
      80A      1.408212    81A      1.421510    82A      1.422797
      83A      1.428207    84A      1.492546    85A      1.509498
      86A      1.546818    87A      1.547695    88A      1.581730
      89A      1.582916    90A      1.674670    91A      1.744961
      92A      1.745354    93A      1.779137    94A      1.834338
      95A      1.836176    96A      1.972570    97A      2.024968
      98A      2.025935    99A      2.039667   100A      2.058375
     101A      2.060376   102A      2.746423   103A      2.747223
     104A      2.811839   105A      2.816063   106A      2.902442
     107A      2.902833   108A      2.924655   109A      2.931679
     110A      2.932276   111A      2.960059   112A      2.968540
     113A      2.969312   114A      3.041944   115A      3.080491
     116A      3.081864   117A      3.086209   118A      3.184130
     119A      3.184924   120A      3.188288   121A      3.289747
     122A      3.290481   123A      3.330077   124A      3.331861
     125A      3.383443   126A      3.491829   127A      3.493942
     128A      3.512374   129A      3.528378   130A      3.574877
     131A      3.581591   132A      3.582006   133A      3.670261
     134A      3.671990   135A      3.692946   136A      3.725322
     137A      3.726191   138A      3.781265   139A      3.781396
     140A      3.817704   141A      3.921863   142A      3.922234
     143A      4.045318   144A      4.117715   145A      4.118624
     146A      4.154767   147A      4.155831   148A      4.187281
     149A      4.208082   150A      4.209243   151A      4.211309
     152A      4.215380   153A      4.322549   154A      4.324310
     155A      4.362342   156A      4.432365   157A      4.433021
     158A      4.446288   159A      4.523707   160A      4.525540
     161A      4.588741   162A      4.589000   163A      4.624802
     164A      4.719745   165A      4.780783   166A      4.782334
     167A      4.839824   168A      4.967665   169A      5.006079
     170A      5.007898   171A      5.233747   172A      5.246459
     173A      5.250721   174A      5.360810   175A      5.363233
     176A      5.481695

    Final Occupation by Irrep:
              A
    DOCC [    16 ]
    SOCC [     1 ]

  @DF-UKS Final Energy:  -157.81305688472173

   => Energetics <=

    Nuclear Repulsion Energy =            125.3946431971367446
    One-Electron Energy =                -458.7489110337799048
    Two-Electron Energy =                 195.8483573332755441
    DFT Exchange-Correlation Energy =     -20.3071463813541442
    Empirical Dispersion Energy =           0.0000000000000000
    VV10 Nonlocal Energy =                  0.0000000000000000
    Total Energy =                       -157.8130568847217319

  UHF NO Occupations:
  HONO-2 :   15  A 1.9996008
  HONO-1 :   16  A 1.9989804
  HONO-0 :   17  A 1.0000000
  LUNO+0 :   18  A 0.0010196
  LUNO+1 :   19  A 0.0003992
  LUNO+2 :   20  A 0.0001977
  LUNO+3 :   21  A 0.0001974

Computation Completed

Properties will be evaluated at   0.000000,   0.000000,   0.000000 [a0]

Properties computed using the SCF density matrix

  Nuclear Dipole Moment: [e a0]
     X:     0.8272      Y:    -0.0003      Z:     0.0016

  Electronic Dipole Moment: [e a0]
     X:    -0.7493      Y:     0.0011      Z:    -0.0023

  Dipole Moment: [e a0]
     X:     0.0779      Y:     0.0008      Z:    -0.0006     Total:     0.0779

  Dipole Moment: [D]
     X:     0.1980      Y:     0.0019      Z:    -0.0016     Total:     0.1980

*** tstop() called on n049 at Fri Nov  5 14:07:52 2021
Module time:
	user time   =     542.12 seconds =       9.04 minutes
	system time =      12.07 seconds =       0.20 minutes
	total time  =        139 seconds =       2.32 minutes
Total time:
	user time   =     542.12 seconds =       9.04 minutes
	system time =      12.07 seconds =       0.20 minutes
	total time  =        139 seconds =       2.32 minutes
Grab this energy -157.81305688472173
    Psi4 stopped on: Friday, 05 November 2021 02:07PM
    Psi4 wall time for execution: 0:02:19.36

*** Psi4 exiting successfully. Buy a developer a beer!
