                               Psi4 1.4a2.dev629

  ==> Input File <==

--------------------------------------------------------------------------
import os
memory 14 GB

molecule {
 C   -0.3233637988   -0.0004986071   -0.0000000000
 C    0.0603582656   -1.4008596820   -2.4256861445
 C    0.0623022298    2.8010044121   -0.0000000000
 C    0.0603582656   -1.4008596820    2.4256861445
 H    2.0921534581   -1.6439287917   -2.8468351391
 H   -0.7689264849   -0.3872475145   -4.0267675200
 H   -0.7670117723   -3.2927450267   -2.3483522795
 H    2.0858273209    3.2882308848   -0.0000000000
 H   -0.7652602807    3.6804005132    1.6824188263
 H   -0.7652602807    3.6804005132   -1.6824188263
 H    2.0921534581   -1.6439287917    2.8468351391
 H   -0.7670117723   -3.2927450267    2.3483522795
 H   -0.7689264849   -0.3872475145    4.0267675200
units bohr
0 2
}

basis {

assign 6-31g_2dfp_

[ 6-31g_2dfp_ ]

spherical

!----------------------------------------------------------------------
! Basis Set Exchange
! Version v0.8.13
! https://www.basissetexchange.org
!----------------------------------------------------------------------
!   Basis set: 6-31G(2df,p)
! Description: 6-31G(2df,p)
!        Role: orbital
!     Version: 0  (Data from the original Basis Set Exchange)
!----------------------------------------------------------------------

****
H     0
S    3   1.00
     18.7311370              0.03349460
      2.8253937              0.23472695
      0.6401217              0.81375733
S    1   1.00
      0.1612778              1.00000000
P    1   1.00
      1.5000000              1.0000000
P    1   1.00
      0.3750000              1.0000000
****
B     0
S    6   1.00
   2068.8823000              0.0018663
    310.6495700              0.0142515
     70.6830330              0.0695516
     19.8610800              0.2325729
      6.2993048              0.4670787
      2.1270270              0.3634314
SP   3   1.00
      4.7279710             -0.1303938              0.0745976
      1.1903377             -0.1307889              0.3078467
      0.3594117              1.1309444              0.7434568
SP   1   1.00
      0.1267512              1.0000000              1.0000000
D    1   1.00
      0.8020000              1.0000000
D    1   1.00
      0.2005000              1.0000000
F    1   1.00
      0.5000000              1.0000000
****
C     0
S    6   1.00
   3047.5249000              0.0018347
    457.3695100              0.0140373
    103.9486900              0.0688426
     29.2101550              0.2321844
      9.2866630              0.4679413
      3.1639270              0.3623120
SP   3   1.00
      7.8682724             -0.1193324              0.0689991
      1.8812885             -0.1608542              0.3164240
      0.5442493              1.1434564              0.7443083
SP   1   1.00
      0.1687144              1.0000000              1.0000000
D    1   1.00
      1.2520000              1.0000000
D    1   1.00
      0.3130000              1.0000000
F    1   1.00
      0.8000000              1.0000000
****
N     0
S    6   1.00
   4173.5110000              0.0018348
    627.4579000              0.0139950
    142.9021000              0.0685870
     40.2343300              0.2322410
     12.8202100              0.4690700
      4.3904370              0.3604550
SP   3   1.00
     11.6263580             -0.1149610              0.0675800
      2.7162800             -0.1691180              0.3239070
      0.7722180              1.1458520              0.7408950
SP   1   1.00
      0.2120313              1.0000000              1.0000000
D    1   1.00
      1.8260000              1.0000000
D    1   1.00
      0.4565000              1.0000000
F    1   1.00
      1.0000000              1.0000000
****
O     0
S    6   1.00
   5484.6717000              0.0018311
    825.2349500              0.0139501
    188.0469600              0.0684451
     52.9645000              0.2327143
     16.8975700              0.4701930
      5.7996353              0.3585209
SP   3   1.00
     15.5396160             -0.1107775              0.0708743
      3.5999336             -0.1480263              0.3397528
      1.0137618              1.1307670              0.7271586
SP   1   1.00
      0.2700058              1.0000000              1.0000000
D    1   1.00
      2.5840000              1.0000000
D    1   1.00
      0.6460000              1.0000000
F    1   1.00
      1.4000000              1.0000000
****
F     0
S    6   1.00
   7001.7130900              0.0018196169
   1051.3660900              0.0139160796
    239.2856900              0.0684053245
     67.3974453              0.233185760
     21.5199573              0.471267439
      7.40310130             0.356618546
SP   3   1.00
     20.8479528             -0.108506975            0.0716287243
      4.80830834            -0.146451658            0.3459121030
      1.34406986             1.128688580            0.7224699570
SP   1   1.00
      0.358151393            1.0000000              1.0000000
D    1   1.00
      3.5000000              1.0000000
D    1   1.00
      0.8750000              1.0000000
F    1   1.00
      1.8500000              1.0000000
****
Al     0
S    6   1.00
  13983.1000000              0.00194267
   2098.7500000              0.0148599
    477.7050000              0.0728494
    134.3600000              0.2468300
     42.8709000              0.4872580
     14.5189000              0.3234960
SP   6   1.00
    239.6680000             -0.00292619             0.00460285
     57.4419000             -0.0374080              0.0331990
     18.2859000             -0.1144870              0.1362820
      6.5991400              0.1156350              0.3304760
      2.4904900              0.6125950              0.4491460
      0.9445400              0.3937990              0.2657040
SP   3   1.00
      1.2779000             -0.2276060             -0.0175130
      0.3975900              0.00144583             0.2445330
      0.1600950              1.0927900              0.8049340
SP   1   1.00
      0.0556577              1.0000000              1.0000000
D    1   1.00
      0.6500000              1.0000000
D    1   1.00
      0.1625000              1.0000000
F    1   1.00
      0.2500000              1.0000000
****
Si     0
S    6   1.00
  16115.9000000              0.00195948
   2425.5800000              0.01492880
    553.8670000              0.07284780
    156.3400000              0.24613000
     50.0683000              0.48591400
     17.0178000              0.32500200
SP   6   1.00
    292.7180000             -0.00278094             0.00443826
     69.8731000             -0.03571460             0.03266790
     22.3363000             -0.11498500             0.13472100
      8.1503900              0.09356340             0.32867800
      3.1345800              0.60301700             0.44964000
      1.2254300              0.41895900             0.26137200
SP   3   1.00
      1.7273800             -0.24463000            -0.01779510
      0.5729220              0.00431572             0.25353900
      0.2221920              1.09818000             0.80066900
SP   1   1.00
      0.0778369              1.00000000             1.00000000
D    1   1.00
      0.9000000              1.0000000
D    1   1.00
      0.2250000              1.0000000
F    1   1.00
      0.3200000              1.0000000
****
P     0
S    6   1.00
  19413.3000000              0.0018516
   2909.4200000              0.0142062
    661.3640000              0.0699995
    185.7590000              0.2400790
     59.1943000              0.4847620
     20.0310000              0.3352000
SP   6   1.00
    339.4780000             -0.00278217             0.00456462
     81.0101000             -0.0360499              0.03369360
     25.8780000             -0.1166310              0.13975500
      9.4522100              0.0968328              0.33936200
      3.6656600              0.6144180              0.45092100
      1.4674600              0.4037980              0.23858600
SP   3   1.00
      2.1562300             -0.2529230             -0.01776530
      0.7489970              0.0328517              0.27405800
      0.2831450              1.0812500              0.78542100
SP   1   1.00
      0.0998317              1.0000000              1.00000000
D    1   1.00
      1.1000000              1.0000000
D    1   1.00
      0.2750000              1.0000000
F    1   1.00
      0.4500000              1.0000000
****
S     0
S    6   1.00
  21917.1000000              0.0018690
   3301.4900000              0.0142300
    754.1460000              0.0696960
    212.7110000              0.2384870
     67.9896000              0.4833070
     23.0515000              0.3380740
SP   6   1.00
    423.7350000             -0.0023767              0.0040610
    100.7100000             -0.0316930              0.0306810
     32.1599000             -0.1133170              0.1304520
     11.8079000              0.0560900              0.3272050
      4.6311000              0.5922550              0.4528510
      1.8702500              0.4550060              0.2560420
SP   3   1.00
      2.6158400             -0.2503740             -0.0145110
      0.9221670              0.0669570              0.3102630
      0.3412870              1.0545100              0.7544830
SP   1   1.00
      0.1171670              1.0000000              1.0000000
D    1   1.00
      1.3000000              1.0000000
D    1   1.00
      0.3250000              1.0000000
F    1   1.00
      0.5500000              1.0000000
****
Cl     0
S    6   1.00
  25180.1000000              0.0018330
   3780.3500000              0.0140340
    860.4740000              0.0690970
    242.1450000              0.2374520
     77.3349000              0.4830340
     26.2470000              0.3398560
SP   6   1.00
    491.7650000             -0.0022974              0.0039894
    116.9840000             -0.0307140              0.0303180
     37.4153000             -0.1125280              0.1298800
     13.7834000              0.0450160              0.3279510
      5.4521500              0.5893530              0.4535270
      2.2258800              0.4652060              0.2521540
SP   3   1.00
      3.1864900             -0.2518300             -0.0142990
      1.1442700              0.0615890              0.3235720
      0.4203770              1.0601800              0.7435070
SP   1   1.00
      0.1426570              1.0000000              1.0000000
D    1   1.00
      1.5000000              1.0000000
D    1   1.00
      0.3750000              1.0000000
F    1   1.00
      0.7000000              1.0000000
****
}

set {
reference uhf
freeze_core true
e_convergence 10
d_convergence 10
dft_spherical_points 1202
dft_radial_points 99
}

e = energy('b3lyp')

print_out('Grab this energy {0}'.format(e))
--------------------------------------------------------------------------

    Molecular point group: cs

    Geometry (in Bohr), charge = 0, multiplicity = 2:

       Center              X                  Y                   Z               Mass
    ------------   -----------------  -----------------  -----------------  -----------------
         C           -0.323305043407    -0.000264437534     0.000000000000    12.000000000000
         C            0.060417020993    -1.400625512434    -2.425686144500    12.000000000000
         C            0.062360985193     2.801238581666     0.000000000000    12.000000000000
         C            0.060417020993    -1.400625512434     2.425686144500    12.000000000000
         H            2.092212213493    -1.643694622134    -2.846835139100     1.007825032230
         H           -0.768867729507    -0.387013344934    -4.026767520000     1.007825032230
         H           -0.766953016907    -3.292510857134    -2.348352279500     1.007825032230
         H            2.085886076293     3.288465054366     0.000000000000     1.007825032230
         H           -0.765201525307     3.680634682766     1.682418826300     1.007825032230
         H           -0.765201525307     3.680634682766    -1.682418826300     1.007825032230
         H            2.092212213493    -1.643694622134     2.846835139100     1.007825032230
         H           -0.766953016907    -3.292510857134     2.348352279500     1.007825032230
         H           -0.768867729507    -0.387013344934     4.026767520000     1.007825032230

  Charge       = 0
  Multiplicity = 2
  Basis Set: ANONYMOUS68A833D8
    Blend: 6-31G_2DFP_
  Basis Set: (ANONYMOUS68A833D8 AUX)
    Blend: DEF2-UNIVERSAL-JKFIT

    Orbital Energies [Eh]
    ---------------------

    Alpha Occupied:

       1Ap   -10.180410     1App  -10.167578     2Ap   -10.167561
       3Ap   -10.167512     4Ap    -0.797806     5Ap    -0.685830
       2App   -0.685827     6Ap    -0.530467     7Ap    -0.441026
       8Ap    -0.434551     3App   -0.434511     9Ap    -0.382363
       4App   -0.382316     5App   -0.363295     6App   -0.338026
      10Ap    -0.337962    11Ap    -0.169023

    Alpha Virtual:

      12Ap     0.075738     7App    0.133620    13Ap     0.133952
       8App    0.142156    14Ap     0.142277    15Ap     0.154582
       9App    0.178188    16Ap     0.178356    17Ap     0.203658
      10App    0.214348    18Ap     0.275888    11App    0.276037
      19Ap     0.399248    12App    0.399319    20Ap     0.403135
      13App    0.423738    21Ap     0.423908    22Ap     0.456458
      23Ap     0.495020    14App    0.495310    15App    0.511892
      24Ap     0.513848    16App    0.578310    25Ap     0.578650
      17App    0.590884    26Ap     0.591170    27Ap     0.601932
      28Ap     0.623790    18App    0.631057    19App    0.635599
      29Ap     0.635793    20App    0.662714    30Ap     0.663455
      31Ap     0.683136    21App    0.683480    32Ap     0.734685
      33Ap     0.824571    22App    0.824602    23App    0.853404
      24App    0.914099    34Ap     0.914529    25App    0.943503
      35Ap     0.943821    26App    0.960504    36Ap     0.960781
      37Ap     1.003353    27App    1.127646    38Ap     1.127733
      39Ap     1.141340    28App    1.162899    40Ap     1.163135
      41Ap     1.222882    29App    1.273809    42Ap     1.274087
      43Ap     1.279817    30App    1.323597    44Ap     1.323692
      45Ap     1.355107    31App    1.365518    46Ap     1.365578
      32App    1.391871    33App    1.402561    47Ap     1.403502
      48Ap     1.415656    34App    1.416697    35App    1.427156
      36App    1.490601    49Ap     1.497720    37App    1.541856
      50Ap     1.542789    51Ap     1.574119    38App    1.574439
      52Ap     1.667656    39App    1.737839    53Ap     1.738092
      54Ap     1.766840    55Ap     1.828124    40App    1.829722
      41App    1.970085    56Ap     2.017083    42App    2.017416
      57Ap     2.018416    43App    2.050624    58Ap     2.052523
      44App    2.737102    59Ap     2.737918    60Ap     2.790713
      45App    2.810914    61Ap     2.889348    46App    2.889405
      62Ap     2.894890    47App    2.929106    63Ap     2.929127
      48App    2.958380    49App    2.963419    64Ap     2.964043
      65Ap     3.033116    50App    3.070302    66Ap     3.070367
      51App    3.083445    67Ap     3.169208    52App    3.169687
      68Ap     3.180305    69Ap     3.285028    53App    3.285679
      70Ap     3.327455    54App    3.327887    71Ap     3.376321
      72Ap     3.491006    55App    3.491295    56App    3.514308
      73Ap     3.525952    74Ap     3.568098    57App    3.568311
      58App    3.576827    59App    3.664926    75Ap     3.666360
      76Ap     3.677820    77Ap     3.693162    60App    3.693463
      78Ap     3.776231    61App    3.776286    79Ap     3.788564
      80Ap     3.911184    62App    3.911387    81Ap     4.032086
      63App    4.108452    82Ap     4.109324    83Ap     4.144221
      64App    4.145346    84Ap     4.170280    85Ap     4.200326
      86Ap     4.201885    65App    4.202319    66App    4.207268
      67App    4.312903    87Ap     4.314610    68App    4.356570
      88Ap     4.421567    69App    4.422214    70App    4.441399
      71App    4.513718    89Ap     4.515124    90Ap     4.576664
      72App    4.576905    91Ap     4.616871    92Ap     4.707433
      73App    4.772379    93Ap     4.773269    74App    4.834545
      94Ap     4.962094    75App    5.001105    95Ap     5.002614
      96Ap     5.222718    76App    5.239429    97Ap     5.243590
      77App    5.349717    98Ap     5.352185    78App    5.476159

    Beta Occupied:

       1App  -10.168336     1Ap   -10.168321     2Ap   -10.168278
       3Ap   -10.166602     4Ap    -0.781104     2App   -0.683637
       5Ap    -0.683630     6Ap    -0.511496     7Ap    -0.430912
       3App   -0.430880     8Ap    -0.421684     9Ap    -0.376461
       4App   -0.376371     5App   -0.362277     6App   -0.333151
      10Ap    -0.333101

    Beta Virtual:

      11Ap    -0.025977    12Ap     0.076751     7App    0.134513
      13Ap     0.134826     8App    0.144080    14Ap     0.144150
      15Ap     0.163102     9App    0.181850    16Ap     0.182056
      10App    0.214579    17Ap     0.219021    18Ap     0.282224
      11App    0.282379    19Ap     0.400423    12App    0.400491
      20Ap     0.419568    13App    0.426548    21Ap     0.426718
      22Ap     0.468384    23Ap     0.497275    14App    0.497579
      15App    0.513633    24Ap     0.556134    16App    0.583858
      25Ap     0.584168    17App    0.597021    26Ap     0.597355
      27Ap     0.609366    28Ap     0.627177    18App    0.631227
      19App    0.638896    29Ap     0.639101    20App    0.666306
      30Ap     0.666982    31Ap     0.685826    21App    0.686132
      32Ap     0.757183    33Ap     0.829739    22App    0.829774
      23App    0.854782    24App    0.922098    34Ap     0.922500
      25App    0.945340    35Ap     0.952728    26App    0.965789
      36Ap     0.966123    37Ap     1.008581    38Ap     1.131715
      27App    1.131746    39Ap     1.154727    28App    1.167906
      40Ap     1.168219    41Ap     1.231872    29App    1.279407
      42Ap     1.279706    43Ap     1.285585    30App    1.328562
      44Ap     1.328653    45Ap     1.364494    46Ap     1.370776
      31App    1.370812    32App    1.392934    33App    1.405985
      47Ap     1.407018    48Ap     1.420690    34App    1.421765
      35App    1.427435    36App    1.491644    49Ap     1.508162
      37App    1.546407    50Ap     1.547314    51Ap     1.581897
      38App    1.582190    52Ap     1.672430    39App    1.743594
      53Ap     1.743855    54Ap     1.777669    55Ap     1.832003
      40App    1.833615    41App    1.970950    42App    2.023798
      56Ap     2.024730    57Ap     2.038613    43App    2.057383
      58Ap     2.059203    44App    2.745435    59Ap     2.746232
      45App    2.811322    60Ap     2.815823    61Ap     2.901959
      46App    2.902099    62Ap     2.924538    47App    2.931605
      63Ap     2.931689    48App    2.959436    49App    2.967909
      64Ap     2.968565    65Ap     3.041130    50App    3.080044
      66Ap     3.080311    51App    3.085276    67Ap     3.184880
      52App    3.185590    68Ap     3.187947    69Ap     3.289870
      53App    3.290544    70Ap     3.331231    54App    3.331706
      71Ap     3.384115    72Ap     3.493730    55App    3.493941
      56App    3.512668    73Ap     3.528983    57App    3.576669
      74Ap     3.581372    58App    3.581690    59App    3.669380
      75Ap     3.670892    76Ap     3.691053    77Ap     3.724930
      60App    3.725238    61App    3.780761    78Ap     3.780843
      79Ap     3.817078    80Ap     3.920992    62App    3.921241
      81Ap     4.042850    63App    4.115210    82Ap     4.116038
      83Ap     4.151532    64App    4.152539    84Ap     4.184475
      85Ap     4.206623    65App    4.208296    86Ap     4.209522
      66App    4.211785    67App    4.320424    87Ap     4.322128
      68App    4.359942    88Ap     4.429812    69App    4.430459
      70App    4.444297    71App    4.521518    89Ap     4.522928
      90Ap     4.587284    72App    4.587552    91Ap     4.624073
      92Ap     4.717782    73App    4.779335    93Ap     4.780227
      74App    4.837456    94Ap     4.966916    75App    5.005183
      95Ap     5.006654    96Ap     5.228457    76App    5.241231
      97Ap     5.245370    77App    5.356215    98Ap     5.358702
      78App    5.478492

    Final Occupation by Irrep:
             Ap   App
    DOCC [    10,    6 ]
    SOCC [     1,    0 ]

  @DF-UKS Final Energy:  -157.81308270342160

   => Energetics <=

    Nuclear Repulsion Energy =            125.3573072857362831
    One-Electron Energy =                -458.6781175489353473
    Two-Electron Energy =                 195.8108532008925806
    DFT Exchange-Correlation Energy =     -20.3031256411151197
    Empirical Dispersion Energy =           0.0000000000000000
    VV10 Nonlocal Energy =                  0.0000000000000000
    Total Energy =                       -157.8130827034215997

  UHF NO Occupations:
  HONO-2 :    9 Ap 1.9995983
  HONO-1 :   10 Ap 1.9989811
  HONO-0 :   11 Ap 1.0000000
  LUNO+0 :   12 Ap 0.0010189
  LUNO+1 :   13 Ap 0.0004017
  LUNO+2 :    7App 0.0001972
  LUNO+3 :   14 Ap 0.0001972

Computation Completed

Properties will be evaluated at   0.000000,   0.000000,   0.000000 [a0]

Properties computed using the SCF density matrix

  Nuclear Dipole Moment: [e a0]
     X:     0.8276      Y:     0.0016      Z:     0.0000

  Electronic Dipole Moment: [e a0]
     X:    -0.7503      Y:    -0.0023      Z:     0.0000

  Dipole Moment: [e a0]
     X:     0.0773      Y:    -0.0006      Z:     0.0000     Total:     0.0773

  Dipole Moment: [D]
     X:     0.1964      Y:    -0.0017      Z:     0.0000     Total:     0.1964

*** tstop() called on n061 at Fri Nov  5 14:15:38 2021
Module time:
	user time   =     545.31 seconds =       9.09 minutes
	system time =      12.08 seconds =       0.20 minutes
	total time  =        141 seconds =       2.35 minutes
Total time:
	user time   =     545.31 seconds =       9.09 minutes
	system time =      12.08 seconds =       0.20 minutes
	total time  =        141 seconds =       2.35 minutes
Grab this energy -157.8130827034216
    Psi4 stopped on: Friday, 05 November 2021 02:15PM
    Psi4 wall time for execution: 0:02:20.17

*** Psi4 exiting successfully. Buy a developer a beer!
