                               Psi4 1.4a2.dev629

  ==> Input File <==

--------------------------------------------------------------------------
import os
memory 14 GB

molecule {
 C   -0.3265082304   -0.0000017822    0.0002469110
 C    0.0607783580   -1.4008491341   -2.4264788289
 C    0.0596949324    2.8019392444   -0.0001467635
 C    0.0588527796   -1.4010846427    2.4265930624
 H    2.0900745577   -1.6460670264   -2.8527078476
 H   -0.7634414166   -0.3870019489   -4.0233954398
 H   -0.7626402859   -3.2905874343   -2.3453720259
 H    2.0871308166    3.2883662278   -0.0018537007
 H   -0.7636587088    3.6785892119    1.6774748891
 H   -0.7655850301    3.6814286390   -1.6763270178
 H    2.0844540250   -1.6423936434    2.8426377999
 H   -0.7664422703   -3.2938580359    2.3517826560
 H   -0.7653174041   -0.3885039887    4.0275463057
units bohr
0 2
}

basis {

assign 6-31g_2dfp_

[ 6-31g_2dfp_ ]

spherical

!----------------------------------------------------------------------
! Basis Set Exchange
! Version v0.8.13
! https://www.basissetexchange.org
!----------------------------------------------------------------------
!   Basis set: 6-31G(2df,p)
! Description: 6-31G(2df,p)
!        Role: orbital
!     Version: 0  (Data from the original Basis Set Exchange)
!----------------------------------------------------------------------

****
H     0
S    3   1.00
     18.7311370              0.03349460
      2.8253937              0.23472695
      0.6401217              0.81375733
S    1   1.00
      0.1612778              1.00000000
P    1   1.00
      1.5000000              1.0000000
P    1   1.00
      0.3750000              1.0000000
****
B     0
S    6   1.00
   2068.8823000              0.0018663
    310.6495700              0.0142515
     70.6830330              0.0695516
     19.8610800              0.2325729
      6.2993048              0.4670787
      2.1270270              0.3634314
SP   3   1.00
      4.7279710             -0.1303938              0.0745976
      1.1903377             -0.1307889              0.3078467
      0.3594117              1.1309444              0.7434568
SP   1   1.00
      0.1267512              1.0000000              1.0000000
D    1   1.00
      0.8020000              1.0000000
D    1   1.00
      0.2005000              1.0000000
F    1   1.00
      0.5000000              1.0000000
****
C     0
S    6   1.00
   3047.5249000              0.0018347
    457.3695100              0.0140373
    103.9486900              0.0688426
     29.2101550              0.2321844
      9.2866630              0.4679413
      3.1639270              0.3623120
SP   3   1.00
      7.8682724             -0.1193324              0.0689991
      1.8812885             -0.1608542              0.3164240
      0.5442493              1.1434564              0.7443083
SP   1   1.00
      0.1687144              1.0000000              1.0000000
D    1   1.00
      1.2520000              1.0000000
D    1   1.00
      0.3130000              1.0000000
F    1   1.00
      0.8000000              1.0000000
****
N     0
S    6   1.00
   4173.5110000              0.0018348
    627.4579000              0.0139950
    142.9021000              0.0685870
     40.2343300              0.2322410
     12.8202100              0.4690700
      4.3904370              0.3604550
SP   3   1.00
     11.6263580             -0.1149610              0.0675800
      2.7162800             -0.1691180              0.3239070
      0.7722180              1.1458520              0.7408950
SP   1   1.00
      0.2120313              1.0000000              1.0000000
D    1   1.00
      1.8260000              1.0000000
D    1   1.00
      0.4565000              1.0000000
F    1   1.00
      1.0000000              1.0000000
****
O     0
S    6   1.00
   5484.6717000              0.0018311
    825.2349500              0.0139501
    188.0469600              0.0684451
     52.9645000              0.2327143
     16.8975700              0.4701930
      5.7996353              0.3585209
SP   3   1.00
     15.5396160             -0.1107775              0.0708743
      3.5999336             -0.1480263              0.3397528
      1.0137618              1.1307670              0.7271586
SP   1   1.00
      0.2700058              1.0000000              1.0000000
D    1   1.00
      2.5840000              1.0000000
D    1   1.00
      0.6460000              1.0000000
F    1   1.00
      1.4000000              1.0000000
****
F     0
S    6   1.00
   7001.7130900              0.0018196169
   1051.3660900              0.0139160796
    239.2856900              0.0684053245
     67.3974453              0.233185760
     21.5199573              0.471267439
      7.40310130             0.356618546
SP   3   1.00
     20.8479528             -0.108506975            0.0716287243
      4.80830834            -0.146451658            0.3459121030
      1.34406986             1.128688580            0.7224699570
SP   1   1.00
      0.358151393            1.0000000              1.0000000
D    1   1.00
      3.5000000              1.0000000
D    1   1.00
      0.8750000              1.0000000
F    1   1.00
      1.8500000              1.0000000
****
Al     0
S    6   1.00
  13983.1000000              0.00194267
   2098.7500000              0.0148599
    477.7050000              0.0728494
    134.3600000              0.2468300
     42.8709000              0.4872580
     14.5189000              0.3234960
SP   6   1.00
    239.6680000             -0.00292619             0.00460285
     57.4419000             -0.0374080              0.0331990
     18.2859000             -0.1144870              0.1362820
      6.5991400              0.1156350              0.3304760
      2.4904900              0.6125950              0.4491460
      0.9445400              0.3937990              0.2657040
SP   3   1.00
      1.2779000             -0.2276060             -0.0175130
      0.3975900              0.00144583             0.2445330
      0.1600950              1.0927900              0.8049340
SP   1   1.00
      0.0556577              1.0000000              1.0000000
D    1   1.00
      0.6500000              1.0000000
D    1   1.00
      0.1625000              1.0000000
F    1   1.00
      0.2500000              1.0000000
****
Si     0
S    6   1.00
  16115.9000000              0.00195948
   2425.5800000              0.01492880
    553.8670000              0.07284780
    156.3400000              0.24613000
     50.0683000              0.48591400
     17.0178000              0.32500200
SP   6   1.00
    292.7180000             -0.00278094             0.00443826
     69.8731000             -0.03571460             0.03266790
     22.3363000             -0.11498500             0.13472100
      8.1503900              0.09356340             0.32867800
      3.1345800              0.60301700             0.44964000
      1.2254300              0.41895900             0.26137200
SP   3   1.00
      1.7273800             -0.24463000            -0.01779510
      0.5729220              0.00431572             0.25353900
      0.2221920              1.09818000             0.80066900
SP   1   1.00
      0.0778369              1.00000000             1.00000000
D    1   1.00
      0.9000000              1.0000000
D    1   1.00
      0.2250000              1.0000000
F    1   1.00
      0.3200000              1.0000000
****
P     0
S    6   1.00
  19413.3000000              0.0018516
   2909.4200000              0.0142062
    661.3640000              0.0699995
    185.7590000              0.2400790
     59.1943000              0.4847620
     20.0310000              0.3352000
SP   6   1.00
    339.4780000             -0.00278217             0.00456462
     81.0101000             -0.0360499              0.03369360
     25.8780000             -0.1166310              0.13975500
      9.4522100              0.0968328              0.33936200
      3.6656600              0.6144180              0.45092100
      1.4674600              0.4037980              0.23858600
SP   3   1.00
      2.1562300             -0.2529230             -0.01776530
      0.7489970              0.0328517              0.27405800
      0.2831450              1.0812500              0.78542100
SP   1   1.00
      0.0998317              1.0000000              1.00000000
D    1   1.00
      1.1000000              1.0000000
D    1   1.00
      0.2750000              1.0000000
F    1   1.00
      0.4500000              1.0000000
****
S     0
S    6   1.00
  21917.1000000              0.0018690
   3301.4900000              0.0142300
    754.1460000              0.0696960
    212.7110000              0.2384870
     67.9896000              0.4833070
     23.0515000              0.3380740
SP   6   1.00
    423.7350000             -0.0023767              0.0040610
    100.7100000             -0.0316930              0.0306810
     32.1599000             -0.1133170              0.1304520
     11.8079000              0.0560900              0.3272050
      4.6311000              0.5922550              0.4528510
      1.8702500              0.4550060              0.2560420
SP   3   1.00
      2.6158400             -0.2503740             -0.0145110
      0.9221670              0.0669570              0.3102630
      0.3412870              1.0545100              0.7544830
SP   1   1.00
      0.1171670              1.0000000              1.0000000
D    1   1.00
      1.3000000              1.0000000
D    1   1.00
      0.3250000              1.0000000
F    1   1.00
      0.5500000              1.0000000
****
Cl     0
S    6   1.00
  25180.1000000              0.0018330
   3780.3500000              0.0140340
    860.4740000              0.0690970
    242.1450000              0.2374520
     77.3349000              0.4830340
     26.2470000              0.3398560
SP   6   1.00
    491.7650000             -0.0022974              0.0039894
    116.9840000             -0.0307140              0.0303180
     37.4153000             -0.1125280              0.1298800
     13.7834000              0.0450160              0.3279510
      5.4521500              0.5893530              0.4535270
      2.2258800              0.4652060              0.2521540
SP   3   1.00
      3.1864900             -0.2518300             -0.0142990
      1.1442700              0.0615890              0.3235720
      0.4203770              1.0601800              0.7435070
SP   1   1.00
      0.1426570              1.0000000              1.0000000
D    1   1.00
      1.5000000              1.0000000
D    1   1.00
      0.3750000              1.0000000
F    1   1.00
      0.7000000              1.0000000
****
}

set {
reference uhf
freeze_core true
e_convergence 10
d_convergence 10
dft_spherical_points 1202
dft_radial_points 99
}

e = energy('b3lyp')

print_out('Grab this energy {0}'.format(e))
--------------------------------------------------------------------------

    Molecular point group: c1

    Geometry (in Bohr), charge = 0, multiplicity = 2:

       Center              X                  Y                   Z               Mass
    ------------   -----------------  -----------------  -----------------  -----------------
         C           -0.325132595942    -0.000002062675     0.000205619677    12.000000000000
         C            0.062153992458    -1.400849414575    -2.426520120223    12.000000000000
         C            0.061070566858     2.801938963925    -0.000188054823    12.000000000000
         C            0.060228414058    -1.401084923175     2.426551771077    12.000000000000
         H            2.091450192158    -1.646067306875    -2.852749138923     1.007825032230
         H           -0.762065782142    -0.387002229375    -4.023436731123     1.007825032230
         H           -0.761264651442    -3.290587714775    -2.345413317223     1.007825032230
         H            2.088506451058     3.288365947325    -0.001894992023     1.007825032230
         H           -0.762283074342     3.678588931425     1.677433597777     1.007825032230
         H           -0.764209395642     3.681428358525    -1.676368309123     1.007825032230
         H            2.085829659458    -1.642393923875     2.842596508577     1.007825032230
         H           -0.765066635842    -3.293858316375     2.351741364677     1.007825032230
         H           -0.763941769642    -0.388504269175     4.027505014377     1.007825032230

  Charge       = 0
  Multiplicity = 2
  Basis Set: ANONYMOUS5927CAFC
    Blend: 6-31G_2DFP_
  Basis Set: (ANONYMOUS5927CAFC AUX)
    Blend: DEF2-UNIVERSAL-JKFIT

    Orbital Energies [Eh]
    ---------------------

    Alpha Occupied:

       1A    -10.180455     2A    -10.167075     3A    -10.167044
       4A    -10.166997     5A     -0.797713     6A     -0.686204
       7A     -0.686146     8A     -0.530797     9A     -0.440890
      10A     -0.434904    11A     -0.434730    12A     -0.382575
      13A     -0.382126    14A     -0.363892    15A     -0.338201
      16A     -0.337894    17A     -0.169077

    Alpha Virtual:

      18A      0.076090    19A      0.134111    20A      0.134209
      21A      0.142503    22A      0.142918    23A      0.154815
      24A      0.178538    25A      0.178807    26A      0.203504
      27A      0.214934    28A      0.275826    29A      0.275867
      30A      0.399085    31A      0.399336    32A      0.403303
      33A      0.423988    34A      0.424194    35A      0.456591
      36A      0.495430    37A      0.495452    38A      0.512058
      39A      0.513985    40A      0.578777    41A      0.579025
      42A      0.591067    43A      0.591573    44A      0.602292
      45A      0.624906    46A      0.631891    47A      0.636172
      48A      0.636611    49A      0.663199    50A      0.663283
      51A      0.683762    52A      0.683989    53A      0.734864
      54A      0.825172    55A      0.825292    56A      0.853963
      57A      0.914541    58A      0.915177    59A      0.944007
      60A      0.944594    61A      0.961314    62A      0.961476
      63A      1.004332    64A      1.127934    65A      1.128727
      66A      1.141833    67A      1.162972    68A      1.163304
      69A      1.222904    70A      1.274094    71A      1.274301
      72A      1.279218    73A      1.324399    74A      1.324533
      75A      1.354950    76A      1.366402    77A      1.366412
      78A      1.392526    79A      1.402936    80A      1.403902
      81A      1.416147    82A      1.416854    83A      1.427744
      84A      1.491967    85A      1.498559    86A      1.543199
      87A      1.543235    88A      1.574086    89A      1.575019
      90A      1.670363    91A      1.739108    92A      1.739293
      93A      1.768118    94A      1.831295    95A      1.832157
      96A      1.972279    97A      2.018027    98A      2.018662
      99A      2.018828   100A      2.051812   101A      2.052724
     102A      2.738147   103A      2.738166   104A      2.790708
     105A      2.811703   106A      2.889601   107A      2.889923
     108A      2.895011   109A      2.929337   110A      2.929956
     111A      2.959155   112A      2.964167   113A      2.964529
     114A      3.033963   115A      3.070026   116A      3.071307
     117A      3.084414   118A      3.168542   119A      3.168992
     120A      3.180771   121A      3.285549   122A      3.285781
     123A      3.327216   124A      3.328982   125A      3.375318
     126A      3.488913   127A      3.491043   128A      3.513549
     129A      3.525495   130A      3.567786   131A      3.568000
     132A      3.574843   133A      3.665916   134A      3.666820
     135A      3.680690   136A      3.693180   137A      3.694475
     138A      3.775859   139A      3.775984   140A      3.787852
     141A      3.912204   142A      3.912461   143A      4.033278
     144A      4.111618   145A      4.111874   146A      4.148311
     147A      4.148373   148A      4.173105   149A      4.201850
     150A      4.202625   151A      4.203314   152A      4.210734
     153A      4.315560   154A      4.315948   155A      4.359071
     156A      4.423735   157A      4.423928   158A      4.444300
     159A      4.516355   160A      4.517576   161A      4.578365
     162A      4.578389   163A      4.616708   164A      4.708987
     165A      4.773770   166A      4.774943   167A      4.836678
     168A      4.962926   169A      5.001699   170A      5.002792
     171A      5.228001   172A      5.246275   173A      5.247370
     174A      5.355902   175A      5.356020   176A      5.478830

    Beta Occupied:

       1A    -10.167826     2A    -10.167799     3A    -10.167768
       4A    -10.166635     5A     -0.781054     6A     -0.684005
       7A     -0.683957     8A     -0.511773     9A     -0.431297
      10A     -0.431101    11A     -0.421581    12A     -0.376654
      13A     -0.376193    14A     -0.362878    15A     -0.333310
      16A     -0.333026

    Beta Virtual:

      17A     -0.025892    18A      0.077100    19A      0.135042
      20A      0.135123    21A      0.144386    22A      0.144757
      23A      0.163305    24A      0.182194    25A      0.182473
      26A      0.215160    27A      0.218864    28A      0.282180
      29A      0.282232    30A      0.400262    31A      0.400505
      32A      0.419809    33A      0.426794    34A      0.427003
      35A      0.468435    36A      0.497690    37A      0.497715
      38A      0.513797    39A      0.556282    40A      0.584313
      41A      0.584573    42A      0.597259    43A      0.597777
      44A      0.609735    45A      0.628250    46A      0.632057
      47A      0.639439    48A      0.639872    49A      0.666782
      50A      0.666883    51A      0.686411    52A      0.686606
      53A      0.757394    54A      0.830364    55A      0.830478
      56A      0.855319    57A      0.922543    58A      0.923127
      59A      0.945845    60A      0.953486    61A      0.966615
      62A      0.966750    63A      1.009620    64A      1.131902
      65A      1.132604    66A      1.155217    67A      1.168075
      68A      1.168475    69A      1.231869    70A      1.279722
      71A      1.279903    72A      1.284962    73A      1.329442
      74A      1.329586    75A      1.364338    76A      1.371637
      77A      1.371681    78A      1.393595    79A      1.406376
      80A      1.407357    81A      1.421182    82A      1.421877
      83A      1.428006    84A      1.493019    85A      1.508980
      86A      1.547644    87A      1.547832    88A      1.581756
      89A      1.582879    90A      1.675195    91A      1.744882
      92A      1.745061    93A      1.778904    94A      1.835148
      95A      1.836002    96A      1.973137    97A      2.025048
      98A      2.025174    99A      2.039422   100A      2.058538
     101A      2.059474   102A      2.746474   103A      2.746516
     104A      2.812114   105A      2.815792   106A      2.902291
     107A      2.902662   108A      2.924607   109A      2.931804
     110A      2.932401   111A      2.960223   112A      2.968725
     113A      2.969085   114A      3.041938   115A      3.079917
     116A      3.081285   117A      3.086236   118A      3.184219
     119A      3.184672   120A      3.188508   121A      3.290266
     122A      3.290575   123A      3.331047   124A      3.332790
     125A      3.383098   126A      3.491674   127A      3.493760
     128A      3.511915   129A      3.528504   130A      3.574434
     131A      3.581292   132A      3.581571   133A      3.670613
     134A      3.671484   135A      3.693959   136A      3.725087
     137A      3.725897   138A      3.780454   139A      3.780529
     140A      3.816408   141A      3.922016   142A      3.922286
     143A      4.044177   144A      4.118440   145A      4.118640
     146A      4.155452   147A      4.155680   148A      4.187194
     149A      4.208250   150A      4.208928   151A      4.210434
     152A      4.215241   153A      4.323018   154A      4.323348
     155A      4.362444   156A      4.431998   157A      4.432213
     158A      4.447152   159A      4.524156   160A      4.525363
     161A      4.588927   162A      4.588982   163A      4.623827
     164A      4.719420   165A      4.780671   166A      4.781903
     167A      4.839592   168A      4.967737   169A      5.005766
     170A      5.006828   171A      5.233685   172A      5.248051
     173A      5.249143   174A      5.362373   175A      5.362476
     176A      5.481150

    Final Occupation by Irrep:
              A
    DOCC [    16 ]
    SOCC [     1 ]

  @DF-UKS Final Energy:  -157.81306051065914

   => Energetics <=

    Nuclear Repulsion Energy =            125.3858772289210748
    One-Electron Energy =                -458.7313045148372908
    Two-Electron Energy =                 195.8392547816731906
    DFT Exchange-Correlation Energy =     -20.3068880064161092
    Empirical Dispersion Energy =           0.0000000000000000
    VV10 Nonlocal Energy =                  0.0000000000000000
    Total Energy =                       -157.8130605106591418

  UHF NO Occupations:
  HONO-2 :   15  A 1.9995999
  HONO-1 :   16  A 1.9989813
  HONO-0 :   17  A 1.0000000
  LUNO+0 :   18  A 0.0010187
  LUNO+1 :   19  A 0.0004001
  LUNO+2 :   20  A 0.0001978
  LUNO+3 :   21  A 0.0001975

Computation Completed

Properties will be evaluated at   0.000000,   0.000000,   0.000000 [a0]

Properties computed using the SCF density matrix

  Nuclear Dipole Moment: [e a0]
     X:     0.8369      Y:    -0.0000      Z:    -0.0003

  Electronic Dipole Moment: [e a0]
     X:    -0.7591      Y:     0.0000      Z:     0.0011

  Dipole Moment: [e a0]
     X:     0.0778      Y:     0.0000      Z:     0.0008     Total:     0.0778

  Dipole Moment: [D]
     X:     0.1977      Y:     0.0000      Z:     0.0020     Total:     0.1977

*** tstop() called on n049 at Fri Nov  5 13:36:00 2021
Module time:
	user time   =     514.22 seconds =       8.57 minutes
	system time =      11.62 seconds =       0.19 minutes
	total time  =        133 seconds =       2.22 minutes
Total time:
	user time   =     514.22 seconds =       8.57 minutes
	system time =      11.62 seconds =       0.19 minutes
	total time  =        133 seconds =       2.22 minutes
Grab this energy -157.81306051065914
    Psi4 stopped on: Friday, 05 November 2021 01:36PM
    Psi4 wall time for execution: 0:02:12.41

*** Psi4 exiting successfully. Buy a developer a beer!
