                               Psi4 1.4a2.dev629

  ==> Input File <==

--------------------------------------------------------------------------
import os
memory 14 GB

molecule {
 C   -0.3233401531   -0.0000027424   -0.0000032907
 C    0.0598643058   -1.4004004581   -2.4258960889
 C    0.0610207495    2.8017589044   -0.0003434327
 C    0.0624164974   -1.4013564321    2.4268649968
 H    2.0941319022   -1.6435769699   -2.8467450081
 H   -0.7682987076   -0.3877794172   -4.0263244812
 H   -0.7697523158   -3.2929125937   -2.3490132738
 H    2.0867994854    3.2881023231   -0.0002101232
 H   -0.7669355740    3.6802232312    1.6764742415
 H   -0.7643573674    3.6802834040   -1.6765261488
 H    2.0797464522   -1.6446126279    2.8481207183
 H   -0.7613894877   -3.2910848097    2.3489636892
 H   -0.7625136635   -0.3886661252    4.0246382016
units bohr
0 2
}

basis {

assign 6-31g_2dfp_

[ 6-31g_2dfp_ ]

spherical

!----------------------------------------------------------------------
! Basis Set Exchange
! Version v0.8.13
! https://www.basissetexchange.org
!----------------------------------------------------------------------
!   Basis set: 6-31G(2df,p)
! Description: 6-31G(2df,p)
!        Role: orbital
!     Version: 0  (Data from the original Basis Set Exchange)
!----------------------------------------------------------------------

****
H     0
S    3   1.00
     18.7311370              0.03349460
      2.8253937              0.23472695
      0.6401217              0.81375733
S    1   1.00
      0.1612778              1.00000000
P    1   1.00
      1.5000000              1.0000000
P    1   1.00
      0.3750000              1.0000000
****
B     0
S    6   1.00
   2068.8823000              0.0018663
    310.6495700              0.0142515
     70.6830330              0.0695516
     19.8610800              0.2325729
      6.2993048              0.4670787
      2.1270270              0.3634314
SP   3   1.00
      4.7279710             -0.1303938              0.0745976
      1.1903377             -0.1307889              0.3078467
      0.3594117              1.1309444              0.7434568
SP   1   1.00
      0.1267512              1.0000000              1.0000000
D    1   1.00
      0.8020000              1.0000000
D    1   1.00
      0.2005000              1.0000000
F    1   1.00
      0.5000000              1.0000000
****
C     0
S    6   1.00
   3047.5249000              0.0018347
    457.3695100              0.0140373
    103.9486900              0.0688426
     29.2101550              0.2321844
      9.2866630              0.4679413
      3.1639270              0.3623120
SP   3   1.00
      7.8682724             -0.1193324              0.0689991
      1.8812885             -0.1608542              0.3164240
      0.5442493              1.1434564              0.7443083
SP   1   1.00
      0.1687144              1.0000000              1.0000000
D    1   1.00
      1.2520000              1.0000000
D    1   1.00
      0.3130000              1.0000000
F    1   1.00
      0.8000000              1.0000000
****
N     0
S    6   1.00
   4173.5110000              0.0018348
    627.4579000              0.0139950
    142.9021000              0.0685870
     40.2343300              0.2322410
     12.8202100              0.4690700
      4.3904370              0.3604550
SP   3   1.00
     11.6263580             -0.1149610              0.0675800
      2.7162800             -0.1691180              0.3239070
      0.7722180              1.1458520              0.7408950
SP   1   1.00
      0.2120313              1.0000000              1.0000000
D    1   1.00
      1.8260000              1.0000000
D    1   1.00
      0.4565000              1.0000000
F    1   1.00
      1.0000000              1.0000000
****
O     0
S    6   1.00
   5484.6717000              0.0018311
    825.2349500              0.0139501
    188.0469600              0.0684451
     52.9645000              0.2327143
     16.8975700              0.4701930
      5.7996353              0.3585209
SP   3   1.00
     15.5396160             -0.1107775              0.0708743
      3.5999336             -0.1480263              0.3397528
      1.0137618              1.1307670              0.7271586
SP   1   1.00
      0.2700058              1.0000000              1.0000000
D    1   1.00
      2.5840000              1.0000000
D    1   1.00
      0.6460000              1.0000000
F    1   1.00
      1.4000000              1.0000000
****
F     0
S    6   1.00
   7001.7130900              0.0018196169
   1051.3660900              0.0139160796
    239.2856900              0.0684053245
     67.3974453              0.233185760
     21.5199573              0.471267439
      7.40310130             0.356618546
SP   3   1.00
     20.8479528             -0.108506975            0.0716287243
      4.80830834            -0.146451658            0.3459121030
      1.34406986             1.128688580            0.7224699570
SP   1   1.00
      0.358151393            1.0000000              1.0000000
D    1   1.00
      3.5000000              1.0000000
D    1   1.00
      0.8750000              1.0000000
F    1   1.00
      1.8500000              1.0000000
****
Al     0
S    6   1.00
  13983.1000000              0.00194267
   2098.7500000              0.0148599
    477.7050000              0.0728494
    134.3600000              0.2468300
     42.8709000              0.4872580
     14.5189000              0.3234960
SP   6   1.00
    239.6680000             -0.00292619             0.00460285
     57.4419000             -0.0374080              0.0331990
     18.2859000             -0.1144870              0.1362820
      6.5991400              0.1156350              0.3304760
      2.4904900              0.6125950              0.4491460
      0.9445400              0.3937990              0.2657040
SP   3   1.00
      1.2779000             -0.2276060             -0.0175130
      0.3975900              0.00144583             0.2445330
      0.1600950              1.0927900              0.8049340
SP   1   1.00
      0.0556577              1.0000000              1.0000000
D    1   1.00
      0.6500000              1.0000000
D    1   1.00
      0.1625000              1.0000000
F    1   1.00
      0.2500000              1.0000000
****
Si     0
S    6   1.00
  16115.9000000              0.00195948
   2425.5800000              0.01492880
    553.8670000              0.07284780
    156.3400000              0.24613000
     50.0683000              0.48591400
     17.0178000              0.32500200
SP   6   1.00
    292.7180000             -0.00278094             0.00443826
     69.8731000             -0.03571460             0.03266790
     22.3363000             -0.11498500             0.13472100
      8.1503900              0.09356340             0.32867800
      3.1345800              0.60301700             0.44964000
      1.2254300              0.41895900             0.26137200
SP   3   1.00
      1.7273800             -0.24463000            -0.01779510
      0.5729220              0.00431572             0.25353900
      0.2221920              1.09818000             0.80066900
SP   1   1.00
      0.0778369              1.00000000             1.00000000
D    1   1.00
      0.9000000              1.0000000
D    1   1.00
      0.2250000              1.0000000
F    1   1.00
      0.3200000              1.0000000
****
P     0
S    6   1.00
  19413.3000000              0.0018516
   2909.4200000              0.0142062
    661.3640000              0.0699995
    185.7590000              0.2400790
     59.1943000              0.4847620
     20.0310000              0.3352000
SP   6   1.00
    339.4780000             -0.00278217             0.00456462
     81.0101000             -0.0360499              0.03369360
     25.8780000             -0.1166310              0.13975500
      9.4522100              0.0968328              0.33936200
      3.6656600              0.6144180              0.45092100
      1.4674600              0.4037980              0.23858600
SP   3   1.00
      2.1562300             -0.2529230             -0.01776530
      0.7489970              0.0328517              0.27405800
      0.2831450              1.0812500              0.78542100
SP   1   1.00
      0.0998317              1.0000000              1.00000000
D    1   1.00
      1.1000000              1.0000000
D    1   1.00
      0.2750000              1.0000000
F    1   1.00
      0.4500000              1.0000000
****
S     0
S    6   1.00
  21917.1000000              0.0018690
   3301.4900000              0.0142300
    754.1460000              0.0696960
    212.7110000              0.2384870
     67.9896000              0.4833070
     23.0515000              0.3380740
SP   6   1.00
    423.7350000             -0.0023767              0.0040610
    100.7100000             -0.0316930              0.0306810
     32.1599000             -0.1133170              0.1304520
     11.8079000              0.0560900              0.3272050
      4.6311000              0.5922550              0.4528510
      1.8702500              0.4550060              0.2560420
SP   3   1.00
      2.6158400             -0.2503740             -0.0145110
      0.9221670              0.0669570              0.3102630
      0.3412870              1.0545100              0.7544830
SP   1   1.00
      0.1171670              1.0000000              1.0000000
D    1   1.00
      1.3000000              1.0000000
D    1   1.00
      0.3250000              1.0000000
F    1   1.00
      0.5500000              1.0000000
****
Cl     0
S    6   1.00
  25180.1000000              0.0018330
   3780.3500000              0.0140340
    860.4740000              0.0690970
    242.1450000              0.2374520
     77.3349000              0.4830340
     26.2470000              0.3398560
SP   6   1.00
    491.7650000             -0.0022974              0.0039894
    116.9840000             -0.0307140              0.0303180
     37.4153000             -0.1125280              0.1298800
     13.7834000              0.0450160              0.3279510
      5.4521500              0.5893530              0.4535270
      2.2258800              0.4652060              0.2521540
SP   3   1.00
      3.1864900             -0.2518300             -0.0142990
      1.1442700              0.0615890              0.3235720
      0.4203770              1.0601800              0.7435070
SP   1   1.00
      0.1426570              1.0000000              1.0000000
D    1   1.00
      1.5000000              1.0000000
D    1   1.00
      0.3750000              1.0000000
F    1   1.00
      0.7000000              1.0000000
****
}

set {
reference uhf
freeze_core true
e_convergence 10
d_convergence 10
dft_spherical_points 1202
dft_radial_points 99
}

e = energy('b3lyp')

print_out('Grab this energy {0}'.format(e))
--------------------------------------------------------------------------

    Molecular point group: c1

    Geometry (in Bohr), charge = 0, multiplicity = 2:

       Center              X                  Y                   Z               Mass
    ------------   -----------------  -----------------  -----------------  -----------------
         C           -0.323340419756    -0.000002172784    -0.000123127916    12.000000000000
         C            0.059864039144    -1.400399888484    -2.426015926116    12.000000000000
         C            0.061020482844     2.801759474016    -0.000463269916    12.000000000000
         C            0.062416230744    -1.401355862484     2.426745159584    12.000000000000
         H            2.094131635544    -1.643576400284    -2.846864845316     1.007825032230
         H           -0.768298974256    -0.387778847584    -4.026444318416     1.007825032230
         H           -0.769752582456    -3.292912024084    -2.349133111016     1.007825032230
         H            2.086799218744     3.288102892716    -0.000329960416     1.007825032230
         H           -0.766935840656     3.680223800816     1.676354404284     1.007825032230
         H           -0.764357634056     3.680283973616    -1.676645986016     1.007825032230
         H            2.079746185544    -1.644612058284     2.848000881084     1.007825032230
         H           -0.761389754356    -3.291084240084     2.348843851984     1.007825032230
         H           -0.762513930156    -0.388665555584     4.024518364384     1.007825032230

  Charge       = 0
  Multiplicity = 2
  Basis Set: ANONYMOUSB22595EF
    Blend: 6-31G_2DFP_
  Basis Set: (ANONYMOUSB22595EF AUX)
    Blend: DEF2-UNIVERSAL-JKFIT

    Orbital Energies [Eh]
    ---------------------

    Alpha Occupied:

       1A    -10.180343     2A    -10.167617     3A    -10.167016
       4A    -10.166411     5A     -0.797767     6A     -0.686511
       7A     -0.685866     8A     -0.530777     9A     -0.441129
      10A     -0.434735    11A     -0.434604    12A     -0.382844
      13A     -0.382352    14A     -0.363613    15A     -0.338063
      16A     -0.337935    17A     -0.168961

    Alpha Virtual:

      18A      0.076069    19A      0.133983    20A      0.134313
      21A      0.142589    22A      0.142671    23A      0.154874
      24A      0.178376    25A      0.179193    26A      0.203548
      27A      0.214803    28A      0.275864    29A      0.276106
      30A      0.399182    31A      0.399275    32A      0.403341
      33A      0.424086    34A      0.424108    35A      0.456590
      36A      0.495313    37A      0.495462    38A      0.512165
      39A      0.513981    40A      0.578515    41A      0.579110
      42A      0.591157    43A      0.592053    44A      0.602633
      45A      0.624766    46A      0.631754    47A      0.635979
      48A      0.636536    49A      0.662872    50A      0.663984
      51A      0.683714    52A      0.683994    53A      0.734997
      54A      0.824977    55A      0.825812    56A      0.853929
      57A      0.914823    58A      0.915229    59A      0.944131
      60A      0.944603    61A      0.961182    62A      0.961423
      63A      1.003453    64A      1.127733    65A      1.128488
      66A      1.142205    67A      1.163235    68A      1.163312
      69A      1.223328    70A      1.274143    71A      1.274799
      72A      1.279376    73A      1.324047    74A      1.324668
      75A      1.355958    76A      1.365763    77A      1.366338
      78A      1.392446    79A      1.403204    80A      1.404893
      81A      1.416888    82A      1.417315    83A      1.427920
      84A      1.491497    85A      1.499081    86A      1.542437
      87A      1.543248    88A      1.574010    89A      1.574889
      90A      1.669813    91A      1.739257    92A      1.739445
      93A      1.768431    94A      1.830627    95A      1.832219
      96A      1.971727    97A      2.017657    98A      2.018946
      99A      2.019687   100A      2.051824   101A      2.053593
     102A      2.738451   103A      2.738525   104A      2.790927
     105A      2.811425   106A      2.889602   107A      2.890148
     108A      2.895072   109A      2.929406   110A      2.929595
     111A      2.959011   112A      2.963529   113A      2.965234
     114A      3.034049   115A      3.071049   116A      3.071537
     117A      3.084354   118A      3.168421   119A      3.169121
     120A      3.180626   121A      3.284925   122A      3.285713
     123A      3.326914   124A      3.327411   125A      3.375619
     126A      3.489168   127A      3.491152   128A      3.514021
     129A      3.525342   130A      3.568311   131A      3.568464
     132A      3.575144   133A      3.664869   134A      3.667757
     135A      3.679755   136A      3.693817   137A      3.694454
     138A      3.776229   139A      3.777370   140A      3.789134
     141A      3.911880   142A      3.912563   143A      4.034434
     144A      4.110092   145A      4.112445   146A      4.145460
     147A      4.150592   148A      4.173324   149A      4.201589
     150A      4.202714   151A      4.204176   152A      4.211517
     153A      4.314438   154A      4.317528   155A      4.358972
     156A      4.423845   157A      4.424936   158A      4.443570
     159A      4.515911   160A      4.517767   161A      4.577723
     162A      4.578860   163A      4.617532   164A      4.709497
     165A      4.774046   166A      4.775162   167A      4.836883
     168A      4.962863   169A      5.001634   170A      5.004270
     171A      5.227670   172A      5.245179   173A      5.248412
     174A      5.351504   175A      5.359970   176A      5.479371

    Beta Occupied:

       1A    -10.168381     2A    -10.167775     3A    -10.167170
       4A    -10.166516     5A     -0.781092     6A     -0.684309
       7A     -0.683674     8A     -0.511748     9A     -0.431127
      10A     -0.430962    11A     -0.421820    12A     -0.376959
      13A     -0.376405    14A     -0.362597    15A     -0.333171
      16A     -0.333072

    Beta Virtual:

      17A     -0.025744    18A      0.077079    19A      0.134942
      20A      0.135137    21A      0.144482    22A      0.144520
      23A      0.163328    24A      0.182038    25A      0.182874
      26A      0.215032    27A      0.218930    28A      0.282207
      29A      0.282460    30A      0.400347    31A      0.400449
      32A      0.419788    33A      0.426895    34A      0.426923
      35A      0.468498    36A      0.497567    37A      0.497731
      38A      0.513900    39A      0.556324    40A      0.584074
      41A      0.584651    42A      0.597344    43A      0.598241
      44A      0.610039    45A      0.628145    46A      0.631919
      47A      0.639281    48A      0.639794    49A      0.666456
      50A      0.667532    51A      0.686365    52A      0.686612
      53A      0.757520    54A      0.830116    55A      0.831008
      56A      0.855286    57A      0.922805    58A      0.923187
      59A      0.945968    60A      0.953531    61A      0.966546
      62A      0.966672    63A      1.008693    64A      1.131805
      65A      1.132472    66A      1.155571    67A      1.168292
      68A      1.168414    69A      1.232301    70A      1.279726
      71A      1.280410    72A      1.285130    73A      1.328987
      74A      1.329706    75A      1.365373    76A      1.371067
      77A      1.371520    78A      1.393507    79A      1.406608
      80A      1.408420    81A      1.421966    82A      1.422338
      83A      1.428189    84A      1.492545    85A      1.509522
      86A      1.546902    87A      1.547595    88A      1.581906
      89A      1.582740    90A      1.674659    91A      1.745024
      92A      1.745225    93A      1.779187    94A      1.834518
      95A      1.836037    96A      1.972587    97A      2.024961
      98A      2.025838    99A      2.039641   100A      2.058656
     101A      2.060219   102A      2.746764   103A      2.746884
     104A      2.811837   105A      2.816062   106A      2.902478
     107A      2.902747   108A      2.924665   109A      2.931969
     110A      2.931999   111A      2.960075   112A      2.968027
     113A      2.969837   114A      3.041977   115A      3.080811
     116A      3.081597   117A      3.086172   118A      3.183991
     119A      3.184976   120A      3.188381   121A      3.289687
     122A      3.290548   123A      3.330715   124A      3.331219
     125A      3.383435   126A      3.491969   127A      3.493813
     128A      3.512385   129A      3.528387   130A      3.574976
     131A      3.581589   132A      3.581894   133A      3.669534
     134A      3.672639   135A      3.693014   136A      3.725457
     137A      3.726063   138A      3.780721   139A      3.781932
     140A      3.817675   141A      3.921733   142A      3.922346
     143A      4.045316   144A      4.117131   145A      4.119003
     146A      4.152958   147A      4.157564   148A      4.187372
     149A      4.208314   150A      4.208681   151A      4.211316
     152A      4.216000   153A      4.322000   154A      4.324841
     155A      4.362338   156A      4.432086   157A      4.433074
     158A      4.446510   159A      4.523759   160A      4.525498
     161A      4.588357   162A      4.589426   163A      4.624726
     164A      4.719839   165A      4.780967   166A      4.782149
     167A      4.839799   168A      4.967661   169A      5.005709
     170A      5.008274   171A      5.233386   172A      5.246955
     173A      5.250209   174A      5.357985   175A      5.366442
     176A      5.481692

    Final Occupation by Irrep:
              A
    DOCC [    16 ]
    SOCC [     1 ]

  @DF-UKS Final Energy:  -157.81304856886106

   => Energetics <=

    Nuclear Repulsion Energy =            125.3946807079019408
    One-Electron Energy =                -458.7489642572752473
    Two-Electron Energy =                 195.8483851643049150
    DFT Exchange-Correlation Energy =     -20.3071501837927002
    Empirical Dispersion Energy =           0.0000000000000000
    VV10 Nonlocal Energy =                  0.0000000000000000
    Total Energy =                       -157.8130485688610634

  UHF NO Occupations:
  HONO-2 :   15  A 1.9996008
  HONO-1 :   16  A 1.9989804
  HONO-0 :   17  A 1.0000000
  LUNO+0 :   18  A 0.0010196
  LUNO+1 :   19  A 0.0003992
  LUNO+2 :   20  A 0.0001976
  LUNO+3 :   21  A 0.0001975

Computation Completed

Properties will be evaluated at   0.000000,   0.000000,   0.000000 [a0]

Properties computed using the SCF density matrix

  Nuclear Dipole Moment: [e a0]
     X:     0.8272      Y:    -0.0000      Z:    -0.0008

  Electronic Dipole Moment: [e a0]
     X:    -0.7493      Y:     0.0000      Z:     0.0026

  Dipole Moment: [e a0]
     X:     0.0779      Y:     0.0000      Z:     0.0018     Total:     0.0779

  Dipole Moment: [D]
     X:     0.1980      Y:     0.0000      Z:     0.0046     Total:     0.1980

*** tstop() called on n071 at Fri Nov  5 14:06:20 2021
Module time:
	user time   =     577.15 seconds =       9.62 minutes
	system time =      13.75 seconds =       0.23 minutes
	total time  =        149 seconds =       2.48 minutes
Total time:
	user time   =     577.15 seconds =       9.62 minutes
	system time =      13.75 seconds =       0.23 minutes
	total time  =        149 seconds =       2.48 minutes
Grab this energy -157.81304856886106
    Psi4 stopped on: Friday, 05 November 2021 02:06PM
    Psi4 wall time for execution: 0:02:29.04

*** Psi4 exiting successfully. Buy a developer a beer!
