                               Psi4 1.4a2.dev629

  ==> Input File <==

--------------------------------------------------------------------------
import os
memory 14 GB

molecule {
 C   -0.3233414753    0.0024272320    0.0000000094
 C    0.0615351213   -1.4016384210   -2.4266637976
 C    0.0602235738    2.8005067410   -0.0015988678
 C    0.0615392980   -1.3988647620    2.4282655924
 H    2.0882191323   -1.6458655226   -2.8459426039
 H   -0.7607232692   -0.3875075554   -4.0303773012
 H   -0.7688235208   -3.2886275252   -2.3497807748
 H    2.0842260099    3.2889205487    0.0006174632
 H   -0.7668619657    3.6773057950    1.6770459395
 H   -0.7672606051    3.6774367603   -1.6764363780
 H    2.0882152989   -1.6469425716    2.8453187280
 H   -0.7684367503   -3.2890824797    2.3493644533
 H   -0.7611187245   -0.3880925532    4.0301875373
units bohr
0 2
}

basis {

assign 6-31g_2dfp_

[ 6-31g_2dfp_ ]

spherical

!----------------------------------------------------------------------
! Basis Set Exchange
! Version v0.8.13
! https://www.basissetexchange.org
!----------------------------------------------------------------------
!   Basis set: 6-31G(2df,p)
! Description: 6-31G(2df,p)
!        Role: orbital
!     Version: 0  (Data from the original Basis Set Exchange)
!----------------------------------------------------------------------

****
H     0
S    3   1.00
     18.7311370              0.03349460
      2.8253937              0.23472695
      0.6401217              0.81375733
S    1   1.00
      0.1612778              1.00000000
P    1   1.00
      1.5000000              1.0000000
P    1   1.00
      0.3750000              1.0000000
****
B     0
S    6   1.00
   2068.8823000              0.0018663
    310.6495700              0.0142515
     70.6830330              0.0695516
     19.8610800              0.2325729
      6.2993048              0.4670787
      2.1270270              0.3634314
SP   3   1.00
      4.7279710             -0.1303938              0.0745976
      1.1903377             -0.1307889              0.3078467
      0.3594117              1.1309444              0.7434568
SP   1   1.00
      0.1267512              1.0000000              1.0000000
D    1   1.00
      0.8020000              1.0000000
D    1   1.00
      0.2005000              1.0000000
F    1   1.00
      0.5000000              1.0000000
****
C     0
S    6   1.00
   3047.5249000              0.0018347
    457.3695100              0.0140373
    103.9486900              0.0688426
     29.2101550              0.2321844
      9.2866630              0.4679413
      3.1639270              0.3623120
SP   3   1.00
      7.8682724             -0.1193324              0.0689991
      1.8812885             -0.1608542              0.3164240
      0.5442493              1.1434564              0.7443083
SP   1   1.00
      0.1687144              1.0000000              1.0000000
D    1   1.00
      1.2520000              1.0000000
D    1   1.00
      0.3130000              1.0000000
F    1   1.00
      0.8000000              1.0000000
****
N     0
S    6   1.00
   4173.5110000              0.0018348
    627.4579000              0.0139950
    142.9021000              0.0685870
     40.2343300              0.2322410
     12.8202100              0.4690700
      4.3904370              0.3604550
SP   3   1.00
     11.6263580             -0.1149610              0.0675800
      2.7162800             -0.1691180              0.3239070
      0.7722180              1.1458520              0.7408950
SP   1   1.00
      0.2120313              1.0000000              1.0000000
D    1   1.00
      1.8260000              1.0000000
D    1   1.00
      0.4565000              1.0000000
F    1   1.00
      1.0000000              1.0000000
****
O     0
S    6   1.00
   5484.6717000              0.0018311
    825.2349500              0.0139501
    188.0469600              0.0684451
     52.9645000              0.2327143
     16.8975700              0.4701930
      5.7996353              0.3585209
SP   3   1.00
     15.5396160             -0.1107775              0.0708743
      3.5999336             -0.1480263              0.3397528
      1.0137618              1.1307670              0.7271586
SP   1   1.00
      0.2700058              1.0000000              1.0000000
D    1   1.00
      2.5840000              1.0000000
D    1   1.00
      0.6460000              1.0000000
F    1   1.00
      1.4000000              1.0000000
****
F     0
S    6   1.00
   7001.7130900              0.0018196169
   1051.3660900              0.0139160796
    239.2856900              0.0684053245
     67.3974453              0.233185760
     21.5199573              0.471267439
      7.40310130             0.356618546
SP   3   1.00
     20.8479528             -0.108506975            0.0716287243
      4.80830834            -0.146451658            0.3459121030
      1.34406986             1.128688580            0.7224699570
SP   1   1.00
      0.358151393            1.0000000              1.0000000
D    1   1.00
      3.5000000              1.0000000
D    1   1.00
      0.8750000              1.0000000
F    1   1.00
      1.8500000              1.0000000
****
Al     0
S    6   1.00
  13983.1000000              0.00194267
   2098.7500000              0.0148599
    477.7050000              0.0728494
    134.3600000              0.2468300
     42.8709000              0.4872580
     14.5189000              0.3234960
SP   6   1.00
    239.6680000             -0.00292619             0.00460285
     57.4419000             -0.0374080              0.0331990
     18.2859000             -0.1144870              0.1362820
      6.5991400              0.1156350              0.3304760
      2.4904900              0.6125950              0.4491460
      0.9445400              0.3937990              0.2657040
SP   3   1.00
      1.2779000             -0.2276060             -0.0175130
      0.3975900              0.00144583             0.2445330
      0.1600950              1.0927900              0.8049340
SP   1   1.00
      0.0556577              1.0000000              1.0000000
D    1   1.00
      0.6500000              1.0000000
D    1   1.00
      0.1625000              1.0000000
F    1   1.00
      0.2500000              1.0000000
****
Si     0
S    6   1.00
  16115.9000000              0.00195948
   2425.5800000              0.01492880
    553.8670000              0.07284780
    156.3400000              0.24613000
     50.0683000              0.48591400
     17.0178000              0.32500200
SP   6   1.00
    292.7180000             -0.00278094             0.00443826
     69.8731000             -0.03571460             0.03266790
     22.3363000             -0.11498500             0.13472100
      8.1503900              0.09356340             0.32867800
      3.1345800              0.60301700             0.44964000
      1.2254300              0.41895900             0.26137200
SP   3   1.00
      1.7273800             -0.24463000            -0.01779510
      0.5729220              0.00431572             0.25353900
      0.2221920              1.09818000             0.80066900
SP   1   1.00
      0.0778369              1.00000000             1.00000000
D    1   1.00
      0.9000000              1.0000000
D    1   1.00
      0.2250000              1.0000000
F    1   1.00
      0.3200000              1.0000000
****
P     0
S    6   1.00
  19413.3000000              0.0018516
   2909.4200000              0.0142062
    661.3640000              0.0699995
    185.7590000              0.2400790
     59.1943000              0.4847620
     20.0310000              0.3352000
SP   6   1.00
    339.4780000             -0.00278217             0.00456462
     81.0101000             -0.0360499              0.03369360
     25.8780000             -0.1166310              0.13975500
      9.4522100              0.0968328              0.33936200
      3.6656600              0.6144180              0.45092100
      1.4674600              0.4037980              0.23858600
SP   3   1.00
      2.1562300             -0.2529230             -0.01776530
      0.7489970              0.0328517              0.27405800
      0.2831450              1.0812500              0.78542100
SP   1   1.00
      0.0998317              1.0000000              1.00000000
D    1   1.00
      1.1000000              1.0000000
D    1   1.00
      0.2750000              1.0000000
F    1   1.00
      0.4500000              1.0000000
****
S     0
S    6   1.00
  21917.1000000              0.0018690
   3301.4900000              0.0142300
    754.1460000              0.0696960
    212.7110000              0.2384870
     67.9896000              0.4833070
     23.0515000              0.3380740
SP   6   1.00
    423.7350000             -0.0023767              0.0040610
    100.7100000             -0.0316930              0.0306810
     32.1599000             -0.1133170              0.1304520
     11.8079000              0.0560900              0.3272050
      4.6311000              0.5922550              0.4528510
      1.8702500              0.4550060              0.2560420
SP   3   1.00
      2.6158400             -0.2503740             -0.0145110
      0.9221670              0.0669570              0.3102630
      0.3412870              1.0545100              0.7544830
SP   1   1.00
      0.1171670              1.0000000              1.0000000
D    1   1.00
      1.3000000              1.0000000
D    1   1.00
      0.3250000              1.0000000
F    1   1.00
      0.5500000              1.0000000
****
Cl     0
S    6   1.00
  25180.1000000              0.0018330
   3780.3500000              0.0140340
    860.4740000              0.0690970
    242.1450000              0.2374520
     77.3349000              0.4830340
     26.2470000              0.3398560
SP   6   1.00
    491.7650000             -0.0022974              0.0039894
    116.9840000             -0.0307140              0.0303180
     37.4153000             -0.1125280              0.1298800
     13.7834000              0.0450160              0.3279510
      5.4521500              0.5893530              0.4535270
      2.2258800              0.4652060              0.2521540
SP   3   1.00
      3.1864900             -0.2518300             -0.0142990
      1.1442700              0.0615890              0.3235720
      0.4203770              1.0601800              0.7435070
SP   1   1.00
      0.1426570              1.0000000              1.0000000
D    1   1.00
      1.5000000              1.0000000
D    1   1.00
      0.3750000              1.0000000
F    1   1.00
      0.7000000              1.0000000
****
}

set {
reference uhf
freeze_core true
e_convergence 10
d_convergence 10
dft_spherical_points 1202
dft_radial_points 99
}

e = energy('b3lyp')

print_out('Grab this energy {0}'.format(e))
--------------------------------------------------------------------------

    Molecular point group: c1

    Geometry (in Bohr), charge = 0, multiplicity = 2:

       Center              X                  Y                   Z               Mass
    ------------   -----------------  -----------------  -----------------  -----------------
         C           -0.323340801684     0.001959473701    -0.000000556168    12.000000000000
         C            0.061535794916    -1.402106179299    -2.426664363168    12.000000000000
         C            0.060224247416     2.800038982701    -0.001599433368    12.000000000000
         C            0.061539971616    -1.399332520299     2.428265026832    12.000000000000
         H            2.088219805916    -1.646333280899    -2.845943169468     1.007825032230
         H           -0.760722595584    -0.387975313699    -4.030377866768     1.007825032230
         H           -0.768822847184    -3.289095283499    -2.349781340368     1.007825032230
         H            2.084226683516     3.288452790401     0.000616897632     1.007825032230
         H           -0.766861292084     3.676838036701     1.677045373932     1.007825032230
         H           -0.767259931484     3.676969002001    -1.676436943568     1.007825032230
         H            2.088215972516    -1.647410329899     2.845318162432     1.007825032230
         H           -0.768436076684    -3.289550237999     2.349363887732     1.007825032230
         H           -0.761118050884    -0.388560311499     4.030186971732     1.007825032230

  Charge       = 0
  Multiplicity = 2
  Basis Set: ANONYMOUS2B4A723E
    Blend: 6-31G_2DFP_
  Basis Set: (ANONYMOUS2B4A723E AUX)
    Blend: DEF2-UNIVERSAL-JKFIT

    Orbital Energies [Eh]
    ---------------------

    Alpha Occupied:

       1A    -10.180341     2A    -10.167138     3A    -10.167109
       4A    -10.166797     5A     -0.797767     6A     -0.686329
       7A     -0.686044     8A     -0.530776     9A     -0.441125
      10A     -0.434745    11A     -0.434600    12A     -0.382644
      13A     -0.382554    14A     -0.363610    15A     -0.338147
      16A     -0.337849    17A     -0.168960

    Alpha Virtual:

      18A      0.076072    19A      0.134093    20A      0.134218
      21A      0.142614    22A      0.142640    23A      0.154878
      24A      0.178774    25A      0.178781    26A      0.203545
      27A      0.214804    28A      0.275649    29A      0.276322
      30A      0.399221    31A      0.399224    32A      0.403356
      33A      0.424063    34A      0.424133    35A      0.456594
      36A      0.495339    37A      0.495440    38A      0.512153
      39A      0.513986    40A      0.578630    41A      0.578999
      42A      0.591408    43A      0.591863    44A      0.602574
      45A      0.624751    46A      0.631783    47A      0.636160
      48A      0.636340    49A      0.663208    50A      0.663616
      51A      0.683832    52A      0.683876    53A      0.734994
      54A      0.825375    55A      0.825439    56A      0.853916
      57A      0.914893    58A      0.915161    59A      0.944122
      60A      0.944615    61A      0.961246    62A      0.961341
      63A      1.003454    64A      1.128043    65A      1.128152
      66A      1.142208    67A      1.163160    68A      1.163406
      69A      1.223324    70A      1.274306    71A      1.274669
      72A      1.279359    73A      1.324233    74A      1.324477
      75A      1.355988    76A      1.365749    77A      1.366358
      78A      1.392454    79A      1.403737    80A      1.404373
      81A      1.416841    82A      1.417371    83A      1.427912
      84A      1.491454    85A      1.499129    86A      1.542692
      87A      1.542962    88A      1.574228    89A      1.574673
      90A      1.669829    91A      1.739160    92A      1.739681
      93A      1.768322    94A      1.830975    95A      1.831808
      96A      1.971730    97A      2.018195    98A      2.019011
      99A      2.019177   100A      2.051677   101A      2.053618
     102A      2.738430   103A      2.738536   104A      2.790921
     105A      2.811428   106A      2.889540   107A      2.890300
     108A      2.895002   109A      2.929327   110A      2.929673
     111A      2.958995   112A      2.964108   113A      2.964650
     114A      3.034008   115A      3.070985   116A      3.071585
     117A      3.084345   118A      3.168737   119A      3.168806
     120A      3.180614   121A      3.285267   122A      3.285360
     123A      3.326726   124A      3.327598   125A      3.375619
     126A      3.489916   127A      3.490406   128A      3.513972
     129A      3.525340   130A      3.567551   131A      3.569240
     132A      3.575151   133A      3.666132   134A      3.666589
     135A      3.679677   136A      3.693781   137A      3.694475
     138A      3.775430   139A      3.778151   140A      3.789164
     141A      3.911739   142A      3.912716   143A      4.034451
     144A      4.110348   145A      4.112394   146A      4.147573
     147A      4.148677   148A      4.173244   149A      4.202514
     150A      4.202584   151A      4.203679   152A      4.210875
     153A      4.315441   154A      4.316466   155A      4.358976
     156A      4.423955   157A      4.424944   158A      4.443431
     159A      4.516085   160A      4.517596   161A      4.577610
     162A      4.578912   163A      4.617529   164A      4.709454
     165A      4.774025   166A      4.775207   167A      4.836918
     168A      4.962850   169A      5.002317   170A      5.003590
     171A      5.228029   172A      5.246703   173A      5.246934
     174A      5.354556   175A      5.356464   176A      5.479353

    Beta Occupied:

       1A    -10.167890     2A    -10.167873     3A    -10.167561
       4A    -10.166518     5A     -0.781092     6A     -0.684121
       7A     -0.683858     8A     -0.511747     9A     -0.431122
      10A     -0.430963    11A     -0.421823    12A     -0.376717
      13A     -0.376651    14A     -0.362594    15A     -0.333270
      16A     -0.332971

    Beta Virtual:

      17A     -0.025742    18A      0.077081    19A      0.134979
      20A      0.135111    21A      0.144475    22A      0.144521
      23A      0.163337    24A      0.182445    25A      0.182454
      26A      0.215027    27A      0.218934    28A      0.282008
      29A      0.282659    30A      0.400395    31A      0.400399
      32A      0.419793    33A      0.426861    34A      0.426957
      35A      0.468502    36A      0.497606    37A      0.497694
      38A      0.513895    39A      0.556324    40A      0.584167
      41A      0.584562    42A      0.597608    43A      0.598021
      44A      0.609996    45A      0.628121    46A      0.631948
      47A      0.639424    48A      0.639648    49A      0.666783
      50A      0.667169    51A      0.686480    52A      0.686499
      53A      0.757517    54A      0.830572    55A      0.830580
      56A      0.855270    57A      0.922860    58A      0.923136
      59A      0.945960    60A      0.953542    61A      0.966523
      62A      0.966677    63A      1.008694    64A      1.132021
      65A      1.132233    66A      1.155581    67A      1.168299
      68A      1.168415    69A      1.232298    70A      1.279897
      71A      1.280268    72A      1.285116    73A      1.329235
      74A      1.329454    75A      1.365401    76A      1.371030
      77A      1.371563    78A      1.393515    79A      1.407174
      80A      1.407865    81A      1.421898    82A      1.422415
      83A      1.428184    84A      1.492521    85A      1.509552
      86A      1.547131    87A      1.547338    88A      1.582145
      89A      1.582501    90A      1.674676    91A      1.744907
      92A      1.745457    93A      1.779102    94A      1.834823
      95A      1.835670    96A      1.972590    97A      2.025367
      98A      2.025513    99A      2.039676   100A      2.058426
     101A      2.060304   102A      2.746738   103A      2.746900
     104A      2.811799   105A      2.816097   106A      2.902284
     107A      2.902983   108A      2.924636   109A      2.931831
     110A      2.932152   111A      2.960058   112A      2.968669
     113A      2.969178   114A      3.041943   115A      3.080938
     116A      3.081454   117A      3.086162   118A      3.184419
     119A      3.184569   120A      3.188351   121A      3.290062
     122A      3.290160   123A      3.330537   124A      3.331396
     125A      3.383438   126A      3.492625   127A      3.493158
     128A      3.512349   129A      3.528379   130A      3.574996
     131A      3.580932   132A      3.582547   133A      3.671026
     134A      3.671213   135A      3.692953   136A      3.725569
     137A      3.725949   138A      3.780022   139A      3.782630
     140A      3.817688   141A      3.921600   142A      3.922490
     143A      4.045338   144A      4.117165   145A      4.119208
     146A      4.154848   147A      4.155819   148A      4.187304
     149A      4.208507   150A      4.209376   151A      4.210733
     152A      4.215353   153A      4.322849   154A      4.323939
     155A      4.362338   156A      4.432194   157A      4.433132
     158A      4.446319   159A      4.523885   160A      4.525374
     161A      4.588209   162A      4.589513   163A      4.624726
     164A      4.719799   165A      4.781020   166A      4.782119
     167A      4.839835   168A      4.967645   169A      5.006337
     170A      5.007649   171A      5.233744   172A      5.248476
     173A      5.248730   174A      5.361015   175A      5.362966
     176A      5.481675

    Final Occupation by Irrep:
              A
    DOCC [    16 ]
    SOCC [     1 ]

  @DF-UKS Final Energy:  -157.81306666447398

   => Energetics <=

    Nuclear Repulsion Energy =            125.3946344232150949
    One-Electron Energy =                -458.7489277187379457
    Two-Electron Energy =                 195.8483707469983983
    DFT Exchange-Correlation Energy =     -20.3071441159495301
    Empirical Dispersion Energy =           0.0000000000000000
    VV10 Nonlocal Energy =                  0.0000000000000000
    Total Energy =                       -157.8130666644739790

  UHF NO Occupations:
  HONO-2 :   15  A 1.9996009
  HONO-1 :   16  A 1.9989805
  HONO-0 :   17  A 1.0000000
  LUNO+0 :   18  A 0.0010195
  LUNO+1 :   19  A 0.0003991
  LUNO+2 :   20  A 0.0001981
  LUNO+3 :   21  A 0.0001970

Computation Completed

Properties will be evaluated at   0.000000,   0.000000,   0.000000 [a0]

Properties computed using the SCF density matrix

  Nuclear Dipole Moment: [e a0]
     X:     0.8272      Y:    -0.0033      Z:    -0.0000

  Electronic Dipole Moment: [e a0]
     X:    -0.7493      Y:     0.0033      Z:     0.0000

  Dipole Moment: [e a0]
     X:     0.0779      Y:    -0.0000      Z:     0.0000     Total:     0.0779

  Dipole Moment: [D]
     X:     0.1980      Y:    -0.0001      Z:     0.0000     Total:     0.1980

*** tstop() called on n089 at Fri Nov  5 12:51:39 2021
Module time:
	user time   =     560.81 seconds =       9.35 minutes
	system time =       5.19 seconds =       0.09 minutes
	total time  =        142 seconds =       2.37 minutes
Total time:
	user time   =     560.81 seconds =       9.35 minutes
	system time =       5.19 seconds =       0.09 minutes
	total time  =        142 seconds =       2.37 minutes
Grab this energy -157.81306666447398
    Psi4 stopped on: Friday, 05 November 2021 12:51PM
    Psi4 wall time for execution: 0:02:22.23

*** Psi4 exiting successfully. Buy a developer a beer!
