                               Psi4 1.4a2.dev629

  ==> Input File <==

--------------------------------------------------------------------------
import os
memory 14 GB

molecule {
 C   -0.3282882180   -0.0000023075   -0.0000000000
 C    0.0592578642   -1.4010955974   -2.4267581331
 C    0.0591380835    2.8021953326   -0.0000000000
 C    0.0592578642   -1.4010955974    2.4267581331
 H    2.0875877828   -1.6412097819   -2.8424390033
 H   -0.7639651655   -0.3898472389   -4.0279796881
 H   -0.7641279974   -3.2933507913   -2.3516457339
 H    2.0874492684    3.2823271956    0.0000000000
 H   -0.7642059896    3.6832311424    1.6763412119
 H   -0.7642059896    3.6832311424   -1.6763412119
 H    2.0875877828   -1.6412097819    2.8424390033
 H   -0.7641279974   -3.2933507913    2.3516457339
 H   -0.7639651655   -0.3898472389    4.0279796881
units bohr
0 2
}

basis {

assign 6-31g_2dfp_

[ 6-31g_2dfp_ ]

spherical

!----------------------------------------------------------------------
! Basis Set Exchange
! Version v0.8.13
! https://www.basissetexchange.org
!----------------------------------------------------------------------
!   Basis set: 6-31G(2df,p)
! Description: 6-31G(2df,p)
!        Role: orbital
!     Version: 0  (Data from the original Basis Set Exchange)
!----------------------------------------------------------------------

****
H     0
S    3   1.00
     18.7311370              0.03349460
      2.8253937              0.23472695
      0.6401217              0.81375733
S    1   1.00
      0.1612778              1.00000000
P    1   1.00
      1.5000000              1.0000000
P    1   1.00
      0.3750000              1.0000000
****
B     0
S    6   1.00
   2068.8823000              0.0018663
    310.6495700              0.0142515
     70.6830330              0.0695516
     19.8610800              0.2325729
      6.2993048              0.4670787
      2.1270270              0.3634314
SP   3   1.00
      4.7279710             -0.1303938              0.0745976
      1.1903377             -0.1307889              0.3078467
      0.3594117              1.1309444              0.7434568
SP   1   1.00
      0.1267512              1.0000000              1.0000000
D    1   1.00
      0.8020000              1.0000000
D    1   1.00
      0.2005000              1.0000000
F    1   1.00
      0.5000000              1.0000000
****
C     0
S    6   1.00
   3047.5249000              0.0018347
    457.3695100              0.0140373
    103.9486900              0.0688426
     29.2101550              0.2321844
      9.2866630              0.4679413
      3.1639270              0.3623120
SP   3   1.00
      7.8682724             -0.1193324              0.0689991
      1.8812885             -0.1608542              0.3164240
      0.5442493              1.1434564              0.7443083
SP   1   1.00
      0.1687144              1.0000000              1.0000000
D    1   1.00
      1.2520000              1.0000000
D    1   1.00
      0.3130000              1.0000000
F    1   1.00
      0.8000000              1.0000000
****
N     0
S    6   1.00
   4173.5110000              0.0018348
    627.4579000              0.0139950
    142.9021000              0.0685870
     40.2343300              0.2322410
     12.8202100              0.4690700
      4.3904370              0.3604550
SP   3   1.00
     11.6263580             -0.1149610              0.0675800
      2.7162800             -0.1691180              0.3239070
      0.7722180              1.1458520              0.7408950
SP   1   1.00
      0.2120313              1.0000000              1.0000000
D    1   1.00
      1.8260000              1.0000000
D    1   1.00
      0.4565000              1.0000000
F    1   1.00
      1.0000000              1.0000000
****
O     0
S    6   1.00
   5484.6717000              0.0018311
    825.2349500              0.0139501
    188.0469600              0.0684451
     52.9645000              0.2327143
     16.8975700              0.4701930
      5.7996353              0.3585209
SP   3   1.00
     15.5396160             -0.1107775              0.0708743
      3.5999336             -0.1480263              0.3397528
      1.0137618              1.1307670              0.7271586
SP   1   1.00
      0.2700058              1.0000000              1.0000000
D    1   1.00
      2.5840000              1.0000000
D    1   1.00
      0.6460000              1.0000000
F    1   1.00
      1.4000000              1.0000000
****
F     0
S    6   1.00
   7001.7130900              0.0018196169
   1051.3660900              0.0139160796
    239.2856900              0.0684053245
     67.3974453              0.233185760
     21.5199573              0.471267439
      7.40310130             0.356618546
SP   3   1.00
     20.8479528             -0.108506975            0.0716287243
      4.80830834            -0.146451658            0.3459121030
      1.34406986             1.128688580            0.7224699570
SP   1   1.00
      0.358151393            1.0000000              1.0000000
D    1   1.00
      3.5000000              1.0000000
D    1   1.00
      0.8750000              1.0000000
F    1   1.00
      1.8500000              1.0000000
****
Al     0
S    6   1.00
  13983.1000000              0.00194267
   2098.7500000              0.0148599
    477.7050000              0.0728494
    134.3600000              0.2468300
     42.8709000              0.4872580
     14.5189000              0.3234960
SP   6   1.00
    239.6680000             -0.00292619             0.00460285
     57.4419000             -0.0374080              0.0331990
     18.2859000             -0.1144870              0.1362820
      6.5991400              0.1156350              0.3304760
      2.4904900              0.6125950              0.4491460
      0.9445400              0.3937990              0.2657040
SP   3   1.00
      1.2779000             -0.2276060             -0.0175130
      0.3975900              0.00144583             0.2445330
      0.1600950              1.0927900              0.8049340
SP   1   1.00
      0.0556577              1.0000000              1.0000000
D    1   1.00
      0.6500000              1.0000000
D    1   1.00
      0.1625000              1.0000000
F    1   1.00
      0.2500000              1.0000000
****
Si     0
S    6   1.00
  16115.9000000              0.00195948
   2425.5800000              0.01492880
    553.8670000              0.07284780
    156.3400000              0.24613000
     50.0683000              0.48591400
     17.0178000              0.32500200
SP   6   1.00
    292.7180000             -0.00278094             0.00443826
     69.8731000             -0.03571460             0.03266790
     22.3363000             -0.11498500             0.13472100
      8.1503900              0.09356340             0.32867800
      3.1345800              0.60301700             0.44964000
      1.2254300              0.41895900             0.26137200
SP   3   1.00
      1.7273800             -0.24463000            -0.01779510
      0.5729220              0.00431572             0.25353900
      0.2221920              1.09818000             0.80066900
SP   1   1.00
      0.0778369              1.00000000             1.00000000
D    1   1.00
      0.9000000              1.0000000
D    1   1.00
      0.2250000              1.0000000
F    1   1.00
      0.3200000              1.0000000
****
P     0
S    6   1.00
  19413.3000000              0.0018516
   2909.4200000              0.0142062
    661.3640000              0.0699995
    185.7590000              0.2400790
     59.1943000              0.4847620
     20.0310000              0.3352000
SP   6   1.00
    339.4780000             -0.00278217             0.00456462
     81.0101000             -0.0360499              0.03369360
     25.8780000             -0.1166310              0.13975500
      9.4522100              0.0968328              0.33936200
      3.6656600              0.6144180              0.45092100
      1.4674600              0.4037980              0.23858600
SP   3   1.00
      2.1562300             -0.2529230             -0.01776530
      0.7489970              0.0328517              0.27405800
      0.2831450              1.0812500              0.78542100
SP   1   1.00
      0.0998317              1.0000000              1.00000000
D    1   1.00
      1.1000000              1.0000000
D    1   1.00
      0.2750000              1.0000000
F    1   1.00
      0.4500000              1.0000000
****
S     0
S    6   1.00
  21917.1000000              0.0018690
   3301.4900000              0.0142300
    754.1460000              0.0696960
    212.7110000              0.2384870
     67.9896000              0.4833070
     23.0515000              0.3380740
SP   6   1.00
    423.7350000             -0.0023767              0.0040610
    100.7100000             -0.0316930              0.0306810
     32.1599000             -0.1133170              0.1304520
     11.8079000              0.0560900              0.3272050
      4.6311000              0.5922550              0.4528510
      1.8702500              0.4550060              0.2560420
SP   3   1.00
      2.6158400             -0.2503740             -0.0145110
      0.9221670              0.0669570              0.3102630
      0.3412870              1.0545100              0.7544830
SP   1   1.00
      0.1171670              1.0000000              1.0000000
D    1   1.00
      1.3000000              1.0000000
D    1   1.00
      0.3250000              1.0000000
F    1   1.00
      0.5500000              1.0000000
****
Cl     0
S    6   1.00
  25180.1000000              0.0018330
   3780.3500000              0.0140340
    860.4740000              0.0690970
    242.1450000              0.2374520
     77.3349000              0.4830340
     26.2470000              0.3398560
SP   6   1.00
    491.7650000             -0.0022974              0.0039894
    116.9840000             -0.0307140              0.0303180
     37.4153000             -0.1125280              0.1298800
     13.7834000              0.0450160              0.3279510
      5.4521500              0.5893530              0.4535270
      2.2258800              0.4652060              0.2521540
SP   3   1.00
      3.1864900             -0.2518300             -0.0142990
      1.1442700              0.0615890              0.3235720
      0.4203770              1.0601800              0.7435070
SP   1   1.00
      0.1426570              1.0000000              1.0000000
D    1   1.00
      1.5000000              1.0000000
D    1   1.00
      0.3750000              1.0000000
F    1   1.00
      0.7000000              1.0000000
****
}

set {
reference uhf
freeze_core true
e_convergence 10
d_convergence 10
dft_spherical_points 1202
dft_radial_points 99
}

e = energy('b3lyp')

print_out('Grab this energy {0}'.format(e))
--------------------------------------------------------------------------

    Molecular point group: cs

    Geometry (in Bohr), charge = 0, multiplicity = 2:

       Center              X                  Y                   Z               Mass
    ------------   -----------------  -----------------  -----------------  -----------------
         C           -0.326247656151    -0.000002230669     0.000000000000    12.000000000000
         C            0.061298426049    -1.401095520569    -2.426758133100    12.000000000000
         C            0.061178645349     2.802195409431     0.000000000000    12.000000000000
         C            0.061298426049    -1.401095520569     2.426758133100    12.000000000000
         H            2.089628344649    -1.641209705069    -2.842439003300     1.007825032230
         H           -0.761924603651    -0.389847162069    -4.027979688100     1.007825032230
         H           -0.762087435551    -3.293350714469    -2.351645733900     1.007825032230
         H            2.089489830249     3.282327272431     0.000000000000     1.007825032230
         H           -0.762165427751     3.683231219231     1.676341211900     1.007825032230
         H           -0.762165427751     3.683231219231    -1.676341211900     1.007825032230
         H            2.089628344649    -1.641209705069     2.842439003300     1.007825032230
         H           -0.762087435551    -3.293350714469     2.351645733900     1.007825032230
         H           -0.761924603651    -0.389847162069     4.027979688100     1.007825032230

  Charge       = 0
  Multiplicity = 2
  Basis Set: ANONYMOUSC9BF49C2
    Blend: 6-31G_2DFP_
  Basis Set: (ANONYMOUSC9BF49C2 AUX)
    Blend: DEF2-UNIVERSAL-JKFIT

    Orbital Energies [Eh]
    ---------------------

    Alpha Occupied:

       1Ap   -10.180468     2Ap   -10.167101     1App  -10.167100
       3Ap   -10.167055     4Ap    -0.797648     5Ap    -0.686137
       2App   -0.686136     6Ap    -0.530786     7Ap    -0.441058
       3App   -0.434606     8Ap    -0.434605     9Ap    -0.382504
       4App   -0.382502     5App   -0.363754     6App   -0.338026
      10Ap    -0.338026    11Ap    -0.168987

    Alpha Virtual:

      12Ap     0.076054    13Ap     0.134211     7App    0.134212
      14Ap     0.142643     8App    0.142643    15Ap     0.154608
      16Ap     0.178710     9App    0.178711    17Ap     0.203369
      10App    0.214714    11App    0.275807    18Ap     0.275808
      19Ap     0.398983    12App    0.398987    20Ap     0.403377
      13App    0.424243    21Ap     0.424243    22Ap     0.456354
      23Ap     0.495464    14App    0.495465    15App    0.512246
      24Ap     0.513926    25Ap     0.578745    16App    0.578753
      17App    0.591525    26Ap     0.591526    27Ap     0.602492
      28Ap     0.624843    18App    0.631665    19App    0.636282
      29Ap     0.636286    30Ap     0.662963    20App    0.662963
      31Ap     0.683960    21App    0.683961    32Ap     0.734781
      22App    0.825331    33Ap     0.825334    23App    0.853622
      24App    0.914718    34Ap     0.914723    25App    0.943803
      35Ap     0.945391    26App    0.961655    36Ap     0.961671
      37Ap     1.003607    38Ap     1.127875    27App    1.127888
      39Ap     1.142432    40Ap     1.162571    28App    1.162584
      41Ap     1.222979    42Ap     1.274227    29App    1.274230
      43Ap     1.278990    30App    1.324192    44Ap     1.324194
      45Ap     1.355382    31App    1.366082    46Ap     1.366086
      32App    1.392726    47Ap     1.403686    33App    1.403688
      34App    1.416663    48Ap     1.416670    35App    1.427109
      36App    1.491363    49Ap     1.498892    37App    1.543143
      50Ap     1.543146    51Ap     1.575164    38App    1.575166
      52Ap     1.670294    53Ap     1.739338    39App    1.739349
      54Ap     1.768253    40App    1.831438    55Ap     1.831439
      41App    1.972190    56Ap     2.017892    42App    2.017895
      57Ap     2.018238    58Ap     2.051790    43App    2.051790
      44App    2.738570    59Ap     2.738571    60Ap     2.790476
      45App    2.811185    61Ap     2.889613    46App    2.889619
      62Ap     2.894726    63Ap     2.929188    47App    2.929196
      48App    2.959099    64Ap     2.964282    49App    2.964296
      65Ap     3.033493    50App    3.071132    66Ap     3.071146
      51App    3.084770    67Ap     3.168828    52App    3.168836
      68Ap     3.180614    53App    3.286070    69Ap     3.286070
      70Ap     3.326986    54App    3.326992    71Ap     3.375610
      55App    3.490457    72Ap     3.490477    56App    3.513300
      73Ap     3.525317    57App    3.567424    74Ap     3.567445
      58App    3.573861    75Ap     3.666432    59App    3.666441
      76Ap     3.679588    60App    3.694343    77Ap     3.694359
      78Ap     3.774753    61App    3.774778    79Ap     3.789102
      80Ap     3.912222    62App    3.912228    81Ap     4.034398
      82Ap     4.111624    63App    4.111628    83Ap     4.148585
      64App    4.148594    84Ap     4.173153    65App    4.201961
      85Ap     4.201965    86Ap     4.202663    66App    4.210249
      87Ap     4.315430    67App    4.315450    68App    4.357917
      88Ap     4.424348    69App    4.424350    70App    4.443306
      71App    4.516130    89Ap     4.516131    72App    4.577412
      90Ap     4.577424    91Ap     4.616168    92Ap     4.708711
      93Ap     4.773965    73App    4.773973    74App    4.837683
      94Ap     4.962412    75App    5.002347    95Ap     5.002359
      96Ap     5.227610    76App    5.246883    97Ap     5.246883
      98Ap     5.355366    77App    5.355379    78App    5.478571

    Beta Occupied:

       1Ap   -10.167852     1App  -10.167851     2Ap   -10.167827
       3Ap   -10.166642     4Ap    -0.780985     5Ap    -0.683945
       2App   -0.683945     6Ap    -0.511765     3App   -0.430996
       7Ap    -0.430996     8Ap    -0.421743     9Ap    -0.376587
       4App   -0.376586     5App   -0.362746     6App   -0.333142
      10Ap    -0.333142

    Beta Virtual:

      11Ap    -0.025725    12Ap     0.077068    13Ap     0.135119
       7App    0.135120    14Ap     0.144493     8App    0.144493
      15Ap     0.163049    16Ap     0.182378     9App    0.182378
      10App    0.214937    17Ap     0.218769    11App    0.282177
      18Ap     0.282179    19Ap     0.400151    12App    0.400155
      20Ap     0.419862    13App    0.427056    21Ap     0.427057
      22Ap     0.468120    23Ap     0.497710    14App    0.497711
      15App    0.513981    24Ap     0.556309    25Ap     0.584266
      16App    0.584274    17App    0.597746    26Ap     0.597747
      27Ap     0.609922    28Ap     0.628183    18App    0.631815
      19App    0.639559    29Ap     0.639563    30Ap     0.666530
      20App    0.666531    31Ap     0.686611    21App    0.686613
      32Ap     0.757347    22App    0.830505    33Ap     0.830507
      23App    0.854975    24App    0.922647    34Ap     0.922654
      25App    0.945640    35Ap     0.954204    26App    0.966970
      36Ap     0.966986    37Ap     1.008866    38Ap     1.131796
      27App    1.131808    39Ap     1.156042    40Ap     1.167713
      28App    1.167725    41Ap     1.231841    42Ap     1.279823
      29App    1.279826    43Ap     1.284670    30App    1.329201
      44Ap     1.329203    45Ap     1.364841    31App    1.371335
      46Ap     1.371339    32App    1.393778    47Ap     1.407119
      33App    1.407122    34App    1.421751    48Ap     1.421757
      35App    1.427355    36App    1.492425    49Ap     1.509339
      37App    1.547663    50Ap     1.547663    38App    1.582925
      51Ap     1.582925    52Ap     1.675123    53Ap     1.745106
      39App    1.745117    54Ap     1.779026    40App    1.835289
      55Ap     1.835290    41App    1.973039    56Ap     2.024229
      42App    2.024232    57Ap     2.039620    58Ap     2.058541
      43App    2.058542    44App    2.746897    59Ap     2.746899
      45App    2.811592    60Ap     2.815556    61Ap     2.902382
      46App    2.902388    62Ap     2.924365    63Ap     2.931626
      47App    2.931635    48App    2.960158    64Ap     2.968804
      49App    2.968818    65Ap     3.041476    50App    3.081081
      66Ap     3.081092    51App    3.086590    67Ap     3.184517
      52App    3.184521    68Ap     3.188333    69Ap     3.290847
      53App    3.290847    70Ap     3.330831    54App    3.330837
      71Ap     3.383416    55App    3.493129    72Ap     3.493149
      56App    3.511658    73Ap     3.528362    57App    3.573727
      58App    3.580890    74Ap     3.580912    75Ap     3.671196
      59App    3.671208    76Ap     3.692920    60App    3.725849
      77Ap     3.725864    78Ap     3.779251    61App    3.779277
      79Ap     3.817651    80Ap     3.922088    62App    3.922095
      81Ap     4.045244    82Ap     4.118328    63App    4.118330
      83Ap     4.155887    64App    4.155896    84Ap     4.187279
      65App    4.207931    85Ap     4.207934    86Ap     4.210575
      66App    4.214723    87Ap     4.322843    67App    4.322863
      68App    4.361270    88Ap     4.432617    69App    4.432619
      70App    4.446178    71App    4.523937    89Ap     4.523938
      72App    4.587968    90Ap     4.587980    91Ap     4.623362
      92Ap     4.719041    93Ap     4.780909    73App    4.780916
      74App    4.840593    94Ap     4.967226    75App    5.006382
      95Ap     5.006395    96Ap     5.233309    76App    5.248653
      97Ap     5.248654    98Ap     5.361828    77App    5.361841
      78App    5.480886

    Final Occupation by Irrep:
             Ap   App
    DOCC [    10,    6 ]
    SOCC [     1,    0 ]

  @DF-UKS Final Energy:  -157.81305979158284

   => Energetics <=

    Nuclear Repulsion Energy =            125.3742935801458458
    One-Electron Energy =                -458.7087025178207114
    Two-Electron Energy =                 195.8278909360819569
    DFT Exchange-Correlation Energy =     -20.3065417899899252
    Empirical Dispersion Energy =           0.0000000000000000
    VV10 Nonlocal Energy =                  0.0000000000000000
    Total Energy =                       -157.8130597915828446

  UHF NO Occupations:
  HONO-2 :    9 Ap 1.9996012
  HONO-1 :   10 Ap 1.9989794
  HONO-0 :   11 Ap 1.0000000
  LUNO+0 :   12 Ap 0.0010206
  LUNO+1 :   13 Ap 0.0003988
  LUNO+2 :    7App 0.0001979
  LUNO+3 :   14 Ap 0.0001979

Computation Completed

Properties will be evaluated at   0.000000,   0.000000,   0.000000 [a0]

Properties computed using the SCF density matrix

  Nuclear Dipole Moment: [e a0]
     X:     0.8416      Y:    -0.0000      Z:    -0.0000

  Electronic Dipole Moment: [e a0]
     X:    -0.7633      Y:     0.0000      Z:     0.0000

  Dipole Moment: [e a0]
     X:     0.0782      Y:     0.0000      Z:    -0.0000     Total:     0.0782

  Dipole Moment: [D]
     X:     0.1988      Y:     0.0000      Z:    -0.0000     Total:     0.1988

*** tstop() called on n032 at Fri Nov  5 13:39:01 2021
Module time:
	user time   =     636.46 seconds =      10.61 minutes
	system time =      12.24 seconds =       0.20 minutes
	total time  =        163 seconds =       2.72 minutes
Total time:
	user time   =     636.46 seconds =      10.61 minutes
	system time =      12.24 seconds =       0.20 minutes
	total time  =        163 seconds =       2.72 minutes
Grab this energy -157.81305979158284
    Psi4 stopped on: Friday, 05 November 2021 01:39PM
    Psi4 wall time for execution: 0:02:43.12

*** Psi4 exiting successfully. Buy a developer a beer!
