                               Psi4 1.4a2.dev629

  ==> Input File <==

--------------------------------------------------------------------------
import os
memory 14 GB

molecule {
 C   -0.3233419327   -0.0000008877   -0.0022224670
 C    0.0608591678   -1.3988180681   -2.4244541233
 C    0.0610184772    2.8017607864   -0.0016378363
 C    0.0614168136   -1.4029341627    2.4283082049
 H    2.0870599038   -1.6407132364   -2.8454910183
 H   -0.7655662844   -0.3910926442   -4.0279594360
 H   -0.7643004313   -3.2906666799   -2.3473889058
 H    2.0867956693    3.2881053480   -0.0039095793
 H   -0.7642095444    3.6746194642    1.6773791861
 H   -0.7670784382    3.6858891944   -1.6756040439
 H    2.0868102161   -1.6474810365    2.8493937094
 H   -0.7668372700   -3.2933309496    2.3505905713
 H   -0.7652342235   -0.3853614415    4.0229957381
units bohr
0 2
}

basis {

assign 6-31g_2dfp_

[ 6-31g_2dfp_ ]

spherical

!----------------------------------------------------------------------
! Basis Set Exchange
! Version v0.8.13
! https://www.basissetexchange.org
!----------------------------------------------------------------------
!   Basis set: 6-31G(2df,p)
! Description: 6-31G(2df,p)
!        Role: orbital
!     Version: 0  (Data from the original Basis Set Exchange)
!----------------------------------------------------------------------

****
H     0
S    3   1.00
     18.7311370              0.03349460
      2.8253937              0.23472695
      0.6401217              0.81375733
S    1   1.00
      0.1612778              1.00000000
P    1   1.00
      1.5000000              1.0000000
P    1   1.00
      0.3750000              1.0000000
****
B     0
S    6   1.00
   2068.8823000              0.0018663
    310.6495700              0.0142515
     70.6830330              0.0695516
     19.8610800              0.2325729
      6.2993048              0.4670787
      2.1270270              0.3634314
SP   3   1.00
      4.7279710             -0.1303938              0.0745976
      1.1903377             -0.1307889              0.3078467
      0.3594117              1.1309444              0.7434568
SP   1   1.00
      0.1267512              1.0000000              1.0000000
D    1   1.00
      0.8020000              1.0000000
D    1   1.00
      0.2005000              1.0000000
F    1   1.00
      0.5000000              1.0000000
****
C     0
S    6   1.00
   3047.5249000              0.0018347
    457.3695100              0.0140373
    103.9486900              0.0688426
     29.2101550              0.2321844
      9.2866630              0.4679413
      3.1639270              0.3623120
SP   3   1.00
      7.8682724             -0.1193324              0.0689991
      1.8812885             -0.1608542              0.3164240
      0.5442493              1.1434564              0.7443083
SP   1   1.00
      0.1687144              1.0000000              1.0000000
D    1   1.00
      1.2520000              1.0000000
D    1   1.00
      0.3130000              1.0000000
F    1   1.00
      0.8000000              1.0000000
****
N     0
S    6   1.00
   4173.5110000              0.0018348
    627.4579000              0.0139950
    142.9021000              0.0685870
     40.2343300              0.2322410
     12.8202100              0.4690700
      4.3904370              0.3604550
SP   3   1.00
     11.6263580             -0.1149610              0.0675800
      2.7162800             -0.1691180              0.3239070
      0.7722180              1.1458520              0.7408950
SP   1   1.00
      0.2120313              1.0000000              1.0000000
D    1   1.00
      1.8260000              1.0000000
D    1   1.00
      0.4565000              1.0000000
F    1   1.00
      1.0000000              1.0000000
****
O     0
S    6   1.00
   5484.6717000              0.0018311
    825.2349500              0.0139501
    188.0469600              0.0684451
     52.9645000              0.2327143
     16.8975700              0.4701930
      5.7996353              0.3585209
SP   3   1.00
     15.5396160             -0.1107775              0.0708743
      3.5999336             -0.1480263              0.3397528
      1.0137618              1.1307670              0.7271586
SP   1   1.00
      0.2700058              1.0000000              1.0000000
D    1   1.00
      2.5840000              1.0000000
D    1   1.00
      0.6460000              1.0000000
F    1   1.00
      1.4000000              1.0000000
****
F     0
S    6   1.00
   7001.7130900              0.0018196169
   1051.3660900              0.0139160796
    239.2856900              0.0684053245
     67.3974453              0.233185760
     21.5199573              0.471267439
      7.40310130             0.356618546
SP   3   1.00
     20.8479528             -0.108506975            0.0716287243
      4.80830834            -0.146451658            0.3459121030
      1.34406986             1.128688580            0.7224699570
SP   1   1.00
      0.358151393            1.0000000              1.0000000
D    1   1.00
      3.5000000              1.0000000
D    1   1.00
      0.8750000              1.0000000
F    1   1.00
      1.8500000              1.0000000
****
Al     0
S    6   1.00
  13983.1000000              0.00194267
   2098.7500000              0.0148599
    477.7050000              0.0728494
    134.3600000              0.2468300
     42.8709000              0.4872580
     14.5189000              0.3234960
SP   6   1.00
    239.6680000             -0.00292619             0.00460285
     57.4419000             -0.0374080              0.0331990
     18.2859000             -0.1144870              0.1362820
      6.5991400              0.1156350              0.3304760
      2.4904900              0.6125950              0.4491460
      0.9445400              0.3937990              0.2657040
SP   3   1.00
      1.2779000             -0.2276060             -0.0175130
      0.3975900              0.00144583             0.2445330
      0.1600950              1.0927900              0.8049340
SP   1   1.00
      0.0556577              1.0000000              1.0000000
D    1   1.00
      0.6500000              1.0000000
D    1   1.00
      0.1625000              1.0000000
F    1   1.00
      0.2500000              1.0000000
****
Si     0
S    6   1.00
  16115.9000000              0.00195948
   2425.5800000              0.01492880
    553.8670000              0.07284780
    156.3400000              0.24613000
     50.0683000              0.48591400
     17.0178000              0.32500200
SP   6   1.00
    292.7180000             -0.00278094             0.00443826
     69.8731000             -0.03571460             0.03266790
     22.3363000             -0.11498500             0.13472100
      8.1503900              0.09356340             0.32867800
      3.1345800              0.60301700             0.44964000
      1.2254300              0.41895900             0.26137200
SP   3   1.00
      1.7273800             -0.24463000            -0.01779510
      0.5729220              0.00431572             0.25353900
      0.2221920              1.09818000             0.80066900
SP   1   1.00
      0.0778369              1.00000000             1.00000000
D    1   1.00
      0.9000000              1.0000000
D    1   1.00
      0.2250000              1.0000000
F    1   1.00
      0.3200000              1.0000000
****
P     0
S    6   1.00
  19413.3000000              0.0018516
   2909.4200000              0.0142062
    661.3640000              0.0699995
    185.7590000              0.2400790
     59.1943000              0.4847620
     20.0310000              0.3352000
SP   6   1.00
    339.4780000             -0.00278217             0.00456462
     81.0101000             -0.0360499              0.03369360
     25.8780000             -0.1166310              0.13975500
      9.4522100              0.0968328              0.33936200
      3.6656600              0.6144180              0.45092100
      1.4674600              0.4037980              0.23858600
SP   3   1.00
      2.1562300             -0.2529230             -0.01776530
      0.7489970              0.0328517              0.27405800
      0.2831450              1.0812500              0.78542100
SP   1   1.00
      0.0998317              1.0000000              1.00000000
D    1   1.00
      1.1000000              1.0000000
D    1   1.00
      0.2750000              1.0000000
F    1   1.00
      0.4500000              1.0000000
****
S     0
S    6   1.00
  21917.1000000              0.0018690
   3301.4900000              0.0142300
    754.1460000              0.0696960
    212.7110000              0.2384870
     67.9896000              0.4833070
     23.0515000              0.3380740
SP   6   1.00
    423.7350000             -0.0023767              0.0040610
    100.7100000             -0.0316930              0.0306810
     32.1599000             -0.1133170              0.1304520
     11.8079000              0.0560900              0.3272050
      4.6311000              0.5922550              0.4528510
      1.8702500              0.4550060              0.2560420
SP   3   1.00
      2.6158400             -0.2503740             -0.0145110
      0.9221670              0.0669570              0.3102630
      0.3412870              1.0545100              0.7544830
SP   1   1.00
      0.1171670              1.0000000              1.0000000
D    1   1.00
      1.3000000              1.0000000
D    1   1.00
      0.3250000              1.0000000
F    1   1.00
      0.5500000              1.0000000
****
Cl     0
S    6   1.00
  25180.1000000              0.0018330
   3780.3500000              0.0140340
    860.4740000              0.0690970
    242.1450000              0.2374520
     77.3349000              0.4830340
     26.2470000              0.3398560
SP   6   1.00
    491.7650000             -0.0022974              0.0039894
    116.9840000             -0.0307140              0.0303180
     37.4153000             -0.1125280              0.1298800
     13.7834000              0.0450160              0.3279510
      5.4521500              0.5893530              0.4535270
      2.2258800              0.4652060              0.2521540
SP   3   1.00
      3.1864900             -0.2518300             -0.0142990
      1.1442700              0.0615890              0.3235720
      0.4203770              1.0601800              0.7435070
SP   1   1.00
      0.1426570              1.0000000              1.0000000
D    1   1.00
      1.5000000              1.0000000
D    1   1.00
      0.3750000              1.0000000
F    1   1.00
      0.7000000              1.0000000
****
}

set {
reference uhf
freeze_core true
e_convergence 10
d_convergence 10
dft_spherical_points 1202
dft_radial_points 99
}

e = energy('b3lyp')

print_out('Grab this energy {0}'.format(e))
--------------------------------------------------------------------------

    Molecular point group: c1

    Geometry (in Bohr), charge = 0, multiplicity = 2:

       Center              X                  Y                   Z               Mass
    ------------   -----------------  -----------------  -----------------  -----------------
         C           -0.323340490215    -0.000001935231    -0.002221268654    12.000000000000
         C            0.060860610285    -1.398819115631    -2.424452924954    12.000000000000
         C            0.061019919685     2.801759738869    -0.001636637954    12.000000000000
         C            0.061418256085    -1.402935210231     2.428309403246    12.000000000000
         H            2.087061346285    -1.640714283931    -2.845489819954     1.007825032230
         H           -0.765564841915    -0.391093691731    -4.027958237654     1.007825032230
         H           -0.764298988815    -3.290667727431    -2.347387707454     1.007825032230
         H            2.086797111785     3.288104300469    -0.003908380954     1.007825032230
         H           -0.764208101915     3.674618416669     1.677380384446     1.007825032230
         H           -0.767076995715     3.685888146869    -1.675602845554     1.007825032230
         H            2.086811658585    -1.647482084031     2.849394907746     1.007825032230
         H           -0.766835827515    -3.293331997131     2.350591769646     1.007825032230
         H           -0.765232781015    -0.385362489031     4.022996936446     1.007825032230

  Charge       = 0
  Multiplicity = 2
  Basis Set: ANONYMOUS654A14F4
    Blend: 6-31G_2DFP_
  Basis Set: (ANONYMOUS654A14F4 AUX)
    Blend: DEF2-UNIVERSAL-JKFIT

    Orbital Energies [Eh]
    ---------------------

    Alpha Occupied:

       1A    -10.180341     2A    -10.167139     3A    -10.167016
       4A    -10.166890     5A     -0.797768     6A     -0.686285
       7A     -0.686088     8A     -0.530776     9A     -0.441127
      10A     -0.434822    11A     -0.434518    12A     -0.382654
      13A     -0.382544    14A     -0.363617    15A     -0.338269
      16A     -0.337722    17A     -0.168960

    Alpha Virtual:

      18A      0.076073    19A      0.134142    20A      0.134169
      21A      0.142622    22A      0.142629    23A      0.154880
      24A      0.178656    25A      0.178899    26A      0.203545
      27A      0.214805    28A      0.275493    29A      0.276480
      30A      0.399172    31A      0.399265    32A      0.403363
      33A      0.424087    34A      0.424110    35A      0.456593
      36A      0.495352    37A      0.495426    38A      0.512160
      39A      0.513981    40A      0.578486    41A      0.579137
      42A      0.591400    43A      0.591866    44A      0.602579
      45A      0.624763    46A      0.631780    47A      0.636046
      48A      0.636454    49A      0.663383    50A      0.663440
      51A      0.683844    52A      0.683861    53A      0.734995
      54A      0.825136    55A      0.825676    56A      0.853916
      57A      0.914867    58A      0.915173    59A      0.944123
      60A      0.944603    61A      0.960578    62A      0.962021
      63A      1.003461    64A      1.127958    65A      1.128238
      66A      1.142229    67A      1.163097    68A      1.163462
      69A      1.223327    70A      1.274029    71A      1.274943
      72A      1.279360    73A      1.324297    74A      1.324420
      75A      1.355989    76A      1.365739    77A      1.366368
      78A      1.392466    79A      1.403905    80A      1.404179
      81A      1.416555    82A      1.417656    83A      1.427929
      84A      1.491495    85A      1.499076    86A      1.542628
      87A      1.543033    88A      1.574259    89A      1.574631
      90A      1.669830    91A      1.739186    92A      1.739661
      93A      1.768313    94A      1.831386    95A      1.831414
      96A      1.971728    97A      2.017781    98A      2.018848
      99A      2.019756   100A      2.051162   101A      2.054134
     102A      2.738083   103A      2.738881   104A      2.790931
     105A      2.811410   106A      2.889573   107A      2.890259
     108A      2.895035   109A      2.929416   110A      2.929580
     111A      2.958994   112A      2.964300   113A      2.964445
     114A      3.034010   115A      3.071017   116A      3.071551
     117A      3.084347   118A      3.168381   119A      3.169165
     120A      3.180614   121A      3.285263   122A      3.285372
     123A      3.326638   124A      3.327670   125A      3.375610
     126A      3.489658   127A      3.490634   128A      3.514001
     129A      3.525294   130A      3.567988   131A      3.568770
     132A      3.575215   133A      3.665529   134A      3.667233
     135A      3.679555   136A      3.693843   137A      3.694468
     138A      3.775732   139A      3.777849   140A      3.789180
     141A      3.911224   142A      3.913256   143A      4.034443
     144A      4.109951   145A      4.112786   146A      4.146933
     147A      4.149288   148A      4.173262   149A      4.202411
     150A      4.202815   151A      4.203572   152A      4.210898
     153A      4.314437   154A      4.317454   155A      4.359001
     156A      4.423754   157A      4.425110   158A      4.443506
     159A      4.515756   160A      4.517894   161A      4.577886
     162A      4.578593   163A      4.617563   164A      4.709460
     165A      4.773166   166A      4.775937   167A      4.837040
     168A      4.962845   169A      5.002604   170A      5.003321
     171A      5.228040   172A      5.246539   173A      5.247079
     174A      5.354719   175A      5.356287   176A      5.479354

    Beta Occupied:

       1A    -10.167894     2A    -10.167775     3A    -10.167655
       4A    -10.166518     5A     -0.781093     6A     -0.684075
       7A     -0.683904     8A     -0.511748     9A     -0.431187
      10A     -0.430899    11A     -0.421819    12A     -0.376764
      13A     -0.376605    14A     -0.362600    15A     -0.333389
      16A     -0.332848

    Beta Virtual:

      17A     -0.025743    18A      0.077082    19A      0.135019
      20A      0.135072    21A      0.144481    22A      0.144512
      23A      0.163340    24A      0.182358    25A      0.182540
      26A      0.215034    27A      0.218926    28A      0.281860
      29A      0.282809    30A      0.400354    31A      0.400438
      32A      0.419792    33A      0.426899    34A      0.426922
      35A      0.468500    36A      0.497623    37A      0.497679
      38A      0.513895    39A      0.556323    40A      0.584030
      41A      0.584694    42A      0.597594    43A      0.598032
      44A      0.610001    45A      0.628139    46A      0.631936
      47A      0.639318    48A      0.639756    49A      0.666942
      50A      0.667008    51A      0.686446    52A      0.686530
      53A      0.757517    54A      0.830278    55A      0.830872
      56A      0.855269    57A      0.922869    58A      0.923111
      59A      0.945961    60A      0.953524    61A      0.965947
      62A      0.967272    63A      1.008702    64A      1.131910
      65A      1.132349    66A      1.155600    67A      1.168069
      68A      1.168634    69A      1.232299    70A      1.279624
      71A      1.280542    72A      1.285114    73A      1.329283
      74A      1.329412    75A      1.365405    76A      1.371039
      77A      1.371554    78A      1.393523    79A      1.407291
      80A      1.407719    81A      1.421628    82A      1.422682
      83A      1.428205    84A      1.492543    85A      1.509519
      86A      1.547042    87A      1.547433    88A      1.582124
      89A      1.582510    90A      1.674677    91A      1.744943
      92A      1.745427    93A      1.779093    94A      1.835247
      95A      1.835263    96A      1.972588    97A      2.024955
      98A      2.025924    99A      2.039673   100A      2.057856
     101A      2.060882   102A      2.746459   103A      2.747179
     104A      2.811824   105A      2.816062   106A      2.902377
     107A      2.902899   108A      2.924667   109A      2.931929
     110A      2.932036   111A      2.960056   112A      2.968877
     113A      2.968958   114A      3.041946   115A      3.080941
     116A      3.081445   117A      3.086165   118A      3.184056
     119A      3.184928   120A      3.188358   121A      3.290064
     122A      3.290168   123A      3.330468   124A      3.331448
     125A      3.383430   126A      3.492384   127A      3.493369
     128A      3.512369   129A      3.528349   130A      3.574943
     131A      3.581328   132A      3.582225   133A      3.670485
     134A      3.671786   135A      3.692891   136A      3.725738
     137A      3.725785   138A      3.780345   139A      3.782286
     140A      3.817727   141A      3.921109   142A      3.923005
     143A      4.045330   144A      4.116778   145A      4.119591
     146A      4.154212   147A      4.156425   148A      4.187320
     149A      4.208516   150A      4.209426   151A      4.210692
     152A      4.215383   153A      4.321823   154A      4.324943
     155A      4.362366   156A      4.431951   157A      4.433337
     158A      4.446397   159A      4.523562   160A      4.525667
     161A      4.588470   162A      4.589205   163A      4.624763
     164A      4.719805   165A      4.780179   166A      4.782826
     167A      4.839963   168A      4.967640   169A      5.006667
     170A      5.007336   171A      5.233757   172A      5.248307
     173A      5.248878   174A      5.361158   175A      5.362810
     176A      5.481676

    Final Occupation by Irrep:
              A
    DOCC [    16 ]
    SOCC [     1 ]

  @DF-UKS Final Energy:  -157.81306566747821

   => Energetics <=

    Nuclear Repulsion Energy =            125.3946569814791019
    One-Electron Energy =                -458.7489672881915226
    Two-Electron Energy =                 195.8483893486182978
    DFT Exchange-Correlation Energy =     -20.3071447093840902
    Empirical Dispersion Energy =           0.0000000000000000
    VV10 Nonlocal Energy =                  0.0000000000000000
    Total Energy =                       -157.8130656674782131

  UHF NO Occupations:
  HONO-2 :   15  A 1.9996009
  HONO-1 :   16  A 1.9989804
  HONO-0 :   17  A 1.0000000
  LUNO+0 :   18  A 0.0010196
  LUNO+1 :   19  A 0.0003991
  LUNO+2 :   20  A 0.0001983
  LUNO+3 :   21  A 0.0001968

Computation Completed

Properties will be evaluated at   0.000000,   0.000000,   0.000000 [a0]

Properties computed using the SCF density matrix

  Nuclear Dipole Moment: [e a0]
     X:     0.8272      Y:    -0.0000      Z:     0.0000

  Electronic Dipole Moment: [e a0]
     X:    -0.7493      Y:     0.0000      Z:     0.0000

  Dipole Moment: [e a0]
     X:     0.0779      Y:    -0.0000      Z:     0.0000     Total:     0.0779

  Dipole Moment: [D]
     X:     0.1980      Y:    -0.0000      Z:     0.0001     Total:     0.1980

*** tstop() called on n058 at Fri Nov  5 13:15:06 2021
Module time:
	user time   =     541.26 seconds =       9.02 minutes
	system time =      11.85 seconds =       0.20 minutes
	total time  =        139 seconds =       2.32 minutes
Total time:
	user time   =     541.26 seconds =       9.02 minutes
	system time =      11.85 seconds =       0.20 minutes
	total time  =        139 seconds =       2.32 minutes
Grab this energy -157.8130656674782
    Psi4 stopped on: Friday, 05 November 2021 01:15PM
    Psi4 wall time for execution: 0:02:19.08

*** Psi4 exiting successfully. Buy a developer a beer!
