                               Psi4 1.4a2.dev629

  ==> Input File <==

--------------------------------------------------------------------------
import os
memory 14 GB

molecule {
 C   -0.3233403568   -0.0024287608    0.0002465915
 C    0.0617047263   -1.4013837567   -2.4252396129
 C    0.0618162164    2.8030145761   -0.0001479418
 C    0.0597799422   -1.4016200740    2.4253512742
 H    2.0884472637   -1.6436236728   -2.8542858897
 H   -0.7689395041   -0.3879044160   -4.0185990647
 H   -0.7605967458   -3.2935018384   -2.3452014220
 H    2.0893675157    3.2872830211   -0.0018548958
 H   -0.7632673461    3.6817196008    1.6768333559
 H   -0.7651914889    3.6845565063   -1.6756847230
 H    2.0828367895   -1.6399606275    2.8442141164
 H   -0.7644013854   -3.2967687588    2.3516178164
 H   -0.7708235035   -0.3894061130    4.0227503955
units bohr
0 2
}

basis {

assign 6-31g_2dfp_

[ 6-31g_2dfp_ ]

spherical

!----------------------------------------------------------------------
! Basis Set Exchange
! Version v0.8.13
! https://www.basissetexchange.org
!----------------------------------------------------------------------
!   Basis set: 6-31G(2df,p)
! Description: 6-31G(2df,p)
!        Role: orbital
!     Version: 0  (Data from the original Basis Set Exchange)
!----------------------------------------------------------------------

****
H     0
S    3   1.00
     18.7311370              0.03349460
      2.8253937              0.23472695
      0.6401217              0.81375733
S    1   1.00
      0.1612778              1.00000000
P    1   1.00
      1.5000000              1.0000000
P    1   1.00
      0.3750000              1.0000000
****
B     0
S    6   1.00
   2068.8823000              0.0018663
    310.6495700              0.0142515
     70.6830330              0.0695516
     19.8610800              0.2325729
      6.2993048              0.4670787
      2.1270270              0.3634314
SP   3   1.00
      4.7279710             -0.1303938              0.0745976
      1.1903377             -0.1307889              0.3078467
      0.3594117              1.1309444              0.7434568
SP   1   1.00
      0.1267512              1.0000000              1.0000000
D    1   1.00
      0.8020000              1.0000000
D    1   1.00
      0.2005000              1.0000000
F    1   1.00
      0.5000000              1.0000000
****
C     0
S    6   1.00
   3047.5249000              0.0018347
    457.3695100              0.0140373
    103.9486900              0.0688426
     29.2101550              0.2321844
      9.2866630              0.4679413
      3.1639270              0.3623120
SP   3   1.00
      7.8682724             -0.1193324              0.0689991
      1.8812885             -0.1608542              0.3164240
      0.5442493              1.1434564              0.7443083
SP   1   1.00
      0.1687144              1.0000000              1.0000000
D    1   1.00
      1.2520000              1.0000000
D    1   1.00
      0.3130000              1.0000000
F    1   1.00
      0.8000000              1.0000000
****
N     0
S    6   1.00
   4173.5110000              0.0018348
    627.4579000              0.0139950
    142.9021000              0.0685870
     40.2343300              0.2322410
     12.8202100              0.4690700
      4.3904370              0.3604550
SP   3   1.00
     11.6263580             -0.1149610              0.0675800
      2.7162800             -0.1691180              0.3239070
      0.7722180              1.1458520              0.7408950
SP   1   1.00
      0.2120313              1.0000000              1.0000000
D    1   1.00
      1.8260000              1.0000000
D    1   1.00
      0.4565000              1.0000000
F    1   1.00
      1.0000000              1.0000000
****
O     0
S    6   1.00
   5484.6717000              0.0018311
    825.2349500              0.0139501
    188.0469600              0.0684451
     52.9645000              0.2327143
     16.8975700              0.4701930
      5.7996353              0.3585209
SP   3   1.00
     15.5396160             -0.1107775              0.0708743
      3.5999336             -0.1480263              0.3397528
      1.0137618              1.1307670              0.7271586
SP   1   1.00
      0.2700058              1.0000000              1.0000000
D    1   1.00
      2.5840000              1.0000000
D    1   1.00
      0.6460000              1.0000000
F    1   1.00
      1.4000000              1.0000000
****
F     0
S    6   1.00
   7001.7130900              0.0018196169
   1051.3660900              0.0139160796
    239.2856900              0.0684053245
     67.3974453              0.233185760
     21.5199573              0.471267439
      7.40310130             0.356618546
SP   3   1.00
     20.8479528             -0.108506975            0.0716287243
      4.80830834            -0.146451658            0.3459121030
      1.34406986             1.128688580            0.7224699570
SP   1   1.00
      0.358151393            1.0000000              1.0000000
D    1   1.00
      3.5000000              1.0000000
D    1   1.00
      0.8750000              1.0000000
F    1   1.00
      1.8500000              1.0000000
****
Al     0
S    6   1.00
  13983.1000000              0.00194267
   2098.7500000              0.0148599
    477.7050000              0.0728494
    134.3600000              0.2468300
     42.8709000              0.4872580
     14.5189000              0.3234960
SP   6   1.00
    239.6680000             -0.00292619             0.00460285
     57.4419000             -0.0374080              0.0331990
     18.2859000             -0.1144870              0.1362820
      6.5991400              0.1156350              0.3304760
      2.4904900              0.6125950              0.4491460
      0.9445400              0.3937990              0.2657040
SP   3   1.00
      1.2779000             -0.2276060             -0.0175130
      0.3975900              0.00144583             0.2445330
      0.1600950              1.0927900              0.8049340
SP   1   1.00
      0.0556577              1.0000000              1.0000000
D    1   1.00
      0.6500000              1.0000000
D    1   1.00
      0.1625000              1.0000000
F    1   1.00
      0.2500000              1.0000000
****
Si     0
S    6   1.00
  16115.9000000              0.00195948
   2425.5800000              0.01492880
    553.8670000              0.07284780
    156.3400000              0.24613000
     50.0683000              0.48591400
     17.0178000              0.32500200
SP   6   1.00
    292.7180000             -0.00278094             0.00443826
     69.8731000             -0.03571460             0.03266790
     22.3363000             -0.11498500             0.13472100
      8.1503900              0.09356340             0.32867800
      3.1345800              0.60301700             0.44964000
      1.2254300              0.41895900             0.26137200
SP   3   1.00
      1.7273800             -0.24463000            -0.01779510
      0.5729220              0.00431572             0.25353900
      0.2221920              1.09818000             0.80066900
SP   1   1.00
      0.0778369              1.00000000             1.00000000
D    1   1.00
      0.9000000              1.0000000
D    1   1.00
      0.2250000              1.0000000
F    1   1.00
      0.3200000              1.0000000
****
P     0
S    6   1.00
  19413.3000000              0.0018516
   2909.4200000              0.0142062
    661.3640000              0.0699995
    185.7590000              0.2400790
     59.1943000              0.4847620
     20.0310000              0.3352000
SP   6   1.00
    339.4780000             -0.00278217             0.00456462
     81.0101000             -0.0360499              0.03369360
     25.8780000             -0.1166310              0.13975500
      9.4522100              0.0968328              0.33936200
      3.6656600              0.6144180              0.45092100
      1.4674600              0.4037980              0.23858600
SP   3   1.00
      2.1562300             -0.2529230             -0.01776530
      0.7489970              0.0328517              0.27405800
      0.2831450              1.0812500              0.78542100
SP   1   1.00
      0.0998317              1.0000000              1.00000000
D    1   1.00
      1.1000000              1.0000000
D    1   1.00
      0.2750000              1.0000000
F    1   1.00
      0.4500000              1.0000000
****
S     0
S    6   1.00
  21917.1000000              0.0018690
   3301.4900000              0.0142300
    754.1460000              0.0696960
    212.7110000              0.2384870
     67.9896000              0.4833070
     23.0515000              0.3380740
SP   6   1.00
    423.7350000             -0.0023767              0.0040610
    100.7100000             -0.0316930              0.0306810
     32.1599000             -0.1133170              0.1304520
     11.8079000              0.0560900              0.3272050
      4.6311000              0.5922550              0.4528510
      1.8702500              0.4550060              0.2560420
SP   3   1.00
      2.6158400             -0.2503740             -0.0145110
      0.9221670              0.0669570              0.3102630
      0.3412870              1.0545100              0.7544830
SP   1   1.00
      0.1171670              1.0000000              1.0000000
D    1   1.00
      1.3000000              1.0000000
D    1   1.00
      0.3250000              1.0000000
F    1   1.00
      0.5500000              1.0000000
****
Cl     0
S    6   1.00
  25180.1000000              0.0018330
   3780.3500000              0.0140340
    860.4740000              0.0690970
    242.1450000              0.2374520
     77.3349000              0.4830340
     26.2470000              0.3398560
SP   6   1.00
    491.7650000             -0.0022974              0.0039894
    116.9840000             -0.0307140              0.0303180
     37.4153000             -0.1125280              0.1298800
     13.7834000              0.0450160              0.3279510
      5.4521500              0.5893530              0.4535270
      2.2258800              0.4652060              0.2521540
SP   3   1.00
      3.1864900             -0.2518300             -0.0142990
      1.1442700              0.0615890              0.3235720
      0.4203770              1.0601800              0.7435070
SP   1   1.00
      0.1426570              1.0000000              1.0000000
D    1   1.00
      1.5000000              1.0000000
D    1   1.00
      0.3750000              1.0000000
F    1   1.00
      0.7000000              1.0000000
****
}

set {
reference uhf
freeze_core true
e_convergence 10
d_convergence 10
dft_spherical_points 1202
dft_radial_points 99
}

e = energy('b3lyp')

print_out('Grab this energy {0}'.format(e))
--------------------------------------------------------------------------

    Molecular point group: c1

    Geometry (in Bohr), charge = 0, multiplicity = 2:

       Center              X                  Y                   Z               Mass
    ------------   -----------------  -----------------  -----------------  -----------------
         C           -0.323340455595    -0.001962604254     0.000206084087    12.000000000000
         C            0.061704627505    -1.400917600154    -2.425280120313    12.000000000000
         C            0.061816117605     2.803480732646    -0.000188449213    12.000000000000
         C            0.059779843405    -1.401153917454     2.425310766787    12.000000000000
         H            2.088447164905    -1.643157516254    -2.854326397113     1.007825032230
         H           -0.768939602895    -0.387438259454    -4.018639572113     1.007825032230
         H           -0.760596844595    -3.293035681854    -2.345241929413     1.007825032230
         H            2.089367416905     3.287749177646    -0.001895403213     1.007825032230
         H           -0.763267444895     3.682185757346     1.676792848487     1.007825032230
         H           -0.765191587695     3.685022662846    -1.675725230413     1.007825032230
         H            2.082836690705    -1.639494470954     2.844173608987     1.007825032230
         H           -0.764401484195    -3.296302602254     2.351577308987     1.007825032230
         H           -0.770823602295    -0.388939956454     4.022709888087     1.007825032230

  Charge       = 0
  Multiplicity = 2
  Basis Set: ANONYMOUS662468BB
    Blend: 6-31G_2DFP_
  Basis Set: (ANONYMOUS662468BB AUX)
    Blend: DEF2-UNIVERSAL-JKFIT

    Orbital Energies [Eh]
    ---------------------

    Alpha Occupied:

       1A    -10.180342     2A    -10.167233     3A    -10.166939
       4A    -10.166873     5A     -0.797768     6A     -0.686333
       7A     -0.686041     8A     -0.530775     9A     -0.441126
      10A     -0.434785    11A     -0.434559    12A     -0.382826
      13A     -0.382370    14A     -0.363610    15A     -0.338212
      16A     -0.337785    17A     -0.168960

    Alpha Virtual:

      18A      0.076073    19A      0.134075    20A      0.134235
      21A      0.142420    22A      0.142834    23A      0.154880
      24A      0.178637    25A      0.178914    26A      0.203550
      27A      0.214802    28A      0.275650    29A      0.276321
      30A      0.399095    31A      0.399349    32A      0.403356
      33A      0.423991    34A      0.424206    35A      0.456596
      36A      0.495337    37A      0.495440    38A      0.512161
      39A      0.513981    40A      0.578583    41A      0.579033
      42A      0.591299    43A      0.591953    44A      0.602605
      45A      0.624763    46A      0.631745    47A      0.636022
      48A      0.636507    49A      0.663204    50A      0.663623
      51A      0.683738    52A      0.683967    53A      0.734994
      54A      0.825342    55A      0.825470    56A      0.853916
      57A      0.914679    58A      0.915371    59A      0.944107
      60A      0.944613    61A      0.961228    62A      0.961381
      63A      1.003453    64A      1.127696    65A      1.128501
      66A      1.142193    67A      1.163083    68A      1.163496
      69A      1.223327    70A      1.274283    71A      1.274679
      72A      1.279377    73A      1.324210    74A      1.324498
      75A      1.355980    76A      1.365761    77A      1.366351
      78A      1.392441    79A      1.403462    80A      1.404629
      81A      1.416684    82A      1.417525    83A      1.427933
      84A      1.491501    85A      1.499065    86A      1.542684
      87A      1.542989    88A      1.573915    89A      1.574991
      90A      1.669835    91A      1.739133    92A      1.739691
      93A      1.768326    94A      1.830804    95A      1.831991
      96A      1.971723    97A      2.018186    98A      2.019013
      99A      2.019187   100A      2.051577   101A      2.053723
     102A      2.738426   103A      2.738543   104A      2.790931
     105A      2.811424   106A      2.889464   107A      2.890359
     108A      2.895032   109A      2.929147   110A      2.929846
     111A      2.958988   112A      2.964065   113A      2.964697
     114A      3.034002   115A      3.070584   116A      3.071988
     117A      3.084349   118A      3.168535   119A      3.169008
     120A      3.180608   121A      3.285190   122A      3.285440
     123A      3.326177   124A      3.328151   125A      3.375618
     126A      3.489072   127A      3.491244   128A      3.513996
     129A      3.525321   130A      3.567440   131A      3.569223
     132A      3.575278   133A      3.665843   134A      3.666868
     135A      3.679681   136A      3.693409   137A      3.694825
     138A      3.775468   139A      3.778084   140A      3.789223
     141A      3.911722   142A      3.912746   143A      4.034444
     144A      4.110332   145A      4.112397   146A      4.147560
     147A      4.148665   148A      4.173248   149A      4.202003
     150A      4.202961   151A      4.203835   152A      4.210867
     153A      4.315408   154A      4.316512   155A      4.358981
     156A      4.423941   157A      4.424986   158A      4.443419
     159A      4.515850   160A      4.517792   161A      4.577586
     162A      4.578945   163A      4.617580   164A      4.709398
     165A      4.773769   166A      4.775480   167A      4.836924
     168A      4.962851   169A      5.002137   170A      5.003785
     171A      5.228052   172A      5.246257   173A      5.247372
     174A      5.354557   175A      5.356474   176A      5.479348

    Beta Occupied:

       1A    -10.167989     2A    -10.167694     3A    -10.167640
       4A    -10.166519     5A     -0.781093     6A     -0.684123
       7A     -0.683856     8A     -0.511747     9A     -0.431169
      10A     -0.430917    11A     -0.421824    12A     -0.376916
      13A     -0.376450    14A     -0.362594    15A     -0.333327
      16A     -0.332915

    Beta Virtual:

      17A     -0.025742    18A      0.077082    19A      0.134966
      20A      0.135124    21A      0.144312    22A      0.144683
      23A      0.163338    24A      0.182306    25A      0.182589
      26A      0.215031    27A      0.218931    28A      0.282008
      29A      0.282659    30A      0.400274    31A      0.400518
      32A      0.419793    33A      0.426796    34A      0.427023
      35A      0.468504    36A      0.497606    37A      0.497694
      38A      0.513896    39A      0.556324    40A      0.584122
      41A      0.584598    42A      0.597486    43A      0.598127
      44A      0.610022    45A      0.628140    46A      0.631913
      47A      0.639298    48A      0.639791    49A      0.666777
      50A      0.667177    51A      0.686390    52A      0.686585
      53A      0.757516    54A      0.830520    55A      0.830630
      56A      0.855269    57A      0.922673    58A      0.923320
      59A      0.945945    60A      0.953539    61A      0.966530
      62A      0.966692    63A      1.008693    64A      1.131760
      65A      1.132494    66A      1.155560    67A      1.168149
      68A      1.168584    69A      1.232299    70A      1.279878
      71A      1.280277    72A      1.285133    73A      1.329208
      74A      1.329479    75A      1.365382    76A      1.371042
      77A      1.371571    78A      1.393500    79A      1.406907
      80A      1.408112    81A      1.421734    82A      1.422560
      83A      1.428217    84A      1.492549    85A      1.509506
      86A      1.547084    87A      1.547412    88A      1.581715
      89A      1.582930    90A      1.674681    91A      1.744882
      92A      1.745467    93A      1.779105    94A      1.834658
      95A      1.835848    96A      1.972583    97A      2.025338
      98A      2.025549    99A      2.039670   100A      2.058322
     101A      2.060416   102A      2.746734   103A      2.746907
     104A      2.811836   105A      2.816065   106A      2.902228
     107A      2.903043   108A      2.924643   109A      2.931657
     110A      2.932321   111A      2.960055   112A      2.968622
     113A      2.969226   114A      3.041937   115A      3.080469
     116A      3.081922   117A      3.086167   118A      3.184218
     119A      3.184772   120A      3.188342   121A      3.289952
     122A      3.290275   123A      3.329994   124A      3.331943
     125A      3.383437   126A      3.491820   127A      3.493957
     128A      3.512366   129A      3.528369   130A      3.574866
     131A      3.581059   132A      3.582547   133A      3.670669
     134A      3.671562   135A      3.692952   136A      3.725326
     137A      3.726181   138A      3.780048   139A      3.782592
     140A      3.817725   141A      3.921581   142A      3.922522
     143A      4.045332   144A      4.117155   145A      4.119207
     146A      4.154821   147A      4.155821   148A      4.187305
     149A      4.208303   150A      4.209445   151A      4.210891
     152A      4.215345   153A      4.322828   154A      4.323973
     155A      4.362342   156A      4.432170   157A      4.433183
     158A      4.446308   159A      4.523653   160A      4.525569
     161A      4.588178   162A      4.589551   163A      4.624777
     164A      4.719742   165A      4.780730   166A      4.782428
     167A      4.839841   168A      4.967645   169A      5.006173
     170A      5.007828   171A      5.233767   172A      5.248040
     173A      5.249157   174A      5.361017   175A      5.362975
     176A      5.481669

    Final Occupation by Irrep:
              A
    DOCC [    16 ]
    SOCC [     1 ]

  @DF-UKS Final Energy:  -157.81306272522482

   => Energetics <=

    Nuclear Repulsion Energy =            125.3946436146665775
    One-Electron Energy =                -458.7489323756939257
    Two-Electron Energy =                 195.8483709239525297
    DFT Exchange-Correlation Energy =     -20.3071448881499812
    Empirical Dispersion Energy =           0.0000000000000000
    VV10 Nonlocal Energy =                  0.0000000000000000
    Total Energy =                       -157.8130627252248246

  UHF NO Occupations:
  HONO-2 :   15  A 1.9996009
  HONO-1 :   16  A 1.9989805
  HONO-0 :   17  A 1.0000000
  LUNO+0 :   18  A 0.0010195
  LUNO+1 :   19  A 0.0003991
  LUNO+2 :   20  A 0.0001981
  LUNO+3 :   21  A 0.0001969

Computation Completed

Properties will be evaluated at   0.000000,   0.000000,   0.000000 [a0]

Properties computed using the SCF density matrix

  Nuclear Dipole Moment: [e a0]
     X:     0.8272      Y:     0.0033      Z:    -0.0003

  Electronic Dipole Moment: [e a0]
     X:    -0.7493      Y:    -0.0032      Z:     0.0011

  Dipole Moment: [e a0]
     X:     0.0779      Y:     0.0000      Z:     0.0008     Total:     0.0779

  Dipole Moment: [D]
     X:     0.1980      Y:     0.0001      Z:     0.0019     Total:     0.1980

*** tstop() called on n065 at Fri Nov  5 15:18:52 2021
Module time:
	user time   =     544.21 seconds =       9.07 minutes
	system time =      11.85 seconds =       0.20 minutes
	total time  =        140 seconds =       2.33 minutes
Total time:
	user time   =     544.21 seconds =       9.07 minutes
	system time =      11.85 seconds =       0.20 minutes
	total time  =        140 seconds =       2.33 minutes
Grab this energy -157.81306272522482
    Psi4 stopped on: Friday, 05 November 2021 03:18PM
    Psi4 wall time for execution: 0:02:19.94

*** Psi4 exiting successfully. Buy a developer a beer!
