                               Psi4 1.4a2.dev629

  ==> Input File <==

--------------------------------------------------------------------------
import os
memory 14 GB

molecule {
 C   -0.3233380305   -0.0021706859   -0.0000000000
 C    0.0617685259   -1.4020739329   -2.4249600459
 C    0.0597670653    2.8030238966   -0.0000000000
 C    0.0617685259   -1.4020739329    2.4249600459
 H    2.0855470391   -1.6416171338   -2.8493487209
 H   -0.7700869585   -0.3885974566   -4.0206510811
 H   -0.7629427614   -3.2949365995   -2.3485530929
 H    2.0895711524    3.2872757192    0.0000000000
 H   -0.7635898771    3.6831485010    1.6764675747
 H   -0.7635898771    3.6831485010   -1.6764675747
 H    2.0855470391   -1.6416171338    2.8493487209
 H   -0.7629427614   -3.2949365995    2.3485530929
 H   -0.7700869585   -0.3885974566    4.0206510811
units bohr
0 2
}

basis {

assign 6-31g_2dfp_

[ 6-31g_2dfp_ ]

spherical

!----------------------------------------------------------------------
! Basis Set Exchange
! Version v0.8.13
! https://www.basissetexchange.org
!----------------------------------------------------------------------
!   Basis set: 6-31G(2df,p)
! Description: 6-31G(2df,p)
!        Role: orbital
!     Version: 0  (Data from the original Basis Set Exchange)
!----------------------------------------------------------------------

****
H     0
S    3   1.00
     18.7311370              0.03349460
      2.8253937              0.23472695
      0.6401217              0.81375733
S    1   1.00
      0.1612778              1.00000000
P    1   1.00
      1.5000000              1.0000000
P    1   1.00
      0.3750000              1.0000000
****
B     0
S    6   1.00
   2068.8823000              0.0018663
    310.6495700              0.0142515
     70.6830330              0.0695516
     19.8610800              0.2325729
      6.2993048              0.4670787
      2.1270270              0.3634314
SP   3   1.00
      4.7279710             -0.1303938              0.0745976
      1.1903377             -0.1307889              0.3078467
      0.3594117              1.1309444              0.7434568
SP   1   1.00
      0.1267512              1.0000000              1.0000000
D    1   1.00
      0.8020000              1.0000000
D    1   1.00
      0.2005000              1.0000000
F    1   1.00
      0.5000000              1.0000000
****
C     0
S    6   1.00
   3047.5249000              0.0018347
    457.3695100              0.0140373
    103.9486900              0.0688426
     29.2101550              0.2321844
      9.2866630              0.4679413
      3.1639270              0.3623120
SP   3   1.00
      7.8682724             -0.1193324              0.0689991
      1.8812885             -0.1608542              0.3164240
      0.5442493              1.1434564              0.7443083
SP   1   1.00
      0.1687144              1.0000000              1.0000000
D    1   1.00
      1.2520000              1.0000000
D    1   1.00
      0.3130000              1.0000000
F    1   1.00
      0.8000000              1.0000000
****
N     0
S    6   1.00
   4173.5110000              0.0018348
    627.4579000              0.0139950
    142.9021000              0.0685870
     40.2343300              0.2322410
     12.8202100              0.4690700
      4.3904370              0.3604550
SP   3   1.00
     11.6263580             -0.1149610              0.0675800
      2.7162800             -0.1691180              0.3239070
      0.7722180              1.1458520              0.7408950
SP   1   1.00
      0.2120313              1.0000000              1.0000000
D    1   1.00
      1.8260000              1.0000000
D    1   1.00
      0.4565000              1.0000000
F    1   1.00
      1.0000000              1.0000000
****
O     0
S    6   1.00
   5484.6717000              0.0018311
    825.2349500              0.0139501
    188.0469600              0.0684451
     52.9645000              0.2327143
     16.8975700              0.4701930
      5.7996353              0.3585209
SP   3   1.00
     15.5396160             -0.1107775              0.0708743
      3.5999336             -0.1480263              0.3397528
      1.0137618              1.1307670              0.7271586
SP   1   1.00
      0.2700058              1.0000000              1.0000000
D    1   1.00
      2.5840000              1.0000000
D    1   1.00
      0.6460000              1.0000000
F    1   1.00
      1.4000000              1.0000000
****
F     0
S    6   1.00
   7001.7130900              0.0018196169
   1051.3660900              0.0139160796
    239.2856900              0.0684053245
     67.3974453              0.233185760
     21.5199573              0.471267439
      7.40310130             0.356618546
SP   3   1.00
     20.8479528             -0.108506975            0.0716287243
      4.80830834            -0.146451658            0.3459121030
      1.34406986             1.128688580            0.7224699570
SP   1   1.00
      0.358151393            1.0000000              1.0000000
D    1   1.00
      3.5000000              1.0000000
D    1   1.00
      0.8750000              1.0000000
F    1   1.00
      1.8500000              1.0000000
****
Al     0
S    6   1.00
  13983.1000000              0.00194267
   2098.7500000              0.0148599
    477.7050000              0.0728494
    134.3600000              0.2468300
     42.8709000              0.4872580
     14.5189000              0.3234960
SP   6   1.00
    239.6680000             -0.00292619             0.00460285
     57.4419000             -0.0374080              0.0331990
     18.2859000             -0.1144870              0.1362820
      6.5991400              0.1156350              0.3304760
      2.4904900              0.6125950              0.4491460
      0.9445400              0.3937990              0.2657040
SP   3   1.00
      1.2779000             -0.2276060             -0.0175130
      0.3975900              0.00144583             0.2445330
      0.1600950              1.0927900              0.8049340
SP   1   1.00
      0.0556577              1.0000000              1.0000000
D    1   1.00
      0.6500000              1.0000000
D    1   1.00
      0.1625000              1.0000000
F    1   1.00
      0.2500000              1.0000000
****
Si     0
S    6   1.00
  16115.9000000              0.00195948
   2425.5800000              0.01492880
    553.8670000              0.07284780
    156.3400000              0.24613000
     50.0683000              0.48591400
     17.0178000              0.32500200
SP   6   1.00
    292.7180000             -0.00278094             0.00443826
     69.8731000             -0.03571460             0.03266790
     22.3363000             -0.11498500             0.13472100
      8.1503900              0.09356340             0.32867800
      3.1345800              0.60301700             0.44964000
      1.2254300              0.41895900             0.26137200
SP   3   1.00
      1.7273800             -0.24463000            -0.01779510
      0.5729220              0.00431572             0.25353900
      0.2221920              1.09818000             0.80066900
SP   1   1.00
      0.0778369              1.00000000             1.00000000
D    1   1.00
      0.9000000              1.0000000
D    1   1.00
      0.2250000              1.0000000
F    1   1.00
      0.3200000              1.0000000
****
P     0
S    6   1.00
  19413.3000000              0.0018516
   2909.4200000              0.0142062
    661.3640000              0.0699995
    185.7590000              0.2400790
     59.1943000              0.4847620
     20.0310000              0.3352000
SP   6   1.00
    339.4780000             -0.00278217             0.00456462
     81.0101000             -0.0360499              0.03369360
     25.8780000             -0.1166310              0.13975500
      9.4522100              0.0968328              0.33936200
      3.6656600              0.6144180              0.45092100
      1.4674600              0.4037980              0.23858600
SP   3   1.00
      2.1562300             -0.2529230             -0.01776530
      0.7489970              0.0328517              0.27405800
      0.2831450              1.0812500              0.78542100
SP   1   1.00
      0.0998317              1.0000000              1.00000000
D    1   1.00
      1.1000000              1.0000000
D    1   1.00
      0.2750000              1.0000000
F    1   1.00
      0.4500000              1.0000000
****
S     0
S    6   1.00
  21917.1000000              0.0018690
   3301.4900000              0.0142300
    754.1460000              0.0696960
    212.7110000              0.2384870
     67.9896000              0.4833070
     23.0515000              0.3380740
SP   6   1.00
    423.7350000             -0.0023767              0.0040610
    100.7100000             -0.0316930              0.0306810
     32.1599000             -0.1133170              0.1304520
     11.8079000              0.0560900              0.3272050
      4.6311000              0.5922550              0.4528510
      1.8702500              0.4550060              0.2560420
SP   3   1.00
      2.6158400             -0.2503740             -0.0145110
      0.9221670              0.0669570              0.3102630
      0.3412870              1.0545100              0.7544830
SP   1   1.00
      0.1171670              1.0000000              1.0000000
D    1   1.00
      1.3000000              1.0000000
D    1   1.00
      0.3250000              1.0000000
F    1   1.00
      0.5500000              1.0000000
****
Cl     0
S    6   1.00
  25180.1000000              0.0018330
   3780.3500000              0.0140340
    860.4740000              0.0690970
    242.1450000              0.2374520
     77.3349000              0.4830340
     26.2470000              0.3398560
SP   6   1.00
    491.7650000             -0.0022974              0.0039894
    116.9840000             -0.0307140              0.0303180
     37.4153000             -0.1125280              0.1298800
     13.7834000              0.0450160              0.3279510
      5.4521500              0.5893530              0.4535270
      2.2258800              0.4652060              0.2521540
SP   3   1.00
      3.1864900             -0.2518300             -0.0142990
      1.1442700              0.0615890              0.3235720
      0.4203770              1.0601800              0.7435070
SP   1   1.00
      0.1426570              1.0000000              1.0000000
D    1   1.00
      1.5000000              1.0000000
D    1   1.00
      0.3750000              1.0000000
F    1   1.00
      0.7000000              1.0000000
****
}

set {
reference uhf
freeze_core true
e_convergence 10
d_convergence 10
dft_spherical_points 1202
dft_radial_points 99
}

e = energy('b3lyp')

print_out('Grab this energy {0}'.format(e))
--------------------------------------------------------------------------

    Molecular point group: cs

    Geometry (in Bohr), charge = 0, multiplicity = 2:

       Center              X                  Y                   Z               Mass
    ------------   -----------------  -----------------  -----------------  -----------------
         C           -0.323339199902    -0.001535682234     0.000000000000    12.000000000000
         C            0.061767356498    -1.401438929234    -2.424960045900    12.000000000000
         C            0.059765895898     2.803658900266     0.000000000000    12.000000000000
         C            0.061767356498    -1.401438929234     2.424960045900    12.000000000000
         H            2.085545869698    -1.640982130134    -2.849348720900     1.007825032230
         H           -0.770088127902    -0.387962452934    -4.020651081100     1.007825032230
         H           -0.762943930802    -3.294301595834    -2.348553092900     1.007825032230
         H            2.089569982998     3.287910722866     0.000000000000     1.007825032230
         H           -0.763591046502     3.683783504666     1.676467574700     1.007825032230
         H           -0.763591046502     3.683783504666    -1.676467574700     1.007825032230
         H            2.085545869698    -1.640982130134     2.849348720900     1.007825032230
         H           -0.762943930802    -3.294301595834     2.348553092900     1.007825032230
         H           -0.770088127902    -0.387962452934     4.020651081100     1.007825032230

  Charge       = 0
  Multiplicity = 2
  Basis Set: ANONYMOUS52892BF7
    Blend: 6-31G_2DFP_
  Basis Set: (ANONYMOUS52892BF7 AUX)
    Blend: DEF2-UNIVERSAL-JKFIT

    Orbital Energies [Eh]
    ---------------------

    Alpha Occupied:

       1Ap   -10.180342     2Ap   -10.167265     1App  -10.166905
       3Ap   -10.166874     4Ap    -0.797767     2App   -0.686296
       5Ap    -0.686077     6Ap    -0.530776     7Ap    -0.441127
       3App   -0.434701     8Ap    -0.434641     4App   -0.382793
       9Ap    -0.382402     5App   -0.363615     6App   -0.338059
      10Ap    -0.337935    11Ap    -0.168960

    Alpha Virtual:

      12Ap     0.076072    13Ap     0.134059     7App    0.134253
      14Ap     0.142576     8App    0.142679    15Ap     0.154877
      16Ap     0.178666     9App    0.178888    17Ap     0.203549
      10App    0.214802    18Ap     0.275705    11App    0.276265
      12App    0.399080    19Ap     0.399347    20Ap     0.403374
      13App    0.424084    21Ap     0.424113    22Ap     0.456593
      14App    0.495311    23Ap     0.495468    15App    0.512160
      24Ap     0.513979    25Ap     0.578542    16App    0.579093
      26Ap     0.591278    17App    0.591981    27Ap     0.602580
      28Ap     0.624762    18App    0.631776    29Ap     0.636052
      19App    0.636442    30Ap     0.663042    20App    0.663787
      21App    0.683684    31Ap     0.684020    32Ap     0.734994
      33Ap     0.825392    22App    0.825422    23App    0.853917
      34Ap     0.914875    24App    0.915180    25App    0.944125
      35Ap     0.944613    36Ap     0.961179    26App    0.961403
      37Ap     1.003455    38Ap     1.128038    27App    1.128180
      39Ap     1.142196    28App    1.163256    40Ap     1.163292
      41Ap     1.223342    42Ap     1.274146    29App    1.274817
      43Ap     1.279376    44Ap     1.323984    30App    1.324730
      45Ap     1.355988    31App    1.366028    46Ap     1.366066
      32App    1.392441    47Ap     1.403603    33App    1.404501
      48Ap     1.416562    34App    1.417668    35App    1.427926
      36App    1.491491    49Ap     1.499089    50Ap     1.542642
      37App    1.543003    38App    1.574077    51Ap     1.574826
      52Ap     1.669834    53Ap     1.738727    39App    1.740098
      54Ap     1.768329    55Ap     1.831177    40App    1.831610
      41App    1.971728    56Ap     2.017794    57Ap     2.018883
      42App    2.019685    58Ap     2.051318    43App    2.053996
      59Ap     2.738382    44App    2.738579    60Ap     2.790934
      45App    2.811422    61Ap     2.889771    46App    2.890108
      62Ap     2.894971    47App    2.929300    63Ap     2.929700
      48App    2.958995    49App    2.964225    64Ap     2.964527
      65Ap     3.034005    66Ap     3.071116    50App    3.071440
      51App    3.084361    67Ap     3.168557    52App    3.168962
      68Ap     3.180630    69Ap     3.285240    53App    3.285390
      70Ap     3.326560    54App    3.327761    71Ap     3.375618
      55App    3.490074    72Ap     3.490246    56App    3.514006
      73Ap     3.525320    74Ap     3.567465    57App    3.569321
      58App    3.575152    75Ap     3.666253    59App    3.666491
      76Ap     3.679664    77Ap     3.693805    60App    3.694440
      61App    3.775523    78Ap     3.778058    79Ap     3.789154
      80Ap     3.911815    62App    3.912634    81Ap     4.034459
      82Ap     4.110439    63App    4.112307    83Ap     4.147625
      64App    4.148620    84Ap     4.173239    85Ap     4.202435
      86Ap     4.202656    65App    4.203662    66App    4.210895
      87Ap     4.315884    67App    4.316021    68App    4.359013
      69App    4.423810    88Ap     4.425073    70App    4.443457
      89Ap     4.515017    71App    4.518648    90Ap     4.577805
      72App    4.578727    91Ap     4.617524    92Ap     4.709452
      73App    4.774496    93Ap     4.774726    74App    4.836921
      94Ap     4.962841    95Ap     5.001891    75App    5.004017
      96Ap     5.228046    76App    5.246712    97Ap     5.246917
      98Ap     5.354823    77App    5.356196    78App    5.479347

    Beta Occupied:

       1Ap   -10.168023     1App  -10.167658     2Ap   -10.167642
       3Ap   -10.166519     4Ap    -0.781092     2App   -0.684087
       5Ap    -0.683891     6Ap    -0.511747     3App   -0.431069
       7Ap    -0.431016     8Ap    -0.421823     4App   -0.376876
       9Ap    -0.376490     5App   -0.362599     6App   -0.333181
      10Ap    -0.333058

    Beta Virtual:

      11Ap    -0.025742    12Ap     0.077081    13Ap     0.134953
       7App    0.135138    14Ap     0.144462     8App    0.144534
      15Ap     0.163335    16Ap     0.182329     9App    0.182570
      10App    0.215031    17Ap     0.218931    18Ap     0.282061
      11App    0.282605    12App    0.400243    19Ap     0.400547
      20Ap     0.419795    13App    0.426906    21Ap     0.426915
      22Ap     0.468502    14App    0.497582    23Ap     0.497718
      15App    0.513895    24Ap     0.556325    25Ap     0.584086
      16App    0.584650    26Ap     0.597474    17App    0.598145
      27Ap     0.610003    28Ap     0.628136    18App    0.631932
      29Ap     0.639317    19App    0.639750    30Ap     0.666633
      20App    0.667324    21App    0.686329    31Ap     0.686646
      32Ap     0.757517    22App    0.830564    33Ap     0.830586
      23App    0.855270    34Ap     0.922845    24App    0.923153
      25App    0.945961    35Ap     0.953540    36Ap     0.966450
      26App    0.966746    37Ap     1.008695    38Ap     1.132083
      27App    1.132192    39Ap     1.155571    28App    1.168344
      40Ap     1.168353    41Ap     1.232316    42Ap     1.279729
      29App    1.280424    43Ap     1.285133    44Ap     1.328976
      30App    1.329717    45Ap     1.365403    31App    1.371231
      46Ap     1.371349    32App    1.393499    47Ap     1.407028
      33App    1.408004    48Ap     1.421638    34App    1.422690
      35App    1.428201    36App    1.492539    49Ap     1.509532
      50Ap     1.547148    37App    1.547312    38App    1.582044
      51Ap     1.582604    52Ap     1.674680    53Ap     1.744484
      39App    1.745866    54Ap     1.779109    55Ap     1.835026
      40App    1.835472    41App    1.972587    56Ap     2.024699
      42App    2.026152    57Ap     2.039684    58Ap     2.058098
      43App    2.060652    59Ap     2.746698    44App    2.746936
      45App    2.811834    60Ap     2.816067    61Ap     2.902537
      46App    2.902746    62Ap     2.924632    47App    2.931784
      63Ap     2.932195    48App    2.960056    49App    2.968781
      64Ap     2.969063    65Ap     3.041941    66Ap     3.081061
      50App    3.081298    51App    3.086195    67Ap     3.184152
      52App    3.184764    68Ap     3.188415    69Ap     3.290044
      53App    3.290182    70Ap     3.330357    54App    3.331572
      71Ap     3.383437    55App    3.492826    72Ap     3.492955
      56App    3.512374    73Ap     3.528367    57App    3.574983
      74Ap     3.580897    58App    3.582590    75Ap     3.670948
      59App    3.671306    76Ap     3.692944    77Ap     3.725430
      60App    3.726081    61App    3.780080    78Ap     3.782568
      79Ap     3.817681    80Ap     3.921692    62App    3.922392
      81Ap     4.045346    82Ap     4.117206    63App    4.119172
      83Ap     4.154945    64App    4.155718    84Ap     4.187298
      85Ap     4.208368    65App    4.209602    86Ap     4.210621
      66App    4.215373    87Ap     4.323316    67App    4.323464
      68App    4.362381    69App    4.432041    88Ap     4.433258
      70App    4.446353    89Ap     4.522821    71App    4.526422
      90Ap     4.588386    72App    4.589349    91Ap     4.624719
      92Ap     4.719798    73App    4.781471    93Ap     4.781658
      74App    4.839838    94Ap     4.967637    95Ap     5.005929
      75App    5.008057    96Ap     5.233762    76App    5.248484
      97Ap     5.248713    98Ap     5.361281    77App    5.362700
      78App    5.481668

    Final Occupation by Irrep:
             Ap   App
    DOCC [    10,    6 ]
    SOCC [     1,    0 ]

  @DF-UKS Final Energy:  -157.81306697951510

   => Energetics <=

    Nuclear Repulsion Energy =            125.3946315965446274
    One-Electron Energy =                -458.7489238144280534
    Two-Electron Energy =                 195.8483690769933219
    DFT Exchange-Correlation Energy =     -20.3071438386249810
    Empirical Dispersion Energy =           0.0000000000000000
    VV10 Nonlocal Energy =                  0.0000000000000000
    Total Energy =                       -157.8130669795150993

  UHF NO Occupations:
  HONO-2 :    9 Ap 1.9996009
  HONO-1 :   10 Ap 1.9989805
  HONO-0 :   11 Ap 1.0000000
  LUNO+0 :   12 Ap 0.0010195
  LUNO+1 :   13 Ap 0.0003991
  LUNO+2 :   14 Ap 0.0001980
  LUNO+3 :    7App 0.0001971

Computation Completed

Properties will be evaluated at   0.000000,   0.000000,   0.000000 [a0]

Properties computed using the SCF density matrix

  Nuclear Dipole Moment: [e a0]
     X:     0.8272      Y:     0.0045      Z:    -0.0000

  Electronic Dipole Moment: [e a0]
     X:    -0.7493      Y:    -0.0043      Z:     0.0000

  Dipole Moment: [e a0]
     X:     0.0779      Y:     0.0002      Z:    -0.0000     Total:     0.0779

  Dipole Moment: [D]
     X:     0.1980      Y:     0.0004      Z:    -0.0000     Total:     0.1980

*** tstop() called on n082 at Fri Nov  5 12:38:23 2021
Module time:
	user time   =     497.29 seconds =       8.29 minutes
	system time =       4.45 seconds =       0.07 minutes
	total time  =        126 seconds =       2.10 minutes
Total time:
	user time   =     497.29 seconds =       8.29 minutes
	system time =       4.45 seconds =       0.07 minutes
	total time  =        126 seconds =       2.10 minutes
Grab this energy -157.8130669795151
    Psi4 stopped on: Friday, 05 November 2021 12:38PM
    Psi4 wall time for execution: 0:02:06.17

*** Psi4 exiting successfully. Buy a developer a beer!
