                               Psi4 1.4a2.dev629

  ==> Input File <==

--------------------------------------------------------------------------
import os
memory 14 GB

molecule {
 C   -0.3233401885    0.0002549778   -0.0000009175
 C    0.0621674439   -1.4014107064   -2.4260711601
 C    0.0589710926    2.8017674036    0.0000458355
 C    0.0621638318   -1.4014912291    2.4260178464
 H    2.0868328386   -1.6398945848   -2.8498738354
 H   -0.7696175339   -0.3900132486   -4.0246603173
 H   -0.7619941179   -3.2934132325   -2.3479477958
 H    2.0869967433    3.2880965477    0.0046575554
 H   -0.7690124455    3.6804921854    1.6747170927
 H   -0.7609946200    3.6800390658   -1.6786902614
 H    2.0868308147   -1.6479523840    2.8452162401
 H   -0.7700167939   -3.2901766105    2.3503333603
 H   -0.7615949420   -0.3863224979    4.0262563572
units bohr
0 2
}

basis {

assign 6-31g_2dfp_

[ 6-31g_2dfp_ ]

spherical

!----------------------------------------------------------------------
! Basis Set Exchange
! Version v0.8.13
! https://www.basissetexchange.org
!----------------------------------------------------------------------
!   Basis set: 6-31G(2df,p)
! Description: 6-31G(2df,p)
!        Role: orbital
!     Version: 0  (Data from the original Basis Set Exchange)
!----------------------------------------------------------------------

****
H     0
S    3   1.00
     18.7311370              0.03349460
      2.8253937              0.23472695
      0.6401217              0.81375733
S    1   1.00
      0.1612778              1.00000000
P    1   1.00
      1.5000000              1.0000000
P    1   1.00
      0.3750000              1.0000000
****
B     0
S    6   1.00
   2068.8823000              0.0018663
    310.6495700              0.0142515
     70.6830330              0.0695516
     19.8610800              0.2325729
      6.2993048              0.4670787
      2.1270270              0.3634314
SP   3   1.00
      4.7279710             -0.1303938              0.0745976
      1.1903377             -0.1307889              0.3078467
      0.3594117              1.1309444              0.7434568
SP   1   1.00
      0.1267512              1.0000000              1.0000000
D    1   1.00
      0.8020000              1.0000000
D    1   1.00
      0.2005000              1.0000000
F    1   1.00
      0.5000000              1.0000000
****
C     0
S    6   1.00
   3047.5249000              0.0018347
    457.3695100              0.0140373
    103.9486900              0.0688426
     29.2101550              0.2321844
      9.2866630              0.4679413
      3.1639270              0.3623120
SP   3   1.00
      7.8682724             -0.1193324              0.0689991
      1.8812885             -0.1608542              0.3164240
      0.5442493              1.1434564              0.7443083
SP   1   1.00
      0.1687144              1.0000000              1.0000000
D    1   1.00
      1.2520000              1.0000000
D    1   1.00
      0.3130000              1.0000000
F    1   1.00
      0.8000000              1.0000000
****
N     0
S    6   1.00
   4173.5110000              0.0018348
    627.4579000              0.0139950
    142.9021000              0.0685870
     40.2343300              0.2322410
     12.8202100              0.4690700
      4.3904370              0.3604550
SP   3   1.00
     11.6263580             -0.1149610              0.0675800
      2.7162800             -0.1691180              0.3239070
      0.7722180              1.1458520              0.7408950
SP   1   1.00
      0.2120313              1.0000000              1.0000000
D    1   1.00
      1.8260000              1.0000000
D    1   1.00
      0.4565000              1.0000000
F    1   1.00
      1.0000000              1.0000000
****
O     0
S    6   1.00
   5484.6717000              0.0018311
    825.2349500              0.0139501
    188.0469600              0.0684451
     52.9645000              0.2327143
     16.8975700              0.4701930
      5.7996353              0.3585209
SP   3   1.00
     15.5396160             -0.1107775              0.0708743
      3.5999336             -0.1480263              0.3397528
      1.0137618              1.1307670              0.7271586
SP   1   1.00
      0.2700058              1.0000000              1.0000000
D    1   1.00
      2.5840000              1.0000000
D    1   1.00
      0.6460000              1.0000000
F    1   1.00
      1.4000000              1.0000000
****
F     0
S    6   1.00
   7001.7130900              0.0018196169
   1051.3660900              0.0139160796
    239.2856900              0.0684053245
     67.3974453              0.233185760
     21.5199573              0.471267439
      7.40310130             0.356618546
SP   3   1.00
     20.8479528             -0.108506975            0.0716287243
      4.80830834            -0.146451658            0.3459121030
      1.34406986             1.128688580            0.7224699570
SP   1   1.00
      0.358151393            1.0000000              1.0000000
D    1   1.00
      3.5000000              1.0000000
D    1   1.00
      0.8750000              1.0000000
F    1   1.00
      1.8500000              1.0000000
****
Al     0
S    6   1.00
  13983.1000000              0.00194267
   2098.7500000              0.0148599
    477.7050000              0.0728494
    134.3600000              0.2468300
     42.8709000              0.4872580
     14.5189000              0.3234960
SP   6   1.00
    239.6680000             -0.00292619             0.00460285
     57.4419000             -0.0374080              0.0331990
     18.2859000             -0.1144870              0.1362820
      6.5991400              0.1156350              0.3304760
      2.4904900              0.6125950              0.4491460
      0.9445400              0.3937990              0.2657040
SP   3   1.00
      1.2779000             -0.2276060             -0.0175130
      0.3975900              0.00144583             0.2445330
      0.1600950              1.0927900              0.8049340
SP   1   1.00
      0.0556577              1.0000000              1.0000000
D    1   1.00
      0.6500000              1.0000000
D    1   1.00
      0.1625000              1.0000000
F    1   1.00
      0.2500000              1.0000000
****
Si     0
S    6   1.00
  16115.9000000              0.00195948
   2425.5800000              0.01492880
    553.8670000              0.07284780
    156.3400000              0.24613000
     50.0683000              0.48591400
     17.0178000              0.32500200
SP   6   1.00
    292.7180000             -0.00278094             0.00443826
     69.8731000             -0.03571460             0.03266790
     22.3363000             -0.11498500             0.13472100
      8.1503900              0.09356340             0.32867800
      3.1345800              0.60301700             0.44964000
      1.2254300              0.41895900             0.26137200
SP   3   1.00
      1.7273800             -0.24463000            -0.01779510
      0.5729220              0.00431572             0.25353900
      0.2221920              1.09818000             0.80066900
SP   1   1.00
      0.0778369              1.00000000             1.00000000
D    1   1.00
      0.9000000              1.0000000
D    1   1.00
      0.2250000              1.0000000
F    1   1.00
      0.3200000              1.0000000
****
P     0
S    6   1.00
  19413.3000000              0.0018516
   2909.4200000              0.0142062
    661.3640000              0.0699995
    185.7590000              0.2400790
     59.1943000              0.4847620
     20.0310000              0.3352000
SP   6   1.00
    339.4780000             -0.00278217             0.00456462
     81.0101000             -0.0360499              0.03369360
     25.8780000             -0.1166310              0.13975500
      9.4522100              0.0968328              0.33936200
      3.6656600              0.6144180              0.45092100
      1.4674600              0.4037980              0.23858600
SP   3   1.00
      2.1562300             -0.2529230             -0.01776530
      0.7489970              0.0328517              0.27405800
      0.2831450              1.0812500              0.78542100
SP   1   1.00
      0.0998317              1.0000000              1.00000000
D    1   1.00
      1.1000000              1.0000000
D    1   1.00
      0.2750000              1.0000000
F    1   1.00
      0.4500000              1.0000000
****
S     0
S    6   1.00
  21917.1000000              0.0018690
   3301.4900000              0.0142300
    754.1460000              0.0696960
    212.7110000              0.2384870
     67.9896000              0.4833070
     23.0515000              0.3380740
SP   6   1.00
    423.7350000             -0.0023767              0.0040610
    100.7100000             -0.0316930              0.0306810
     32.1599000             -0.1133170              0.1304520
     11.8079000              0.0560900              0.3272050
      4.6311000              0.5922550              0.4528510
      1.8702500              0.4550060              0.2560420
SP   3   1.00
      2.6158400             -0.2503740             -0.0145110
      0.9221670              0.0669570              0.3102630
      0.3412870              1.0545100              0.7544830
SP   1   1.00
      0.1171670              1.0000000              1.0000000
D    1   1.00
      1.3000000              1.0000000
D    1   1.00
      0.3250000              1.0000000
F    1   1.00
      0.5500000              1.0000000
****
Cl     0
S    6   1.00
  25180.1000000              0.0018330
   3780.3500000              0.0140340
    860.4740000              0.0690970
    242.1450000              0.2374520
     77.3349000              0.4830340
     26.2470000              0.3398560
SP   6   1.00
    491.7650000             -0.0022974              0.0039894
    116.9840000             -0.0307140              0.0303180
     37.4153000             -0.1125280              0.1298800
     13.7834000              0.0450160              0.3279510
      5.4521500              0.5893530              0.4535270
      2.2258800              0.4652060              0.2521540
SP   3   1.00
      3.1864900             -0.2518300             -0.0142990
      1.1442700              0.0615890              0.3235720
      0.4203770              1.0601800              0.7435070
SP   1   1.00
      0.1426570              1.0000000              1.0000000
D    1   1.00
      1.5000000              1.0000000
D    1   1.00
      0.3750000              1.0000000
F    1   1.00
      0.7000000              1.0000000
****
}

set {
reference uhf
freeze_core true
e_convergence 10
d_convergence 10
dft_spherical_points 1202
dft_radial_points 99
}

e = energy('b3lyp')

print_out('Grab this energy {0}'.format(e))
--------------------------------------------------------------------------

    Molecular point group: c1

    Geometry (in Bohr), charge = 0, multiplicity = 2:

       Center              X                  Y                   Z               Mass
    ------------   -----------------  -----------------  -----------------  -----------------
         C           -0.323340605424     0.000424815615     0.000000699571    12.000000000000
         C            0.062167026976    -1.401240868585    -2.426069543029    12.000000000000
         C            0.058970675676     2.801937241415     0.000047452571    12.000000000000
         C            0.062163414876    -1.401321391285     2.426019463471    12.000000000000
         H            2.086832421676    -1.639724746985    -2.849872218329     1.007825032230
         H           -0.769617950824    -0.389843410785    -4.024658700229     1.007825032230
         H           -0.761994534824    -3.293243394685    -2.347946178729     1.007825032230
         H            2.086996326376     3.288266385515     0.004659172471     1.007825032230
         H           -0.769012862424     3.680662023215     1.674718709771     1.007825032230
         H           -0.760995036924     3.680208903615    -1.678688644329     1.007825032230
         H            2.086830397776    -1.647782546185     2.845217857171     1.007825032230
         H           -0.770017210824    -3.290006772685     2.350334977371     1.007825032230
         H           -0.761595358924    -0.386152660085     4.026257974271     1.007825032230

  Charge       = 0
  Multiplicity = 2
  Basis Set: ANONYMOUS5DD75596
    Blend: 6-31G_2DFP_
  Basis Set: (ANONYMOUS5DD75596 AUX)
    Blend: DEF2-UNIVERSAL-JKFIT

    Orbital Energies [Eh]
    ---------------------

    Alpha Occupied:

       1A    -10.180342     2A    -10.167054     3A    -10.167014
       4A    -10.166977     5A     -0.797765     6A     -0.686220
       7A     -0.686153     8A     -0.530776     9A     -0.441125
      10A     -0.434772    11A     -0.434568    12A     -0.382749
      13A     -0.382449    14A     -0.363612    15A     -0.338084
      16A     -0.337913    17A     -0.168961

    Alpha Virtual:

      18A      0.076072    19A      0.134123    20A      0.134190
      21A      0.142565    22A      0.142691    23A      0.154879
      24A      0.178664    25A      0.178891    26A      0.203546
      27A      0.214802    28A      0.275930    29A      0.276041
      30A      0.399074    31A      0.399380    32A      0.403348
      33A      0.424049    34A      0.424145    35A      0.456593
      36A      0.495361    37A      0.495418    38A      0.512147
      39A      0.513993    40A      0.578727    41A      0.578908
      42A      0.591513    43A      0.591754    44A      0.602570
      45A      0.624761    46A      0.631777    47A      0.636141
      48A      0.636352    49A      0.663244    50A      0.663582
      51A      0.683703    52A      0.683999    53A      0.734995
      54A      0.825393    55A      0.825423    56A      0.853914
      57A      0.915007    58A      0.915042    59A      0.944012
      60A      0.944718    61A      0.961227    62A      0.961366
      63A      1.003464    64A      1.128001    65A      1.128221
      66A      1.142222    67A      1.163166    68A      1.163373
      69A      1.223323    70A      1.274341    71A      1.274631
      72A      1.279356    73A      1.324106    74A      1.324610
      75A      1.355970    76A      1.365744    77A      1.366361
      78A      1.392468    79A      1.403931    80A      1.404179
      81A      1.416827    82A      1.417402    83A      1.427908
      84A      1.491466    85A      1.499104    86A      1.542783
      87A      1.542867    88A      1.574293    89A      1.574597
      90A      1.669828    91A      1.739003    92A      1.739831
      93A      1.768324    94A      1.831197    95A      1.831591
      96A      1.971726    97A      2.018106    98A      2.018624
      99A      2.019660   100A      2.052264   101A      2.053009
     102A      2.738446   103A      2.738524   104A      2.790918
     105A      2.811427   106A      2.889687   107A      2.890222
     108A      2.894945   109A      2.929472   110A      2.929523
     111A      2.958994   112A      2.964262   113A      2.964486
     114A      3.034008   115A      3.071150   116A      3.071410
     117A      3.084357   118A      3.168654   119A      3.168908
     120A      3.180586   121A      3.285281   122A      3.285348
     123A      3.327003   124A      3.327319   125A      3.375622
     126A      3.489845   127A      3.490486   128A      3.514001
     129A      3.525333   130A      3.568291   131A      3.568489
     132A      3.575149   133A      3.666094   134A      3.666692
     135A      3.679651   136A      3.694098   137A      3.694144
     138A      3.776743   139A      3.776861   140A      3.789118
     141A      3.912142   142A      3.912299   143A      4.034458
     144A      4.111288   145A      4.111463   146A      4.148074
     147A      4.148183   148A      4.173242   149A      4.202423
     150A      4.203121   151A      4.203243   152A      4.210848
     153A      4.315532   154A      4.316385   155A      4.358985
     156A      4.424334   157A      4.424576   158A      4.443416
     159A      4.515785   160A      4.517899   161A      4.578062
     162A      4.578494   163A      4.617533   164A      4.709438
     165A      4.774078   166A      4.775095   167A      4.836909
     168A      4.962862   169A      5.002493   170A      5.003394
     171A      5.228051   172A      5.246789   173A      5.246829
     174A      5.355241   175A      5.355765   176A      5.479347

    Beta Occupied:

       1A    -10.167811     2A    -10.167766     3A    -10.167747
       4A    -10.166519     5A     -0.781091     6A     -0.684023
       7A     -0.683956     8A     -0.511747     9A     -0.431148
      10A     -0.430937    11A     -0.421821    12A     -0.376843
      13A     -0.376525    14A     -0.362596    15A     -0.333208
      16A     -0.333035

    Beta Virtual:

      17A     -0.025742    18A      0.077081    19A      0.135021
      20A      0.135071    21A      0.144440    22A      0.144557
      23A      0.163338    24A      0.182333    25A      0.182565
      26A      0.215030    27A      0.218930    28A      0.282280
      29A      0.282387    30A      0.400242    31A      0.400554
      32A      0.419792    33A      0.426857    34A      0.426960
      35A      0.468501    36A      0.497625    37A      0.497674
      38A      0.513895    39A      0.556326    40A      0.584282
      41A      0.584453    42A      0.597688    43A      0.597938
      44A      0.609994    45A      0.628135    46A      0.631933
      47A      0.639427    48A      0.639638    49A      0.666824
      50A      0.667130    51A      0.686336    52A      0.686637
      53A      0.757518    54A      0.830564    55A      0.830589
      56A      0.855268    57A      0.922980    58A      0.923012
      59A      0.945944    60A      0.953552    61A      0.966525
      62A      0.966679    63A      1.008704    64A      1.131991
      65A      1.132286    66A      1.155602    67A      1.168287
      68A      1.168398    69A      1.232295    70A      1.279935
      71A      1.280233    72A      1.285108    73A      1.329084
      74A      1.329609    75A      1.365380    76A      1.370986
      77A      1.371605    78A      1.393532    79A      1.407384
      80A      1.407657    81A      1.421894    82A      1.422436
      83A      1.428176    84A      1.492528    85A      1.509533
      86A      1.547206    87A      1.547260    88A      1.582218
      89A      1.582417    90A      1.674674    91A      1.744772
      92A      1.745585    93A      1.779104    94A      1.835052
      95A      1.835447    96A      1.972586    97A      2.024803
      98A      2.026083    99A      2.039684   100A      2.059004
     101A      2.059696   102A      2.746787   103A      2.746855
     104A      2.811792   105A      2.816101   106A      2.902383
     107A      2.902904   108A      2.924654   109A      2.931954
     110A      2.931999   111A      2.960057   112A      2.968810
     113A      2.969026   114A      3.041943   115A      3.081057
     116A      3.081313   117A      3.086183   118A      3.184421
     119A      3.184640   120A      3.188269   121A      3.290089
     122A      3.290137   123A      3.330795   124A      3.331137
     125A      3.383439   126A      3.492576   127A      3.493215
     128A      3.512369   129A      3.528374   130A      3.575008
     131A      3.581694   132A      3.581767   133A      3.670895
     134A      3.671378   135A      3.692946   136A      3.725620
     137A      3.725894   138A      3.781281   139A      3.781374
     140A      3.817664   141A      3.921944   142A      3.922131
     143A      4.045345   144A      4.118155   145A      4.118226
     146A      4.155238   147A      4.155435   148A      4.187305
     149A      4.208781   150A      4.209183   151A      4.210667
     152A      4.215320   153A      4.322946   154A      4.323850
     155A      4.362350   156A      4.432559   157A      4.432782
     158A      4.446298   159A      4.523580   160A      4.525685
     161A      4.588679   162A      4.589082   163A      4.624725
     164A      4.719783   165A      4.781050   166A      4.782030
     167A      4.839826   168A      4.967657   169A      5.006550
     170A      5.007415   171A      5.233767   172A      5.248573
     173A      5.248613   174A      5.361723   175A      5.362244
     176A      5.481669

    Final Occupation by Irrep:
              A
    DOCC [    16 ]
    SOCC [     1 ]

  @DF-UKS Final Energy:  -157.81307203306466

   => Energetics <=

    Nuclear Repulsion Energy =            125.3945829464500008
    One-Electron Energy =                -458.7488396962007755
    Two-Electron Energy =                 195.8483264504658052
    DFT Exchange-Correlation Energy =     -20.3071417337796873
    Empirical Dispersion Energy =           0.0000000000000000
    VV10 Nonlocal Energy =                  0.0000000000000000
    Total Energy =                       -157.8130720330646568

  UHF NO Occupations:
  HONO-2 :   15  A 1.9996009
  HONO-1 :   16  A 1.9989805
  HONO-0 :   17  A 1.0000000
  LUNO+0 :   18  A 0.0010195
  LUNO+1 :   19  A 0.0003991
  LUNO+2 :   20  A 0.0001977
  LUNO+3 :   21  A 0.0001974

Computation Completed

Properties will be evaluated at   0.000000,   0.000000,   0.000000 [a0]

Properties computed using the SCF density matrix

  Nuclear Dipole Moment: [e a0]
     X:     0.8272      Y:     0.0012      Z:     0.0000

  Electronic Dipole Moment: [e a0]
     X:    -0.7493      Y:    -0.0011      Z:    -0.0000

  Dipole Moment: [e a0]
     X:     0.0779      Y:     0.0001      Z:    -0.0000     Total:     0.0779

  Dipole Moment: [D]
     X:     0.1980      Y:     0.0003      Z:    -0.0000     Total:     0.1980

*** tstop() called on n040 at Fri Nov  5 12:38:45 2021
Module time:
	user time   =     634.87 seconds =      10.58 minutes
	system time =      12.33 seconds =       0.21 minutes
	total time  =        162 seconds =       2.70 minutes
Total time:
	user time   =     634.87 seconds =      10.58 minutes
	system time =      12.33 seconds =       0.21 minutes
	total time  =        162 seconds =       2.70 minutes
Grab this energy -157.81307203306466
    Psi4 stopped on: Friday, 05 November 2021 12:38PM
    Psi4 wall time for execution: 0:02:42.72

*** Psi4 exiting successfully. Buy a developer a beer!
