                               Psi4 1.4a2.dev629

  ==> Input File <==

--------------------------------------------------------------------------
import os
memory 14 GB

molecule {
 C   -0.3233400126    0.0024270295   -0.0000000000
 C    0.0610628554   -1.3992095260   -2.4278950004
 C    0.0611749443    2.8008054093   -0.0000000000
 C    0.0610628554   -1.3992095260    2.4278950004
 H    2.0872752641   -1.6395543173   -2.8527148188
 H   -0.7642436417   -0.3926997376   -4.0275626669
 H   -0.7675795522   -3.2922542312   -2.3440657041
 H    2.0861094235    3.2835257905   -0.0000000000
 H   -0.7647910416    3.6803265406    1.6766507212
 H   -0.7647910416    3.6803265406   -1.6766507212
 H    2.0872752641   -1.6395543173    2.8527148188
 H   -0.7675795522   -3.2922542312    2.3440657041
 H   -0.7642436417   -0.3926997376    4.0275626669
units bohr
0 2
}

basis {

assign 6-31g_2dfp_

[ 6-31g_2dfp_ ]

spherical

!----------------------------------------------------------------------
! Basis Set Exchange
! Version v0.8.13
! https://www.basissetexchange.org
!----------------------------------------------------------------------
!   Basis set: 6-31G(2df,p)
! Description: 6-31G(2df,p)
!        Role: orbital
!     Version: 0  (Data from the original Basis Set Exchange)
!----------------------------------------------------------------------

****
H     0
S    3   1.00
     18.7311370              0.03349460
      2.8253937              0.23472695
      0.6401217              0.81375733
S    1   1.00
      0.1612778              1.00000000
P    1   1.00
      1.5000000              1.0000000
P    1   1.00
      0.3750000              1.0000000
****
B     0
S    6   1.00
   2068.8823000              0.0018663
    310.6495700              0.0142515
     70.6830330              0.0695516
     19.8610800              0.2325729
      6.2993048              0.4670787
      2.1270270              0.3634314
SP   3   1.00
      4.7279710             -0.1303938              0.0745976
      1.1903377             -0.1307889              0.3078467
      0.3594117              1.1309444              0.7434568
SP   1   1.00
      0.1267512              1.0000000              1.0000000
D    1   1.00
      0.8020000              1.0000000
D    1   1.00
      0.2005000              1.0000000
F    1   1.00
      0.5000000              1.0000000
****
C     0
S    6   1.00
   3047.5249000              0.0018347
    457.3695100              0.0140373
    103.9486900              0.0688426
     29.2101550              0.2321844
      9.2866630              0.4679413
      3.1639270              0.3623120
SP   3   1.00
      7.8682724             -0.1193324              0.0689991
      1.8812885             -0.1608542              0.3164240
      0.5442493              1.1434564              0.7443083
SP   1   1.00
      0.1687144              1.0000000              1.0000000
D    1   1.00
      1.2520000              1.0000000
D    1   1.00
      0.3130000              1.0000000
F    1   1.00
      0.8000000              1.0000000
****
N     0
S    6   1.00
   4173.5110000              0.0018348
    627.4579000              0.0139950
    142.9021000              0.0685870
     40.2343300              0.2322410
     12.8202100              0.4690700
      4.3904370              0.3604550
SP   3   1.00
     11.6263580             -0.1149610              0.0675800
      2.7162800             -0.1691180              0.3239070
      0.7722180              1.1458520              0.7408950
SP   1   1.00
      0.2120313              1.0000000              1.0000000
D    1   1.00
      1.8260000              1.0000000
D    1   1.00
      0.4565000              1.0000000
F    1   1.00
      1.0000000              1.0000000
****
O     0
S    6   1.00
   5484.6717000              0.0018311
    825.2349500              0.0139501
    188.0469600              0.0684451
     52.9645000              0.2327143
     16.8975700              0.4701930
      5.7996353              0.3585209
SP   3   1.00
     15.5396160             -0.1107775              0.0708743
      3.5999336             -0.1480263              0.3397528
      1.0137618              1.1307670              0.7271586
SP   1   1.00
      0.2700058              1.0000000              1.0000000
D    1   1.00
      2.5840000              1.0000000
D    1   1.00
      0.6460000              1.0000000
F    1   1.00
      1.4000000              1.0000000
****
F     0
S    6   1.00
   7001.7130900              0.0018196169
   1051.3660900              0.0139160796
    239.2856900              0.0684053245
     67.3974453              0.233185760
     21.5199573              0.471267439
      7.40310130             0.356618546
SP   3   1.00
     20.8479528             -0.108506975            0.0716287243
      4.80830834            -0.146451658            0.3459121030
      1.34406986             1.128688580            0.7224699570
SP   1   1.00
      0.358151393            1.0000000              1.0000000
D    1   1.00
      3.5000000              1.0000000
D    1   1.00
      0.8750000              1.0000000
F    1   1.00
      1.8500000              1.0000000
****
Al     0
S    6   1.00
  13983.1000000              0.00194267
   2098.7500000              0.0148599
    477.7050000              0.0728494
    134.3600000              0.2468300
     42.8709000              0.4872580
     14.5189000              0.3234960
SP   6   1.00
    239.6680000             -0.00292619             0.00460285
     57.4419000             -0.0374080              0.0331990
     18.2859000             -0.1144870              0.1362820
      6.5991400              0.1156350              0.3304760
      2.4904900              0.6125950              0.4491460
      0.9445400              0.3937990              0.2657040
SP   3   1.00
      1.2779000             -0.2276060             -0.0175130
      0.3975900              0.00144583             0.2445330
      0.1600950              1.0927900              0.8049340
SP   1   1.00
      0.0556577              1.0000000              1.0000000
D    1   1.00
      0.6500000              1.0000000
D    1   1.00
      0.1625000              1.0000000
F    1   1.00
      0.2500000              1.0000000
****
Si     0
S    6   1.00
  16115.9000000              0.00195948
   2425.5800000              0.01492880
    553.8670000              0.07284780
    156.3400000              0.24613000
     50.0683000              0.48591400
     17.0178000              0.32500200
SP   6   1.00
    292.7180000             -0.00278094             0.00443826
     69.8731000             -0.03571460             0.03266790
     22.3363000             -0.11498500             0.13472100
      8.1503900              0.09356340             0.32867800
      3.1345800              0.60301700             0.44964000
      1.2254300              0.41895900             0.26137200
SP   3   1.00
      1.7273800             -0.24463000            -0.01779510
      0.5729220              0.00431572             0.25353900
      0.2221920              1.09818000             0.80066900
SP   1   1.00
      0.0778369              1.00000000             1.00000000
D    1   1.00
      0.9000000              1.0000000
D    1   1.00
      0.2250000              1.0000000
F    1   1.00
      0.3200000              1.0000000
****
P     0
S    6   1.00
  19413.3000000              0.0018516
   2909.4200000              0.0142062
    661.3640000              0.0699995
    185.7590000              0.2400790
     59.1943000              0.4847620
     20.0310000              0.3352000
SP   6   1.00
    339.4780000             -0.00278217             0.00456462
     81.0101000             -0.0360499              0.03369360
     25.8780000             -0.1166310              0.13975500
      9.4522100              0.0968328              0.33936200
      3.6656600              0.6144180              0.45092100
      1.4674600              0.4037980              0.23858600
SP   3   1.00
      2.1562300             -0.2529230             -0.01776530
      0.7489970              0.0328517              0.27405800
      0.2831450              1.0812500              0.78542100
SP   1   1.00
      0.0998317              1.0000000              1.00000000
D    1   1.00
      1.1000000              1.0000000
D    1   1.00
      0.2750000              1.0000000
F    1   1.00
      0.4500000              1.0000000
****
S     0
S    6   1.00
  21917.1000000              0.0018690
   3301.4900000              0.0142300
    754.1460000              0.0696960
    212.7110000              0.2384870
     67.9896000              0.4833070
     23.0515000              0.3380740
SP   6   1.00
    423.7350000             -0.0023767              0.0040610
    100.7100000             -0.0316930              0.0306810
     32.1599000             -0.1133170              0.1304520
     11.8079000              0.0560900              0.3272050
      4.6311000              0.5922550              0.4528510
      1.8702500              0.4550060              0.2560420
SP   3   1.00
      2.6158400             -0.2503740             -0.0145110
      0.9221670              0.0669570              0.3102630
      0.3412870              1.0545100              0.7544830
SP   1   1.00
      0.1171670              1.0000000              1.0000000
D    1   1.00
      1.3000000              1.0000000
D    1   1.00
      0.3250000              1.0000000
F    1   1.00
      0.5500000              1.0000000
****
Cl     0
S    6   1.00
  25180.1000000              0.0018330
   3780.3500000              0.0140340
    860.4740000              0.0690970
    242.1450000              0.2374520
     77.3349000              0.4830340
     26.2470000              0.3398560
SP   6   1.00
    491.7650000             -0.0022974              0.0039894
    116.9840000             -0.0307140              0.0303180
     37.4153000             -0.1125280              0.1298800
     13.7834000              0.0450160              0.3279510
      5.4521500              0.5893530              0.4535270
      2.2258800              0.4652060              0.2521540
SP   3   1.00
      3.1864900             -0.2518300             -0.0142990
      1.1442700              0.0615890              0.3235720
      0.4203770              1.0601800              0.7435070
SP   1   1.00
      0.1426570              1.0000000              1.0000000
D    1   1.00
      1.5000000              1.0000000
D    1   1.00
      0.3750000              1.0000000
F    1   1.00
      0.7000000              1.0000000
****
}

set {
reference uhf
freeze_core true
e_convergence 10
d_convergence 10
dft_spherical_points 1202
dft_radial_points 99
}

e = energy('b3lyp')

print_out('Grab this energy {0}'.format(e))
--------------------------------------------------------------------------

    Molecular point group: cs

    Geometry (in Bohr), charge = 0, multiplicity = 2:

       Center              X                  Y                   Z               Mass
    ------------   -----------------  -----------------  -----------------  -----------------
         C           -0.323340133429     0.001500365897     0.000000000000    12.000000000000
         C            0.061062734571    -1.400136189603    -2.427895000400    12.000000000000
         C            0.061174823471     2.799878745697     0.000000000000    12.000000000000
         C            0.061062734571    -1.400136189603     2.427895000400    12.000000000000
         H            2.087275143271    -1.640480980903    -2.852714818800     1.007825032230
         H           -0.764243762529    -0.393626401203    -4.027562666900     1.007825032230
         H           -0.767579673029    -3.293180894803    -2.344065704100     1.007825032230
         H            2.086109302671     3.282599126897     0.000000000000     1.007825032230
         H           -0.764791162429     3.679399876997     1.676650721200     1.007825032230
         H           -0.764791162429     3.679399876997    -1.676650721200     1.007825032230
         H            2.087275143271    -1.640480980903     2.852714818800     1.007825032230
         H           -0.767579673029    -3.293180894803     2.344065704100     1.007825032230
         H           -0.764243762529    -0.393626401203     4.027562666900     1.007825032230

  Charge       = 0
  Multiplicity = 2
  Basis Set: ANONYMOUSBC7A5061
    Blend: 6-31G_2DFP_
  Basis Set: (ANONYMOUSBC7A5061 AUX)
    Blend: DEF2-UNIVERSAL-JKFIT

    Orbital Energies [Eh]
    ---------------------

    Alpha Occupied:

       1Ap   -10.180342     1App  -10.167117     2Ap   -10.167089
       3Ap   -10.166838     4Ap    -0.797767     5Ap    -0.686249
       2App   -0.686126     6Ap    -0.530779     7Ap    -0.441125
       8Ap    -0.434927     3App   -0.434416     9Ap    -0.382656
       4App   -0.382540     5App   -0.363617     6App   -0.338088
      10Ap    -0.337902    11Ap    -0.168961

    Alpha Virtual:

      12Ap     0.076071    13Ap     0.134069     7App    0.134235
       8App    0.142487    14Ap     0.142768    15Ap     0.154884
       9App    0.178726    16Ap     0.178832    17Ap     0.203549
      10App    0.214800    11App    0.275608    18Ap     0.276363
      19Ap     0.398999    12App    0.399440    20Ap     0.403361
      21Ap     0.423882    13App    0.424315    22Ap     0.456593
      23Ap     0.495281    14App    0.495501    15App    0.512159
      24Ap     0.513980    16App    0.578477    25Ap     0.579159
      17App    0.591197    26Ap     0.592060    27Ap     0.602582
      28Ap     0.624743    18App    0.631765    19App    0.635934
      29Ap     0.636592    20App    0.663234    30Ap     0.663589
      31Ap     0.683685    21App    0.684031    32Ap     0.734994
      22App    0.825369    33Ap     0.825443    23App    0.853915
      34Ap     0.914933    24App    0.915101    25App    0.944122
      35Ap     0.944593    36Ap     0.960550    26App    0.962066
      37Ap     1.003459    38Ap     1.127596    27App    1.128608
      39Ap     1.142226    40Ap     1.163107    28App    1.163453
      41Ap     1.223324    29App    1.274084    42Ap     1.274895
      43Ap     1.279350    30App    1.324144    44Ap     1.324568
      45Ap     1.355989    31App    1.365580    46Ap     1.366522
      32App    1.392463    33App    1.403693    47Ap     1.404407
      48Ap     1.416809    34App    1.417413    35App    1.427891
      36App    1.491500    49Ap     1.499070    50Ap     1.542547
      37App    1.543142    38App    1.574260    51Ap     1.574634
      52Ap     1.669829    39App    1.738346    53Ap     1.740483
      54Ap     1.768321    55Ap     1.831131    40App    1.831661
      41App    1.971740    56Ap     2.018208    42App    2.018517
      57Ap     2.019665    43App    2.051306    58Ap     2.053983
      59Ap     2.738378    44App    2.738582    60Ap     2.790934
      45App    2.811424    46App    2.889536    61Ap     2.890320
      62Ap     2.894988    47App    2.929456    63Ap     2.929532
      48App    2.958955    64Ap     2.964279    49App    2.964518
      65Ap     3.034009    66Ap     3.070620    50App    3.071858
      51App    3.084466    52App    3.168174    67Ap     3.169393
      68Ap     3.180598    69Ap     3.285194    53App    3.285425
      54App    3.326458    70Ap     3.327849    71Ap     3.375637
      72Ap     3.490049    55App    3.490249    56App    3.514011
      73Ap     3.525299    74Ap     3.568296    57App    3.568401
      58App    3.575237    59App    3.666124    75Ap     3.666676
      76Ap     3.679676    60App    3.693922    77Ap     3.694293
      78Ap     3.775640    61App    3.777929    79Ap     3.789173
      80Ap     3.911917    62App    3.912557    81Ap     4.034445
      63App    4.109552    82Ap     4.113164    64App    4.147530
      83Ap     4.148390    84Ap     4.173519    85Ap     4.202372
      86Ap     4.202676    65App    4.203775    66App    4.210947
      67App    4.315813    87Ap     4.316084    68App    4.359003
      69App    4.424146    88Ap     4.424741    70App    4.443465
      71App    4.515385    89Ap     4.518291    72App    4.577906
      90Ap     4.578556    91Ap     4.617587    92Ap     4.709427
      93Ap     4.774549    73App    4.774650    74App    4.836961
      94Ap     4.962859    75App    5.002234    95Ap     5.003692
      96Ap     5.227635    97Ap     5.246627    76App    5.247346
      77App    5.353511    98Ap     5.357503    78App    5.479389

    Beta Occupied:

       1App  -10.167871     1Ap   -10.167853     2Ap   -10.167600
       3Ap   -10.166519     4Ap    -0.781092     5Ap    -0.684042
       2App   -0.683938     6Ap    -0.511750     7Ap    -0.431289
       3App   -0.430796     8Ap    -0.421821     9Ap    -0.376733
       4App   -0.376634     5App   -0.362600     6App   -0.333212
      10Ap    -0.333024

    Beta Virtual:

      11Ap    -0.025742    12Ap     0.077079    13Ap     0.134927
       7App    0.135159     8App    0.144330    14Ap     0.144666
      15Ap     0.163342     9App    0.182379    16Ap     0.182520
      10App    0.215030    17Ap     0.218931    11App    0.281967
      18Ap     0.282701    19Ap     0.400178    12App    0.400615
      20Ap     0.419791    21Ap     0.426693    13App    0.427127
      22Ap     0.468501    23Ap     0.497540    14App    0.497764
      15App    0.513894    24Ap     0.556325    16App    0.584027
      25Ap     0.584709    17App    0.597367    26Ap     0.598246
      27Ap     0.610009    28Ap     0.628115    18App    0.631924
      19App    0.639217    29Ap     0.639880    20App    0.666814
      30Ap     0.667135    31Ap     0.686364    21App    0.686623
      32Ap     0.757517    22App    0.830571    33Ap     0.830577
      23App    0.855268    34Ap     0.922890    24App    0.923086
      25App    0.945959    35Ap     0.953507    36Ap     0.965909
      26App    0.967335    37Ap     1.008700    38Ap     1.131557
      27App    1.132707    39Ap     1.155604    40Ap     1.168266
      28App    1.168437    41Ap     1.232296    29App    1.279665
      42Ap     1.280507    43Ap     1.285104    30App    1.329119
      44Ap     1.329572    45Ap     1.365405    31App    1.370916
      46Ap     1.371673    32App    1.393521    33App    1.407113
      47Ap     1.407918    48Ap     1.421905    34App    1.422417
      35App    1.428160    36App    1.492549    49Ap     1.509514
      50Ap     1.546924    37App    1.547583    38App    1.582125
      51Ap     1.582509    52Ap     1.674676    39App    1.744085
      53Ap     1.746274    54Ap     1.779093    55Ap     1.834981
      40App    1.835522    41App    1.972600    42App    2.024958
      56Ap     2.025942    57Ap     2.039666    43App    2.057980
      58Ap     2.060742    59Ap     2.746745    44App    2.746890
      45App    2.811836    60Ap     2.816066    46App    2.902241
      61Ap     2.903025    62Ap     2.924663    63Ap     2.931953
      47App    2.931995    48App    2.960033    64Ap     2.968851
      49App    2.969021    65Ap     3.041944    66Ap     3.080540
      50App    3.081590    51App    3.086451    52App    3.183928
      67Ap     3.185122    68Ap     3.188299    69Ap     3.290007
      53App    3.290211    54App    3.330245    70Ap     3.331671
      71Ap     3.383455    72Ap     3.492775    55App    3.492982
      56App    3.512378    73Ap     3.528352    57App    3.574892
      74Ap     3.581590    58App    3.581979    59App    3.670773
      75Ap     3.671534    76Ap     3.692955    60App    3.725686
      77Ap     3.725797    78Ap     3.780247    61App    3.782377
      79Ap     3.817716    80Ap     3.921648    62App    3.922457
      81Ap     4.045333    63App    4.116268    82Ap     4.120082
      64App    4.154942    83Ap     4.155451    84Ap     4.187514
      85Ap     4.208364    65App    4.209666    86Ap     4.210639
      66App    4.215427    67App    4.323183    87Ap     4.323589
      68App    4.362372    69App    4.432315    88Ap     4.432985
      70App    4.446365    71App    4.523178    89Ap     4.526078
      72App    4.588478    90Ap     4.589182    91Ap     4.624784
      92Ap     4.719773    93Ap     4.781519    73App    4.781587
      74App    4.839879    94Ap     4.967653    75App    5.006265
      95Ap     5.007739    96Ap     5.233249    97Ap     5.248519
      76App    5.249126    77App    5.359979    98Ap     5.363992
      78App    5.481711

    Final Occupation by Irrep:
             Ap   App
    DOCC [    10,    6 ]
    SOCC [     1,    0 ]

  @DF-UKS Final Energy:  -157.81306051040923

   => Energetics <=

    Nuclear Repulsion Energy =            125.3946533953656086
    One-Electron Energy =                -458.7489475507733232
    Two-Electron Energy =                 195.8483782578917953
    DFT Exchange-Correlation Energy =     -20.3071446128933069
    Empirical Dispersion Energy =           0.0000000000000000
    VV10 Nonlocal Energy =                  0.0000000000000000
    Total Energy =                       -157.8130605104092297

  UHF NO Occupations:
  HONO-2 :    9 Ap 1.9996009
  HONO-1 :   10 Ap 1.9989804
  HONO-0 :   11 Ap 1.0000000
  LUNO+0 :   12 Ap 0.0010196
  LUNO+1 :   13 Ap 0.0003991
  LUNO+2 :    7App 0.0001979
  LUNO+3 :   14 Ap 0.0001972

Computation Completed

Properties will be evaluated at   0.000000,   0.000000,   0.000000 [a0]

Properties computed using the SCF density matrix

  Nuclear Dipole Moment: [e a0]
     X:     0.8272      Y:    -0.0065      Z:     0.0000

  Electronic Dipole Moment: [e a0]
     X:    -0.7493      Y:     0.0083      Z:     0.0000

  Dipole Moment: [e a0]
     X:     0.0779      Y:     0.0018      Z:     0.0000     Total:     0.0779

  Dipole Moment: [D]
     X:     0.1980      Y:     0.0045      Z:     0.0000     Total:     0.1981

*** tstop() called on n082 at Fri Nov  5 14:27:09 2021
Module time:
	user time   =     498.39 seconds =       8.31 minutes
	system time =       4.49 seconds =       0.07 minutes
	total time  =        127 seconds =       2.12 minutes
Total time:
	user time   =     498.39 seconds =       8.31 minutes
	system time =       4.49 seconds =       0.07 minutes
	total time  =        127 seconds =       2.12 minutes
Grab this energy -157.81306051040923
    Psi4 stopped on: Friday, 05 November 2021 02:27PM
    Psi4 wall time for execution: 0:02:06.46

*** Psi4 exiting successfully. Buy a developer a beer!
