                               Psi4 1.4a2.dev629

  ==> Input File <==

--------------------------------------------------------------------------
import os
memory 14 GB

molecule {
 C   -0.3233402014    0.0004962241    0.0004326973
 C    0.0615603660   -1.4012132842   -2.4262370643
 C    0.0596442176    2.8018571690    0.0013869111
 C    0.0620967842   -1.3999153314    2.4267729657
 H    2.0856651506   -1.6455921028   -2.8468499146
 H   -0.7653176089   -0.3868222621   -4.0264655580
 H   -0.7643515183   -3.2918850868   -2.3491143945
 H    2.0909224390    3.2876088554    0.0034982529
 H   -0.7643491741    3.6793922133    1.6709838926
 H   -0.7707632589    3.6812072238   -1.6757627663
 H    2.0840872147   -1.6425711706    2.8486108780
 H   -0.7669537300   -3.2956503450    2.3476857833
 H   -0.7615085573   -0.3869364162    4.0250583168
units bohr
0 2
}

basis {

assign 6-31g_2dfp_

[ 6-31g_2dfp_ ]

spherical

!----------------------------------------------------------------------
! Basis Set Exchange
! Version v0.8.13
! https://www.basissetexchange.org
!----------------------------------------------------------------------
!   Basis set: 6-31G(2df,p)
! Description: 6-31G(2df,p)
!        Role: orbital
!     Version: 0  (Data from the original Basis Set Exchange)
!----------------------------------------------------------------------

****
H     0
S    3   1.00
     18.7311370              0.03349460
      2.8253937              0.23472695
      0.6401217              0.81375733
S    1   1.00
      0.1612778              1.00000000
P    1   1.00
      1.5000000              1.0000000
P    1   1.00
      0.3750000              1.0000000
****
B     0
S    6   1.00
   2068.8823000              0.0018663
    310.6495700              0.0142515
     70.6830330              0.0695516
     19.8610800              0.2325729
      6.2993048              0.4670787
      2.1270270              0.3634314
SP   3   1.00
      4.7279710             -0.1303938              0.0745976
      1.1903377             -0.1307889              0.3078467
      0.3594117              1.1309444              0.7434568
SP   1   1.00
      0.1267512              1.0000000              1.0000000
D    1   1.00
      0.8020000              1.0000000
D    1   1.00
      0.2005000              1.0000000
F    1   1.00
      0.5000000              1.0000000
****
C     0
S    6   1.00
   3047.5249000              0.0018347
    457.3695100              0.0140373
    103.9486900              0.0688426
     29.2101550              0.2321844
      9.2866630              0.4679413
      3.1639270              0.3623120
SP   3   1.00
      7.8682724             -0.1193324              0.0689991
      1.8812885             -0.1608542              0.3164240
      0.5442493              1.1434564              0.7443083
SP   1   1.00
      0.1687144              1.0000000              1.0000000
D    1   1.00
      1.2520000              1.0000000
D    1   1.00
      0.3130000              1.0000000
F    1   1.00
      0.8000000              1.0000000
****
N     0
S    6   1.00
   4173.5110000              0.0018348
    627.4579000              0.0139950
    142.9021000              0.0685870
     40.2343300              0.2322410
     12.8202100              0.4690700
      4.3904370              0.3604550
SP   3   1.00
     11.6263580             -0.1149610              0.0675800
      2.7162800             -0.1691180              0.3239070
      0.7722180              1.1458520              0.7408950
SP   1   1.00
      0.2120313              1.0000000              1.0000000
D    1   1.00
      1.8260000              1.0000000
D    1   1.00
      0.4565000              1.0000000
F    1   1.00
      1.0000000              1.0000000
****
O     0
S    6   1.00
   5484.6717000              0.0018311
    825.2349500              0.0139501
    188.0469600              0.0684451
     52.9645000              0.2327143
     16.8975700              0.4701930
      5.7996353              0.3585209
SP   3   1.00
     15.5396160             -0.1107775              0.0708743
      3.5999336             -0.1480263              0.3397528
      1.0137618              1.1307670              0.7271586
SP   1   1.00
      0.2700058              1.0000000              1.0000000
D    1   1.00
      2.5840000              1.0000000
D    1   1.00
      0.6460000              1.0000000
F    1   1.00
      1.4000000              1.0000000
****
F     0
S    6   1.00
   7001.7130900              0.0018196169
   1051.3660900              0.0139160796
    239.2856900              0.0684053245
     67.3974453              0.233185760
     21.5199573              0.471267439
      7.40310130             0.356618546
SP   3   1.00
     20.8479528             -0.108506975            0.0716287243
      4.80830834            -0.146451658            0.3459121030
      1.34406986             1.128688580            0.7224699570
SP   1   1.00
      0.358151393            1.0000000              1.0000000
D    1   1.00
      3.5000000              1.0000000
D    1   1.00
      0.8750000              1.0000000
F    1   1.00
      1.8500000              1.0000000
****
Al     0
S    6   1.00
  13983.1000000              0.00194267
   2098.7500000              0.0148599
    477.7050000              0.0728494
    134.3600000              0.2468300
     42.8709000              0.4872580
     14.5189000              0.3234960
SP   6   1.00
    239.6680000             -0.00292619             0.00460285
     57.4419000             -0.0374080              0.0331990
     18.2859000             -0.1144870              0.1362820
      6.5991400              0.1156350              0.3304760
      2.4904900              0.6125950              0.4491460
      0.9445400              0.3937990              0.2657040
SP   3   1.00
      1.2779000             -0.2276060             -0.0175130
      0.3975900              0.00144583             0.2445330
      0.1600950              1.0927900              0.8049340
SP   1   1.00
      0.0556577              1.0000000              1.0000000
D    1   1.00
      0.6500000              1.0000000
D    1   1.00
      0.1625000              1.0000000
F    1   1.00
      0.2500000              1.0000000
****
Si     0
S    6   1.00
  16115.9000000              0.00195948
   2425.5800000              0.01492880
    553.8670000              0.07284780
    156.3400000              0.24613000
     50.0683000              0.48591400
     17.0178000              0.32500200
SP   6   1.00
    292.7180000             -0.00278094             0.00443826
     69.8731000             -0.03571460             0.03266790
     22.3363000             -0.11498500             0.13472100
      8.1503900              0.09356340             0.32867800
      3.1345800              0.60301700             0.44964000
      1.2254300              0.41895900             0.26137200
SP   3   1.00
      1.7273800             -0.24463000            -0.01779510
      0.5729220              0.00431572             0.25353900
      0.2221920              1.09818000             0.80066900
SP   1   1.00
      0.0778369              1.00000000             1.00000000
D    1   1.00
      0.9000000              1.0000000
D    1   1.00
      0.2250000              1.0000000
F    1   1.00
      0.3200000              1.0000000
****
P     0
S    6   1.00
  19413.3000000              0.0018516
   2909.4200000              0.0142062
    661.3640000              0.0699995
    185.7590000              0.2400790
     59.1943000              0.4847620
     20.0310000              0.3352000
SP   6   1.00
    339.4780000             -0.00278217             0.00456462
     81.0101000             -0.0360499              0.03369360
     25.8780000             -0.1166310              0.13975500
      9.4522100              0.0968328              0.33936200
      3.6656600              0.6144180              0.45092100
      1.4674600              0.4037980              0.23858600
SP   3   1.00
      2.1562300             -0.2529230             -0.01776530
      0.7489970              0.0328517              0.27405800
      0.2831450              1.0812500              0.78542100
SP   1   1.00
      0.0998317              1.0000000              1.00000000
D    1   1.00
      1.1000000              1.0000000
D    1   1.00
      0.2750000              1.0000000
F    1   1.00
      0.4500000              1.0000000
****
S     0
S    6   1.00
  21917.1000000              0.0018690
   3301.4900000              0.0142300
    754.1460000              0.0696960
    212.7110000              0.2384870
     67.9896000              0.4833070
     23.0515000              0.3380740
SP   6   1.00
    423.7350000             -0.0023767              0.0040610
    100.7100000             -0.0316930              0.0306810
     32.1599000             -0.1133170              0.1304520
     11.8079000              0.0560900              0.3272050
      4.6311000              0.5922550              0.4528510
      1.8702500              0.4550060              0.2560420
SP   3   1.00
      2.6158400             -0.2503740             -0.0145110
      0.9221670              0.0669570              0.3102630
      0.3412870              1.0545100              0.7544830
SP   1   1.00
      0.1171670              1.0000000              1.0000000
D    1   1.00
      1.3000000              1.0000000
D    1   1.00
      0.3250000              1.0000000
F    1   1.00
      0.5500000              1.0000000
****
Cl     0
S    6   1.00
  25180.1000000              0.0018330
   3780.3500000              0.0140340
    860.4740000              0.0690970
    242.1450000              0.2374520
     77.3349000              0.4830340
     26.2470000              0.3398560
SP   6   1.00
    491.7650000             -0.0022974              0.0039894
    116.9840000             -0.0307140              0.0303180
     37.4153000             -0.1125280              0.1298800
     13.7834000              0.0450160              0.3279510
      5.4521500              0.5893530              0.4535270
      2.2258800              0.4652060              0.2521540
SP   3   1.00
      3.1864900             -0.2518300             -0.0142990
      1.1442700              0.0615890              0.3235720
      0.4203770              1.0601800              0.7435070
SP   1   1.00
      0.1426570              1.0000000              1.0000000
D    1   1.00
      1.5000000              1.0000000
D    1   1.00
      0.3750000              1.0000000
F    1   1.00
      0.7000000              1.0000000
****
}

set {
reference uhf
freeze_core true
e_convergence 10
d_convergence 10
dft_spherical_points 1202
dft_radial_points 99
}

e = energy('b3lyp')

print_out('Grab this energy {0}'.format(e))
--------------------------------------------------------------------------

    Molecular point group: c1

    Geometry (in Bohr), charge = 0, multiplicity = 2:

       Center              X                  Y                   Z               Mass
    ------------   -----------------  -----------------  -----------------  -----------------
         C           -0.323340423136     0.000260752492    -0.000020990853    12.000000000000
         C            0.061560144264    -1.401448755808    -2.426690752453    12.000000000000
         C            0.059643995864     2.801621697392     0.000933222947    12.000000000000
         C            0.062096562464    -1.400150803008     2.426319277547    12.000000000000
         H            2.085664928864    -1.645827574408    -2.847303602753     1.007825032230
         H           -0.765317830636    -0.387057733708    -4.026919246153     1.007825032230
         H           -0.764351740036    -3.292120558408    -2.349568082653     1.007825032230
         H            2.090922217264     3.287373383792     0.003044564747     1.007825032230
         H           -0.764349395836     3.679156741692     1.670530204447     1.007825032230
         H           -0.770763480636     3.680971752192    -1.676216454453     1.007825032230
         H            2.084086992964    -1.642806642208     2.848157189847     1.007825032230
         H           -0.766953951736    -3.295885816608     2.347232095147     1.007825032230
         H           -0.761508779036    -0.387171887808     4.024604628647     1.007825032230

  Charge       = 0
  Multiplicity = 2
  Basis Set: ANONYMOUS655B56B0
    Blend: 6-31G_2DFP_
  Basis Set: (ANONYMOUS655B56B0 AUX)
    Blend: DEF2-UNIVERSAL-JKFIT

    Orbital Energies [Eh]
    ---------------------

    Alpha Occupied:

       1A    -10.180342     2A    -10.167048     3A    -10.167018
       4A    -10.166978     5A     -0.797767     6A     -0.686248
       7A     -0.686130     8A     -0.530780     9A     -0.441128
      10A     -0.434855    11A     -0.434482    12A     -0.382630
      13A     -0.382566    14A     -0.363612    15A     -0.338163
      16A     -0.337833    17A     -0.168961

    Alpha Virtual:

      18A      0.076069    19A      0.133949    20A      0.134354
      21A      0.142414    22A      0.142837    23A      0.154884
      24A      0.178653    25A      0.178905    26A      0.203548
      27A      0.214804    28A      0.275852    29A      0.276121
      30A      0.398978    31A      0.399476    32A      0.403344
      33A      0.423914    34A      0.424280    35A      0.456592
      36A      0.495237    37A      0.495540    38A      0.512161
      39A      0.513981    40A      0.578628    41A      0.579003
      42A      0.591421    43A      0.591835    44A      0.602581
      45A      0.624717    46A      0.631751    47A      0.635967
      48A      0.636596    49A      0.662993    50A      0.663844
      51A      0.683594    52A      0.684131    53A      0.734995
      54A      0.825148    55A      0.825657    56A      0.853921
      57A      0.914724    58A      0.915325    59A      0.944125
      60A      0.944605    61A      0.961146    62A      0.961449
      63A      1.003454    64A      1.127826    65A      1.128397
      66A      1.142214    67A      1.163131    68A      1.163414
      69A      1.223324    70A      1.274194    71A      1.274764
      72A      1.279373    73A      1.324138    74A      1.324564
      75A      1.355956    76A      1.365748    77A      1.366350
      78A      1.392446    79A      1.403599    80A      1.404512
      81A      1.416231    82A      1.418003    83A      1.427903
      84A      1.491494    85A      1.499069    86A      1.542393
      87A      1.543298    88A      1.574183    89A      1.574713
      90A      1.669826    91A      1.738647    92A      1.740143
      93A      1.768357    94A      1.830279    95A      1.832500
      96A      1.971741    97A      2.017458    98A      2.018888
      99A      2.020044   100A      2.051571   101A      2.053755
     102A      2.738037   103A      2.738932   104A      2.790925
     105A      2.811424   106A      2.889791   107A      2.890087
     108A      2.894967   109A      2.929471   110A      2.929526
     111A      2.958962   112A      2.964075   113A      2.964719
     114A      3.034017   115A      3.070729   116A      3.071765
     117A      3.084453   118A      3.168318   119A      3.169240
     120A      3.180604   121A      3.284948   122A      3.285675
     123A      3.326738   124A      3.327584   125A      3.375635
     126A      3.489836   127A      3.490484   128A      3.514018
     129A      3.525325   130A      3.567935   131A      3.568848
     132A      3.575132   133A      3.665542   134A      3.667263
     135A      3.679635   136A      3.693843   137A      3.694441
     138A      3.776690   139A      3.776895   140A      3.789136
     141A      3.911641   142A      3.912812   143A      4.034427
     144A      4.110617   145A      4.112026   146A      4.147388
     147A      4.148733   148A      4.173321   149A      4.201710
     150A      4.202586   151A      4.204401   152A      4.211034
     153A      4.314918   154A      4.317073   155A      4.358980
     156A      4.423838   157A      4.425098   158A      4.443447
     159A      4.515595   160A      4.518099   161A      4.578140
     162A      4.578382   163A      4.617573   164A      4.709432
     165A      4.773506   166A      4.775714   167A      4.836905
     168A      4.962869   169A      5.002134   170A      5.003776
     171A      5.227582   172A      5.244708   173A      5.249280
     174A      5.353807   175A      5.357294   176A      5.479442

    Beta Occupied:

       1A    -10.167805     2A    -10.167770     3A    -10.167748
       4A    -10.166520     5A     -0.781092     6A     -0.684053
       7A     -0.683930     8A     -0.511751     9A     -0.431234
      10A     -0.430853    11A     -0.421818    12A     -0.376732
      13A     -0.376635    14A     -0.362596    15A     -0.333281
      16A     -0.332961

    Beta Virtual:

      17A     -0.025743    18A      0.077078    19A      0.134834
      20A      0.135253    21A      0.144262    22A      0.144730
      23A      0.163339    24A      0.182311    25A      0.182590
      26A      0.215034    27A      0.218930    28A      0.282198
      29A      0.282470    30A      0.400144    31A      0.400650
      32A      0.419790    33A      0.426726    34A      0.427091
      35A      0.468500    36A      0.497489    37A      0.497810
      38A      0.513896    39A      0.556325    40A      0.584193
      41A      0.584537    42A      0.597569    43A      0.598047
      44A      0.610002    45A      0.628096    46A      0.631916
      47A      0.639268    48A      0.639854    49A      0.666593
      50A      0.667374    51A      0.686258    52A      0.686737
      53A      0.757518    54A      0.830328    55A      0.830813
      56A      0.855275    57A      0.922719    58A      0.923272
      59A      0.945962    60A      0.953532    61A      0.966417
      62A      0.966791    63A      1.008695    64A      1.131864
      65A      1.132415    66A      1.155589    67A      1.168176
      68A      1.168519    69A      1.232296    70A      1.279770
      71A      1.280379    72A      1.285130    73A      1.329129
      74A      1.329551    75A      1.365367    76A      1.371058
      77A      1.371529    78A      1.393506    79A      1.407023
      80A      1.408020    81A      1.421312    82A      1.423024
      83A      1.428171    84A      1.492544    85A      1.509512
      86A      1.546813    87A      1.547694    88A      1.582061
      89A      1.582577    90A      1.674673    91A      1.744405
      92A      1.745918    93A      1.779128    94A      1.834126
      95A      1.836364    96A      1.972603    97A      2.024676
      98A      2.026179    99A      2.039691   100A      2.058319
     101A      2.060456   102A      2.746376   103A      2.747264
     104A      2.811837   105A      2.816060   106A      2.902439
     107A      2.902837   108A      2.924649   109A      2.931928
     110A      2.932028   111A      2.960039   112A      2.968594
     113A      2.969280   114A      3.041950   115A      3.080588
     116A      3.081570   117A      3.086428   118A      3.184037
     119A      3.184994   120A      3.188314   121A      3.289734
     122A      3.290487   123A      3.330500   124A      3.331431
     125A      3.383452   126A      3.492596   127A      3.493185
     128A      3.512383   129A      3.528371   130A      3.574972
     131A      3.581201   132A      3.582280   133A      3.670312
     134A      3.671989   135A      3.692943   136A      3.725584
     137A      3.725947   138A      3.781170   139A      3.781479
     140A      3.817671   141A      3.921388   142A      3.922697
     143A      4.045314   144A      4.117275   145A      4.119002
     146A      4.154528   147A      4.156031   148A      4.187348
     149A      4.207766   150A      4.209680   151A      4.211093
     152A      4.215525   153A      4.322382   154A      4.324491
     155A      4.362342   156A      4.432068   157A      4.433293
     158A      4.446332   159A      4.523377   160A      4.525896
     161A      4.588723   162A      4.589001   163A      4.624768
     164A      4.719776   165A      4.780483   166A      4.782644
     167A      4.839822   168A      4.967664   169A      5.006191
     170A      5.007797   171A      5.233209   172A      5.246507
     173A      5.251142   174A      5.360284   175A      5.363771
     176A      5.481764

    Final Occupation by Irrep:
              A
    DOCC [    16 ]
    SOCC [     1 ]

  @DF-UKS Final Energy:  -157.81305032337644

   => Energetics <=

    Nuclear Repulsion Energy =            125.3946714380197847
    One-Electron Energy =                -458.7489486665813274
    Two-Electron Energy =                 195.8483760606240480
    DFT Exchange-Correlation Energy =     -20.3071491554389425
    Empirical Dispersion Energy =           0.0000000000000000
    VV10 Nonlocal Energy =                  0.0000000000000000
    Total Energy =                       -157.8130503233764443

  UHF NO Occupations:
  HONO-2 :   15  A 1.9996008
  HONO-1 :   16  A 1.9989804
  HONO-0 :   17  A 1.0000000
  LUNO+0 :   18  A 0.0010196
  LUNO+1 :   19  A 0.0003992
  LUNO+2 :   20  A 0.0001976
  LUNO+3 :   21  A 0.0001975

Computation Completed

Properties will be evaluated at   0.000000,   0.000000,   0.000000 [a0]

Properties computed using the SCF density matrix

  Nuclear Dipole Moment: [e a0]
     X:     0.8272      Y:    -0.0017      Z:    -0.0032

  Electronic Dipole Moment: [e a0]
     X:    -0.7493      Y:     0.0023      Z:     0.0049

  Dipole Moment: [e a0]
     X:     0.0779      Y:     0.0006      Z:     0.0017     Total:     0.0779

  Dipole Moment: [D]
     X:     0.1980      Y:     0.0016      Z:     0.0044     Total:     0.1981

*** tstop() called on n091 at Fri Nov  5 14:13:30 2021
Module time:
	user time   =     464.53 seconds =       7.74 minutes
	system time =       4.35 seconds =       0.07 minutes
	total time  =        118 seconds =       1.97 minutes
Total time:
	user time   =     464.53 seconds =       7.74 minutes
	system time =       4.35 seconds =       0.07 minutes
	total time  =        118 seconds =       1.97 minutes
Grab this energy -157.81305032337644
    Psi4 stopped on: Friday, 05 November 2021 02:13PM
    Psi4 wall time for execution: 0:01:58.01

*** Psi4 exiting successfully. Buy a developer a beer!
