                               Psi4 1.4a2.dev629

  ==> Input File <==

--------------------------------------------------------------------------
import os
memory 14 GB

molecule {
 C   -0.3233397409   -0.0002488237   -0.0000012134
 C    0.0605844240   -1.4008381590   -2.4264738938
 C    0.0621329579    2.8016351773   -0.0000477524
 C    0.0605852688   -1.4007576229    2.4265233449
 H    2.0853096448   -1.6452172392   -2.8432788169
 H   -0.7630453950   -0.3882114481   -4.0285660497
 H   -0.7695665117   -3.2910795196   -2.3502830749
 H    2.0900296516    3.2942048429   -0.0046544639
 H   -0.7599942664    3.6766946050    1.6783707187
 H   -0.7680074785    3.6771560787   -1.6743890086
 H    2.0853064967   -1.6371543551    2.8479336832
 H   -0.7615370852   -3.2943086516    2.3479031358
 H   -0.7710658428   -0.3918991985    4.0269633911
units bohr
0 2
}

basis {

assign 6-31g_2dfp_

[ 6-31g_2dfp_ ]

spherical

!----------------------------------------------------------------------
! Basis Set Exchange
! Version v0.8.13
! https://www.basissetexchange.org
!----------------------------------------------------------------------
!   Basis set: 6-31G(2df,p)
! Description: 6-31G(2df,p)
!        Role: orbital
!     Version: 0  (Data from the original Basis Set Exchange)
!----------------------------------------------------------------------

****
H     0
S    3   1.00
     18.7311370              0.03349460
      2.8253937              0.23472695
      0.6401217              0.81375733
S    1   1.00
      0.1612778              1.00000000
P    1   1.00
      1.5000000              1.0000000
P    1   1.00
      0.3750000              1.0000000
****
B     0
S    6   1.00
   2068.8823000              0.0018663
    310.6495700              0.0142515
     70.6830330              0.0695516
     19.8610800              0.2325729
      6.2993048              0.4670787
      2.1270270              0.3634314
SP   3   1.00
      4.7279710             -0.1303938              0.0745976
      1.1903377             -0.1307889              0.3078467
      0.3594117              1.1309444              0.7434568
SP   1   1.00
      0.1267512              1.0000000              1.0000000
D    1   1.00
      0.8020000              1.0000000
D    1   1.00
      0.2005000              1.0000000
F    1   1.00
      0.5000000              1.0000000
****
C     0
S    6   1.00
   3047.5249000              0.0018347
    457.3695100              0.0140373
    103.9486900              0.0688426
     29.2101550              0.2321844
      9.2866630              0.4679413
      3.1639270              0.3623120
SP   3   1.00
      7.8682724             -0.1193324              0.0689991
      1.8812885             -0.1608542              0.3164240
      0.5442493              1.1434564              0.7443083
SP   1   1.00
      0.1687144              1.0000000              1.0000000
D    1   1.00
      1.2520000              1.0000000
D    1   1.00
      0.3130000              1.0000000
F    1   1.00
      0.8000000              1.0000000
****
N     0
S    6   1.00
   4173.5110000              0.0018348
    627.4579000              0.0139950
    142.9021000              0.0685870
     40.2343300              0.2322410
     12.8202100              0.4690700
      4.3904370              0.3604550
SP   3   1.00
     11.6263580             -0.1149610              0.0675800
      2.7162800             -0.1691180              0.3239070
      0.7722180              1.1458520              0.7408950
SP   1   1.00
      0.2120313              1.0000000              1.0000000
D    1   1.00
      1.8260000              1.0000000
D    1   1.00
      0.4565000              1.0000000
F    1   1.00
      1.0000000              1.0000000
****
O     0
S    6   1.00
   5484.6717000              0.0018311
    825.2349500              0.0139501
    188.0469600              0.0684451
     52.9645000              0.2327143
     16.8975700              0.4701930
      5.7996353              0.3585209
SP   3   1.00
     15.5396160             -0.1107775              0.0708743
      3.5999336             -0.1480263              0.3397528
      1.0137618              1.1307670              0.7271586
SP   1   1.00
      0.2700058              1.0000000              1.0000000
D    1   1.00
      2.5840000              1.0000000
D    1   1.00
      0.6460000              1.0000000
F    1   1.00
      1.4000000              1.0000000
****
F     0
S    6   1.00
   7001.7130900              0.0018196169
   1051.3660900              0.0139160796
    239.2856900              0.0684053245
     67.3974453              0.233185760
     21.5199573              0.471267439
      7.40310130             0.356618546
SP   3   1.00
     20.8479528             -0.108506975            0.0716287243
      4.80830834            -0.146451658            0.3459121030
      1.34406986             1.128688580            0.7224699570
SP   1   1.00
      0.358151393            1.0000000              1.0000000
D    1   1.00
      3.5000000              1.0000000
D    1   1.00
      0.8750000              1.0000000
F    1   1.00
      1.8500000              1.0000000
****
Al     0
S    6   1.00
  13983.1000000              0.00194267
   2098.7500000              0.0148599
    477.7050000              0.0728494
    134.3600000              0.2468300
     42.8709000              0.4872580
     14.5189000              0.3234960
SP   6   1.00
    239.6680000             -0.00292619             0.00460285
     57.4419000             -0.0374080              0.0331990
     18.2859000             -0.1144870              0.1362820
      6.5991400              0.1156350              0.3304760
      2.4904900              0.6125950              0.4491460
      0.9445400              0.3937990              0.2657040
SP   3   1.00
      1.2779000             -0.2276060             -0.0175130
      0.3975900              0.00144583             0.2445330
      0.1600950              1.0927900              0.8049340
SP   1   1.00
      0.0556577              1.0000000              1.0000000
D    1   1.00
      0.6500000              1.0000000
D    1   1.00
      0.1625000              1.0000000
F    1   1.00
      0.2500000              1.0000000
****
Si     0
S    6   1.00
  16115.9000000              0.00195948
   2425.5800000              0.01492880
    553.8670000              0.07284780
    156.3400000              0.24613000
     50.0683000              0.48591400
     17.0178000              0.32500200
SP   6   1.00
    292.7180000             -0.00278094             0.00443826
     69.8731000             -0.03571460             0.03266790
     22.3363000             -0.11498500             0.13472100
      8.1503900              0.09356340             0.32867800
      3.1345800              0.60301700             0.44964000
      1.2254300              0.41895900             0.26137200
SP   3   1.00
      1.7273800             -0.24463000            -0.01779510
      0.5729220              0.00431572             0.25353900
      0.2221920              1.09818000             0.80066900
SP   1   1.00
      0.0778369              1.00000000             1.00000000
D    1   1.00
      0.9000000              1.0000000
D    1   1.00
      0.2250000              1.0000000
F    1   1.00
      0.3200000              1.0000000
****
P     0
S    6   1.00
  19413.3000000              0.0018516
   2909.4200000              0.0142062
    661.3640000              0.0699995
    185.7590000              0.2400790
     59.1943000              0.4847620
     20.0310000              0.3352000
SP   6   1.00
    339.4780000             -0.00278217             0.00456462
     81.0101000             -0.0360499              0.03369360
     25.8780000             -0.1166310              0.13975500
      9.4522100              0.0968328              0.33936200
      3.6656600              0.6144180              0.45092100
      1.4674600              0.4037980              0.23858600
SP   3   1.00
      2.1562300             -0.2529230             -0.01776530
      0.7489970              0.0328517              0.27405800
      0.2831450              1.0812500              0.78542100
SP   1   1.00
      0.0998317              1.0000000              1.00000000
D    1   1.00
      1.1000000              1.0000000
D    1   1.00
      0.2750000              1.0000000
F    1   1.00
      0.4500000              1.0000000
****
S     0
S    6   1.00
  21917.1000000              0.0018690
   3301.4900000              0.0142300
    754.1460000              0.0696960
    212.7110000              0.2384870
     67.9896000              0.4833070
     23.0515000              0.3380740
SP   6   1.00
    423.7350000             -0.0023767              0.0040610
    100.7100000             -0.0316930              0.0306810
     32.1599000             -0.1133170              0.1304520
     11.8079000              0.0560900              0.3272050
      4.6311000              0.5922550              0.4528510
      1.8702500              0.4550060              0.2560420
SP   3   1.00
      2.6158400             -0.2503740             -0.0145110
      0.9221670              0.0669570              0.3102630
      0.3412870              1.0545100              0.7544830
SP   1   1.00
      0.1171670              1.0000000              1.0000000
D    1   1.00
      1.3000000              1.0000000
D    1   1.00
      0.3250000              1.0000000
F    1   1.00
      0.5500000              1.0000000
****
Cl     0
S    6   1.00
  25180.1000000              0.0018330
   3780.3500000              0.0140340
    860.4740000              0.0690970
    242.1450000              0.2374520
     77.3349000              0.4830340
     26.2470000              0.3398560
SP   6   1.00
    491.7650000             -0.0022974              0.0039894
    116.9840000             -0.0307140              0.0303180
     37.4153000             -0.1125280              0.1298800
     13.7834000              0.0450160              0.3279510
      5.4521500              0.5893530              0.4535270
      2.2258800              0.4652060              0.2521540
SP   3   1.00
      3.1864900             -0.2518300             -0.0142990
      1.1442700              0.0615890              0.3235720
      0.4203770              1.0601800              0.7435070
SP   1   1.00
      0.1426570              1.0000000              1.0000000
D    1   1.00
      1.5000000              1.0000000
D    1   1.00
      0.3750000              1.0000000
F    1   1.00
      0.7000000              1.0000000
****
}

set {
reference uhf
freeze_core true
e_convergence 10
d_convergence 10
dft_spherical_points 1202
dft_radial_points 99
}

e = energy('b3lyp')

print_out('Grab this energy {0}'.format(e))
--------------------------------------------------------------------------

    Molecular point group: c1

    Geometry (in Bohr), charge = 0, multiplicity = 2:

       Center              X                  Y                   Z               Mass
    ------------   -----------------  -----------------  -----------------  -----------------
         C           -0.323340298429    -0.000208056936    -0.000001306874    12.000000000000
         C            0.060583866471    -1.400797392236    -2.426473987274    12.000000000000
         C            0.062132400371     2.801675944064    -0.000047845874    12.000000000000
         C            0.060584711271    -1.400716856136     2.426523251426    12.000000000000
         H            2.085309087271    -1.645176472436    -2.843278910374     1.007825032230
         H           -0.763045952529    -0.388170681336    -4.028566143174     1.007825032230
         H           -0.769567069229    -3.291038752836    -2.350283168374     1.007825032230
         H            2.090029094071     3.294245609664    -0.004654557374     1.007825032230
         H           -0.759994823929     3.676735371764     1.678370625226     1.007825032230
         H           -0.768008036029     3.677196845464    -1.674389102074     1.007825032230
         H            2.085305939171    -1.637113588336     2.847933589726     1.007825032230
         H           -0.761537642729    -3.294267884836     2.347903042326     1.007825032230
         H           -0.771066400329    -0.391858431736     4.026963297626     1.007825032230

  Charge       = 0
  Multiplicity = 2
  Basis Set: ANONYMOUS640DFE3A
    Blend: 6-31G_2DFP_
  Basis Set: (ANONYMOUS640DFE3A AUX)
    Blend: DEF2-UNIVERSAL-JKFIT

    Orbital Energies [Eh]
    ---------------------

    Alpha Occupied:

       1A    -10.180342     2A    -10.167047     3A    -10.167027
       4A    -10.166971     5A     -0.797766     6A     -0.686216
       7A     -0.686158     8A     -0.530775     9A     -0.441125
      10A     -0.434759    11A     -0.434584    12A     -0.382823
      13A     -0.382373    14A     -0.363611    15A     -0.338152
      16A     -0.337846    17A     -0.168961

    Alpha Virtual:

      18A      0.076073    19A      0.134106    20A      0.134205
      21A      0.142422    22A      0.142834    23A      0.154880
      24A      0.178638    25A      0.178913    26A      0.203550
      27A      0.214802    28A      0.275966    29A      0.276006
      30A      0.399105    31A      0.399351    32A      0.403345
      33A      0.423995    34A      0.424200    35A      0.456594
      36A      0.495379    37A      0.495399    38A      0.512148
      39A      0.513995    40A      0.578692    41A      0.578931
      42A      0.591358    43A      0.591892    44A      0.602599
      45A      0.624762    46A      0.631752    47A      0.636028
      48A      0.636490    49A      0.663372    50A      0.663454
      51A      0.683738    52A      0.683964    53A      0.734993
      54A      0.825349    55A      0.825466    56A      0.853914
      57A      0.914705    58A      0.915339    59A      0.943998
      60A      0.944716    61A      0.961230    62A      0.961386
      63A      1.003463    64A      1.127712    65A      1.128508
      66A      1.142207    67A      1.163115    68A      1.163436
      69A      1.223325    70A      1.274386    71A      1.274573
      72A      1.279368    73A      1.324291    74A      1.324421
      75A      1.355960    76A      1.366045    77A      1.366070
      78A      1.392467    79A      1.403556    80A      1.404537
      81A      1.416777    82A      1.417432    83A      1.427922
      84A      1.491474    85A      1.499085    86A      1.542815
      87A      1.542855    88A      1.573959    89A      1.574943
      90A      1.669830    91A      1.739305    92A      1.739519
      93A      1.768329    94A      1.830967    95A      1.831831
      96A      1.971719    97A      2.018301    98A      2.018965
      99A      2.019132   100A      2.052180   101A      2.053097
     102A      2.738479   103A      2.738497   104A      2.790919
     105A      2.811429   106A      2.889796   107A      2.890080
     108A      2.894979   109A      2.929185   110A      2.929804
     111A      2.958988   112A      2.964211   113A      2.964549
     114A      3.034002   115A      3.070650   116A      3.071919
     117A      3.084351   118A      3.168560   119A      3.169007
     120A      3.180579   121A      3.285198   122A      3.285431
     123A      3.326289   124A      3.328041   125A      3.375620
     126A      3.489107   127A      3.491219   128A      3.513992
     129A      3.525341   130A      3.568157   131A      3.568482
     132A      3.575297   133A      3.665904   134A      3.666845
     135A      3.679663   136A      3.693462   137A      3.694766
     138A      3.776743   139A      3.776847   140A      3.789172
     141A      3.912100   142A      3.912354   143A      4.034451
     144A      4.111239   145A      4.111500   146A      4.148079
     147A      4.148157   148A      4.173246   149A      4.202349
     150A      4.202715   151A      4.203748   152A      4.210838
     153A      4.315762   154A      4.316166   155A      4.358975
     156A      4.424370   157A      4.424566   158A      4.443407
     159A      4.516168   160A      4.517478   161A      4.578257
     162A      4.578303   163A      4.617581   164A      4.709392
     165A      4.774022   166A      4.775174   167A      4.836911
     168A      4.962865   169A      5.002413   170A      5.003493
     171A      5.228067   172A      5.246261   173A      5.247359
     174A      5.355460   175A      5.355552   176A      5.479344

    Beta Occupied:

       1A    -10.167798     2A    -10.167784     3A    -10.167741
       4A    -10.166520     5A     -0.781091     6A     -0.684014
       7A     -0.683965     8A     -0.511747     9A     -0.431141
      10A     -0.430944    11A     -0.421823    12A     -0.376915
      13A     -0.376451    14A     -0.362595    15A     -0.333264
      16A     -0.332981

    Beta Virtual:

      17A     -0.025742    18A      0.077082    19A      0.135003
      20A      0.135087    21A      0.144315    22A      0.144682
      23A      0.163339    24A      0.182305    25A      0.182589
      26A      0.215030    27A      0.218932    28A      0.282309
      29A      0.282358    30A      0.400278    31A      0.400516
      32A      0.419792    33A      0.426805    34A      0.427013
      35A      0.468502    36A      0.497638    37A      0.497663
      38A      0.513896    39A      0.556326    40A      0.584236
      41A      0.584488    42A      0.597536    43A      0.598077
      44A      0.610017    45A      0.628138    46A      0.631918
      47A      0.639318    48A      0.639763    49A      0.666927
      50A      0.667026    51A      0.686389    52A      0.686583
      53A      0.757517    54A      0.830520    55A      0.830631
      56A      0.855267    57A      0.922704    58A      0.923285
      59A      0.945929    60A      0.953549    61A      0.966550
      62A      0.966677    63A      1.008703    64A      1.131784
      65A      1.132491    66A      1.155579    67A      1.168155
      68A      1.168549    69A      1.232297    70A      1.279997
      71A      1.280159    72A      1.285120    73A      1.329274
      74A      1.329415    75A      1.365357    76A      1.371271
      77A      1.371346    78A      1.393531    79A      1.407015
      80A      1.408008    81A      1.421833    82A      1.422462
      83A      1.428205    84A      1.492536    85A      1.509512
      86A      1.547125    87A      1.547368    88A      1.581740
      89A      1.582901    90A      1.674676    91A      1.745071
      92A      1.745277    93A      1.779108    94A      1.834827
      95A      1.835682    96A      1.972579    97A      2.025388
      98A      2.025515    99A      2.039672   100A      2.058884
     101A      2.059823   102A      2.746803   103A      2.746845
     104A      2.811794   105A      2.816102   106A      2.902460
     107A      2.902820   108A      2.924657   109A      2.931681
     110A      2.932272   111A      2.960055   112A      2.968751
     113A      2.969093   114A      3.041936   115A      3.080516
     116A      3.081872   117A      3.086168   118A      3.184312
     119A      3.184765   120A      3.188252   121A      3.289959
     122A      3.290267   123A      3.330104   124A      3.331836
     125A      3.383438   126A      3.491860   127A      3.493926
     128A      3.512361   129A      3.528382   130A      3.574897
     131A      3.581607   132A      3.581970   133A      3.670672
     134A      3.671573   135A      3.692950   136A      3.725349
     137A      3.726160   138A      3.781296   139A      3.781356
     140A      3.817701   141A      3.921911   142A      3.922176
     143A      4.045339   144A      4.118085   145A      4.118287
     146A      4.155205   147A      4.155447   148A      4.187306
     149A      4.208653   150A      4.209146   151A      4.210855
     152A      4.215311   153A      4.323232   154A      4.323579
     155A      4.362336   156A      4.432575   157A      4.432793
     158A      4.446288   159A      4.523968   160A      4.525260
     161A      4.588843   162A      4.588920   163A      4.624774
     164A      4.719735   165A      4.780947   166A      4.782156
     167A      4.839828   168A      4.967660   169A      5.006468
     170A      5.007516   171A      5.233783   172A      5.248047
     173A      5.249141   174A      5.361948   175A      5.362025
     176A      5.481665

    Final Occupation by Irrep:
              A
    DOCC [    16 ]
    SOCC [     1 ]

  @DF-UKS Final Energy:  -157.81306781702102

   => Energetics <=

    Nuclear Repulsion Energy =            125.3945923334023860
    One-Electron Energy =                -458.7488443859489848
    Two-Electron Energy =                 195.8483267922605933
    DFT Exchange-Correlation Energy =     -20.3071425567350303
    Empirical Dispersion Energy =           0.0000000000000000
    VV10 Nonlocal Energy =                  0.0000000000000000
    Total Energy =                       -157.8130678170210217

  UHF NO Occupations:
  HONO-2 :   15  A 1.9996009
  HONO-1 :   16  A 1.9989805
  HONO-0 :   17  A 1.0000000
  LUNO+0 :   18  A 0.0010195
  LUNO+1 :   19  A 0.0003991
  LUNO+2 :   20  A 0.0001977
  LUNO+3 :   21  A 0.0001974

Computation Completed

Properties will be evaluated at   0.000000,   0.000000,   0.000000 [a0]

Properties computed using the SCF density matrix

  Nuclear Dipole Moment: [e a0]
     X:     0.8272      Y:     0.0003      Z:    -0.0000

  Electronic Dipole Moment: [e a0]
     X:    -0.7493      Y:    -0.0010      Z:     0.0000

  Dipole Moment: [e a0]
     X:     0.0779      Y:    -0.0008      Z:     0.0000     Total:     0.0779

  Dipole Moment: [D]
     X:     0.1980      Y:    -0.0020      Z:     0.0000     Total:     0.1980

*** tstop() called on n079 at Fri Nov  5 15:22:46 2021
Module time:
	user time   =     466.15 seconds =       7.77 minutes
	system time =       4.61 seconds =       0.08 minutes
	total time  =        119 seconds =       1.98 minutes
Total time:
	user time   =     466.15 seconds =       7.77 minutes
	system time =       4.61 seconds =       0.08 minutes
	total time  =        119 seconds =       1.98 minutes
Grab this energy -157.81306781702102
    Psi4 stopped on: Friday, 05 November 2021 03:22PM
    Psi4 wall time for execution: 0:01:58.42

*** Psi4 exiting successfully. Buy a developer a beer!
