                               Psi4 1.4a2.dev629

  ==> Input File <==

--------------------------------------------------------------------------
import os
memory 14 GB

molecule {
 C   -0.3215609261   -0.0000024020    0.0019968376
 C    0.0618325473   -1.4016153616   -2.4265044657
 C    0.0615780629    2.8015011351    0.0011541927
 C    0.0615645422   -1.3998822906    2.4258111145
 H    2.0863945143   -1.6508696139   -2.8550856077
 H   -0.7655564900   -0.3837069588   -4.0208919497
 H   -0.7671040942   -3.2924108077   -2.3480497208
 H    2.0864598174    3.2941378845    0.0040888158
 H   -0.7674335059    3.6826497470    1.6762600772
 H   -0.7646705187    3.6714009282   -1.6778421825
 H    2.0868044066   -1.6433552098    2.8502480240
 H   -0.7648504032   -3.2893280696    2.3437781688
 H   -0.7660658293   -0.3885432943    4.0250366958
units bohr
0 2
}

basis {

assign 6-31g_2dfp_

[ 6-31g_2dfp_ ]

spherical

!----------------------------------------------------------------------
! Basis Set Exchange
! Version v0.8.13
! https://www.basissetexchange.org
!----------------------------------------------------------------------
!   Basis set: 6-31G(2df,p)
! Description: 6-31G(2df,p)
!        Role: orbital
!     Version: 0  (Data from the original Basis Set Exchange)
!----------------------------------------------------------------------

****
H     0
S    3   1.00
     18.7311370              0.03349460
      2.8253937              0.23472695
      0.6401217              0.81375733
S    1   1.00
      0.1612778              1.00000000
P    1   1.00
      1.5000000              1.0000000
P    1   1.00
      0.3750000              1.0000000
****
B     0
S    6   1.00
   2068.8823000              0.0018663
    310.6495700              0.0142515
     70.6830330              0.0695516
     19.8610800              0.2325729
      6.2993048              0.4670787
      2.1270270              0.3634314
SP   3   1.00
      4.7279710             -0.1303938              0.0745976
      1.1903377             -0.1307889              0.3078467
      0.3594117              1.1309444              0.7434568
SP   1   1.00
      0.1267512              1.0000000              1.0000000
D    1   1.00
      0.8020000              1.0000000
D    1   1.00
      0.2005000              1.0000000
F    1   1.00
      0.5000000              1.0000000
****
C     0
S    6   1.00
   3047.5249000              0.0018347
    457.3695100              0.0140373
    103.9486900              0.0688426
     29.2101550              0.2321844
      9.2866630              0.4679413
      3.1639270              0.3623120
SP   3   1.00
      7.8682724             -0.1193324              0.0689991
      1.8812885             -0.1608542              0.3164240
      0.5442493              1.1434564              0.7443083
SP   1   1.00
      0.1687144              1.0000000              1.0000000
D    1   1.00
      1.2520000              1.0000000
D    1   1.00
      0.3130000              1.0000000
F    1   1.00
      0.8000000              1.0000000
****
N     0
S    6   1.00
   4173.5110000              0.0018348
    627.4579000              0.0139950
    142.9021000              0.0685870
     40.2343300              0.2322410
     12.8202100              0.4690700
      4.3904370              0.3604550
SP   3   1.00
     11.6263580             -0.1149610              0.0675800
      2.7162800             -0.1691180              0.3239070
      0.7722180              1.1458520              0.7408950
SP   1   1.00
      0.2120313              1.0000000              1.0000000
D    1   1.00
      1.8260000              1.0000000
D    1   1.00
      0.4565000              1.0000000
F    1   1.00
      1.0000000              1.0000000
****
O     0
S    6   1.00
   5484.6717000              0.0018311
    825.2349500              0.0139501
    188.0469600              0.0684451
     52.9645000              0.2327143
     16.8975700              0.4701930
      5.7996353              0.3585209
SP   3   1.00
     15.5396160             -0.1107775              0.0708743
      3.5999336             -0.1480263              0.3397528
      1.0137618              1.1307670              0.7271586
SP   1   1.00
      0.2700058              1.0000000              1.0000000
D    1   1.00
      2.5840000              1.0000000
D    1   1.00
      0.6460000              1.0000000
F    1   1.00
      1.4000000              1.0000000
****
F     0
S    6   1.00
   7001.7130900              0.0018196169
   1051.3660900              0.0139160796
    239.2856900              0.0684053245
     67.3974453              0.233185760
     21.5199573              0.471267439
      7.40310130             0.356618546
SP   3   1.00
     20.8479528             -0.108506975            0.0716287243
      4.80830834            -0.146451658            0.3459121030
      1.34406986             1.128688580            0.7224699570
SP   1   1.00
      0.358151393            1.0000000              1.0000000
D    1   1.00
      3.5000000              1.0000000
D    1   1.00
      0.8750000              1.0000000
F    1   1.00
      1.8500000              1.0000000
****
Al     0
S    6   1.00
  13983.1000000              0.00194267
   2098.7500000              0.0148599
    477.7050000              0.0728494
    134.3600000              0.2468300
     42.8709000              0.4872580
     14.5189000              0.3234960
SP   6   1.00
    239.6680000             -0.00292619             0.00460285
     57.4419000             -0.0374080              0.0331990
     18.2859000             -0.1144870              0.1362820
      6.5991400              0.1156350              0.3304760
      2.4904900              0.6125950              0.4491460
      0.9445400              0.3937990              0.2657040
SP   3   1.00
      1.2779000             -0.2276060             -0.0175130
      0.3975900              0.00144583             0.2445330
      0.1600950              1.0927900              0.8049340
SP   1   1.00
      0.0556577              1.0000000              1.0000000
D    1   1.00
      0.6500000              1.0000000
D    1   1.00
      0.1625000              1.0000000
F    1   1.00
      0.2500000              1.0000000
****
Si     0
S    6   1.00
  16115.9000000              0.00195948
   2425.5800000              0.01492880
    553.8670000              0.07284780
    156.3400000              0.24613000
     50.0683000              0.48591400
     17.0178000              0.32500200
SP   6   1.00
    292.7180000             -0.00278094             0.00443826
     69.8731000             -0.03571460             0.03266790
     22.3363000             -0.11498500             0.13472100
      8.1503900              0.09356340             0.32867800
      3.1345800              0.60301700             0.44964000
      1.2254300              0.41895900             0.26137200
SP   3   1.00
      1.7273800             -0.24463000            -0.01779510
      0.5729220              0.00431572             0.25353900
      0.2221920              1.09818000             0.80066900
SP   1   1.00
      0.0778369              1.00000000             1.00000000
D    1   1.00
      0.9000000              1.0000000
D    1   1.00
      0.2250000              1.0000000
F    1   1.00
      0.3200000              1.0000000
****
P     0
S    6   1.00
  19413.3000000              0.0018516
   2909.4200000              0.0142062
    661.3640000              0.0699995
    185.7590000              0.2400790
     59.1943000              0.4847620
     20.0310000              0.3352000
SP   6   1.00
    339.4780000             -0.00278217             0.00456462
     81.0101000             -0.0360499              0.03369360
     25.8780000             -0.1166310              0.13975500
      9.4522100              0.0968328              0.33936200
      3.6656600              0.6144180              0.45092100
      1.4674600              0.4037980              0.23858600
SP   3   1.00
      2.1562300             -0.2529230             -0.01776530
      0.7489970              0.0328517              0.27405800
      0.2831450              1.0812500              0.78542100
SP   1   1.00
      0.0998317              1.0000000              1.00000000
D    1   1.00
      1.1000000              1.0000000
D    1   1.00
      0.2750000              1.0000000
F    1   1.00
      0.4500000              1.0000000
****
S     0
S    6   1.00
  21917.1000000              0.0018690
   3301.4900000              0.0142300
    754.1460000              0.0696960
    212.7110000              0.2384870
     67.9896000              0.4833070
     23.0515000              0.3380740
SP   6   1.00
    423.7350000             -0.0023767              0.0040610
    100.7100000             -0.0316930              0.0306810
     32.1599000             -0.1133170              0.1304520
     11.8079000              0.0560900              0.3272050
      4.6311000              0.5922550              0.4528510
      1.8702500              0.4550060              0.2560420
SP   3   1.00
      2.6158400             -0.2503740             -0.0145110
      0.9221670              0.0669570              0.3102630
      0.3412870              1.0545100              0.7544830
SP   1   1.00
      0.1171670              1.0000000              1.0000000
D    1   1.00
      1.3000000              1.0000000
D    1   1.00
      0.3250000              1.0000000
F    1   1.00
      0.5500000              1.0000000
****
Cl     0
S    6   1.00
  25180.1000000              0.0018330
   3780.3500000              0.0140340
    860.4740000              0.0690970
    242.1450000              0.2374520
     77.3349000              0.4830340
     26.2470000              0.3398560
SP   6   1.00
    491.7650000             -0.0022974              0.0039894
    116.9840000             -0.0307140              0.0303180
     37.4153000             -0.1125280              0.1298800
     13.7834000              0.0450160              0.3279510
      5.4521500              0.5893530              0.4535270
      2.2258800              0.4652060              0.2521540
SP   3   1.00
      3.1864900             -0.2518300             -0.0142990
      1.1442700              0.0615890              0.3235720
      0.4203770              1.0601800              0.7435070
SP   1   1.00
      0.1426570              1.0000000              1.0000000
D    1   1.00
      1.5000000              1.0000000
D    1   1.00
      0.3750000              1.0000000
F    1   1.00
      0.7000000              1.0000000
****
}

set {
reference uhf
freeze_core true
e_convergence 10
d_convergence 10
dft_spherical_points 1202
dft_radial_points 99
}

e = energy('b3lyp')

print_out('Grab this energy {0}'.format(e))
--------------------------------------------------------------------------

    Molecular point group: c1

    Geometry (in Bohr), charge = 0, multiplicity = 2:

       Center              X                  Y                   Z               Mass
    ------------   -----------------  -----------------  -----------------  -----------------
         C           -0.322226232046    -0.000002180829     0.001523470904    12.000000000000
         C            0.061167241354    -1.401615140429    -2.426977832396    12.000000000000
         C            0.060912756954     2.801501356271     0.000680826004    12.000000000000
         C            0.060899236254    -1.399882069429     2.425337747804    12.000000000000
         H            2.085729208354    -1.650869392729    -2.855558974396     1.007825032230
         H           -0.766221795946    -0.383706737629    -4.021365316396     1.007825032230
         H           -0.767769400146    -3.292410586529    -2.348523087496     1.007825032230
         H            2.085794511454     3.294138105671     0.003615449104     1.007825032230
         H           -0.768098811846     3.682649968171     1.675786710504     1.007825032230
         H           -0.765335824646     3.671401149371    -1.678315549196     1.007825032230
         H            2.086139100654    -1.643354988629     2.849774657304     1.007825032230
         H           -0.765515709146    -3.289327848429     2.343304802104     1.007825032230
         H           -0.766731135246    -0.388543073129     4.024563329104     1.007825032230

  Charge       = 0
  Multiplicity = 2
  Basis Set: ANONYMOUSA391CFD9
    Blend: 6-31G_2DFP_
  Basis Set: (ANONYMOUSA391CFD9 AUX)
    Blend: DEF2-UNIVERSAL-JKFIT

    Orbital Energies [Eh]
    ---------------------

    Alpha Occupied:

       1A    -10.180329     2A    -10.167128     3A    -10.166969
       4A    -10.166808     5A     -0.797832     6A     -0.686346
       7A     -0.686102     8A     -0.530788     9A     -0.440959
      10A     -0.434951    11A     -0.434810    12A     -0.382481
      13A     -0.382413    14A     -0.363750    15A     -0.338086
      16A     -0.337953    17A     -0.169050

    Alpha Virtual:

      18A      0.076108    19A      0.134075    20A      0.134139
      21A      0.142634    22A      0.142754    23A      0.155085
      24A      0.178700    25A      0.178785    26A      0.203680
      27A      0.215026    28A      0.275756    29A      0.276293
      30A      0.399415    31A      0.399488    32A      0.403278
      33A      0.423890    34A      0.424002    35A      0.456829
      36A      0.495307    37A      0.495425    38A      0.511971
      39A      0.514037    40A      0.578678    41A      0.579248
      42A      0.591154    43A      0.591745    44A      0.602344
      45A      0.624822    46A      0.632028    47A      0.636303
      48A      0.636383    49A      0.663656    50A      0.663721
      51A      0.683740    52A      0.683797    53A      0.735076
      54A      0.825088    55A      0.825522    56A      0.854261
      57A      0.915031    58A      0.915304    59A      0.943814
      60A      0.944347    61A      0.960324    62A      0.961702
      63A      1.004188    64A      1.128343    65A      1.128776
      66A      1.141615    67A      1.163724    68A      1.163926
      69A      1.223256    70A      1.274313    71A      1.274614
      72A      1.279578    73A      1.324623    74A      1.324631
      75A      1.355580    76A      1.366226    77A      1.366538
      78A      1.392260    79A      1.403451    80A      1.404083
      81A      1.416572    82A      1.417372    83A      1.428525
      84A      1.492094    85A      1.498761    86A      1.542620
      87A      1.543166    88A      1.573821    89A      1.573842
      90A      1.669900    91A      1.738915    92A      1.739657
      93A      1.768168    94A      1.831188    95A      1.832166
      96A      1.971833    97A      2.017947    98A      2.019885
      99A      2.020053   100A      2.052304   101A      2.053919
     102A      2.737789   103A      2.738350   104A      2.791157
     105A      2.811932   106A      2.889830   107A      2.890363
     108A      2.895239   109A      2.929931   110A      2.929973
     111A      2.959056   112A      2.964279   113A      2.964582
     114A      3.034477   115A      3.070670   116A      3.070936
     117A      3.084001   118A      3.168515   119A      3.168921
     120A      3.180747   121A      3.284865   122A      3.284963
     123A      3.327930   124A      3.328593   125A      3.375327
     126A      3.489513   127A      3.489808   128A      3.514238
     129A      3.525472   130A      3.568576   131A      3.569211
     132A      3.576103   133A      3.666164   134A      3.666471
     135A      3.680707   136A      3.693216   137A      3.694039
     138A      3.776716   139A      3.779210   140A      3.787841
     141A      3.912081   142A      3.912607   143A      4.033344
     144A      4.110200   145A      4.112744   146A      4.147012
     147A      4.148753   148A      4.173215   149A      4.202275
     150A      4.203807   151A      4.203901   152A      4.211356
     153A      4.315486   154A      4.317051   155A      4.360170
     156A      4.423690   157A      4.424211   158A      4.444461
     159A      4.517228   160A      4.518070   161A      4.578917
     162A      4.579572   163A      4.618001   164A      4.709775
     165A      4.773884   166A      4.776015   167A      4.835946
     168A      4.963378   169A      5.002490   170A      5.003193
     171A      5.228402   172A      5.246275   173A      5.247224
     174A      5.355355   175A      5.356799   176A      5.479614

    Beta Occupied:

       1A    -10.167887     2A    -10.167730     3A    -10.167571
       4A    -10.166512     5A     -0.781160     6A     -0.684140
       7A     -0.683911     8A     -0.511756     9A     -0.431308
      10A     -0.431186    11A     -0.421654    12A     -0.376551
      13A     -0.376493    14A     -0.362727    15A     -0.333209
      16A     -0.333084

    Beta Virtual:

      17A     -0.025909    18A      0.077114    19A      0.134987
      20A      0.135035    21A      0.144513    22A      0.144637
      23A      0.163594    24A      0.182383    25A      0.182431
      26A      0.215257    27A      0.219023    28A      0.282103
      29A      0.282620    30A      0.400594    31A      0.400665
      32A      0.419736    33A      0.426695    34A      0.426810
      35A      0.468815    36A      0.497585    37A      0.497697
      38A      0.513711    39A      0.556296    40A      0.584249
      41A      0.584823    42A      0.597321    43A      0.597881
      44A      0.609785    45A      0.628202    46A      0.632189
      47A      0.639562    48A      0.639682    49A      0.667241
      50A      0.667310    51A      0.686335    52A      0.686435
      53A      0.757563    54A      0.830250    55A      0.830728
      56A      0.855617    57A      0.923082    58A      0.923286
      59A      0.946184    60A      0.952820    61A      0.965661
      62A      0.966929    63A      1.009457    64A      1.132300
      65A      1.132881    66A      1.154780    67A      1.168869
      68A      1.168909    69A      1.232327    70A      1.279930
      71A      1.280228    72A      1.285401    73A      1.329644
      74A      1.329668    75A      1.364937    76A      1.371491
      77A      1.371743    78A      1.393335    79A      1.406906
      80A      1.407586    81A      1.421573    82A      1.422367
      83A      1.428796    84A      1.493131    85A      1.509182
      86A      1.547020    87A      1.547569    88A      1.581705
      89A      1.581723    90A      1.674749    91A      1.744671
      92A      1.745429    93A      1.778962    94A      1.835043
      95A      1.836017    96A      1.972699    97A      2.026262
      98A      2.026386    99A      2.039495   100A      2.058975
     101A      2.060646   102A      2.746152   103A      2.746682
     104A      2.812350   105A      2.816295   106A      2.902527
     107A      2.902940   108A      2.924902   109A      2.932439
     110A      2.932456   111A      2.960121   112A      2.968879
     113A      2.969146   114A      3.042403   115A      3.080577
     116A      3.080824   117A      3.085818   118A      3.184228
     119A      3.184699   120A      3.188439   121A      3.289617
     122A      3.289762   123A      3.331726   124A      3.332357
     125A      3.383119   126A      3.492326   127A      3.492587
     128A      3.512614   129A      3.528487   130A      3.575764
     131A      3.581897   132A      3.582621   133A      3.670935
     134A      3.671054   135A      3.693950   136A      3.725290
     137A      3.725509   138A      3.781352   139A      3.783755
     140A      3.816412   141A      3.921867   142A      3.922359
     143A      4.044284   144A      4.117223   145A      4.119539
     146A      4.154116   147A      4.155911   148A      4.187235
     149A      4.209683   150A      4.209800   151A      4.210314
     152A      4.215863   153A      4.322916   154A      4.324528
     155A      4.363559   156A      4.431956   157A      4.432385
     158A      4.447323   159A      4.525016   160A      4.525836
     161A      4.589540   162A      4.590192   163A      4.625122
     164A      4.720224   165A      4.780866   166A      4.782913
     167A      4.838868   168A      4.968169   169A      5.006537
     170A      5.007258   171A      5.234104   172A      5.248055
     173A      5.249020   174A      5.361816   175A      5.363302
     176A      5.481941

    Final Occupation by Irrep:
              A
    DOCC [    16 ]
    SOCC [     1 ]

  @DF-UKS Final Energy:  -157.81307411155436

   => Energetics <=

    Nuclear Repulsion Energy =            125.4062412243132059
    One-Electron Energy =                -458.7715920424952856
    Two-Electron Energy =                 195.8597634767270392
    DFT Exchange-Correlation Energy =     -20.3074867700992954
    Empirical Dispersion Energy =           0.0000000000000000
    VV10 Nonlocal Energy =                  0.0000000000000000
    Total Energy =                       -157.8130741115543572

  UHF NO Occupations:
  HONO-2 :   15  A 1.9995995
  HONO-1 :   16  A 1.9989824
  HONO-0 :   17  A 1.0000000
  LUNO+0 :   18  A 0.0010176
  LUNO+1 :   19  A 0.0004005
  LUNO+2 :   20  A 0.0001976
  LUNO+3 :   21  A 0.0001969

Computation Completed

Properties will be evaluated at   0.000000,   0.000000,   0.000000 [a0]

Properties computed using the SCF density matrix

  Nuclear Dipole Moment: [e a0]
     X:     0.8225      Y:    -0.0000      Z:    -0.0033

  Electronic Dipole Moment: [e a0]
     X:    -0.7450      Y:     0.0000      Z:     0.0034

  Dipole Moment: [e a0]
     X:     0.0775      Y:    -0.0000      Z:     0.0000     Total:     0.0775

  Dipole Moment: [D]
     X:     0.1970      Y:    -0.0000      Z:     0.0001     Total:     0.1970

*** tstop() called on n089 at Fri Nov  5 15:35:13 2021
Module time:
	user time   =     513.61 seconds =       8.56 minutes
	system time =       4.59 seconds =       0.08 minutes
	total time  =        131 seconds =       2.18 minutes
Total time:
	user time   =     513.61 seconds =       8.56 minutes
	system time =       4.59 seconds =       0.08 minutes
	total time  =        131 seconds =       2.18 minutes
Grab this energy -157.81307411155436
    Psi4 stopped on: Friday, 05 November 2021 03:35PM
    Psi4 wall time for execution: 0:02:10.36

*** Psi4 exiting successfully. Buy a developer a beer!
