                               Psi4 1.4a2.dev629

  ==> Input File <==

--------------------------------------------------------------------------
import os
memory 14 GB

molecule {
 C   -0.3233319753    0.0000059642   -0.0052241544
 C    0.0604751926   -1.4057971889   -2.4291757113
 C    0.0610200854    2.8017473697    0.0057455512
 C    0.0618099487   -1.3959323149    2.4235810093
 H    2.0861907143   -1.6532602255   -2.8519851161
 H   -0.7648568611   -0.3979306698   -4.0328359366
 H   -0.7677213062   -3.2979615381   -2.3497347268
 H    2.0867941043    3.2880784405    0.0113257614
 H   -0.7683459697    3.6726281204    1.6860162875
 H   -0.7629551667    3.6878324916   -1.6669465854
 H    2.0876791055   -1.6349286692    2.8428854817
 H   -0.7634193224   -3.2860072754    2.3482430769
 H   -0.7659464260   -0.3784988183    4.0181050626
units bohr
0 2
}

basis {

assign 6-31g_2dfp_

[ 6-31g_2dfp_ ]

spherical

!----------------------------------------------------------------------
! Basis Set Exchange
! Version v0.8.13
! https://www.basissetexchange.org
!----------------------------------------------------------------------
!   Basis set: 6-31G(2df,p)
! Description: 6-31G(2df,p)
!        Role: orbital
!     Version: 0  (Data from the original Basis Set Exchange)
!----------------------------------------------------------------------

****
H     0
S    3   1.00
     18.7311370              0.03349460
      2.8253937              0.23472695
      0.6401217              0.81375733
S    1   1.00
      0.1612778              1.00000000
P    1   1.00
      1.5000000              1.0000000
P    1   1.00
      0.3750000              1.0000000
****
B     0
S    6   1.00
   2068.8823000              0.0018663
    310.6495700              0.0142515
     70.6830330              0.0695516
     19.8610800              0.2325729
      6.2993048              0.4670787
      2.1270270              0.3634314
SP   3   1.00
      4.7279710             -0.1303938              0.0745976
      1.1903377             -0.1307889              0.3078467
      0.3594117              1.1309444              0.7434568
SP   1   1.00
      0.1267512              1.0000000              1.0000000
D    1   1.00
      0.8020000              1.0000000
D    1   1.00
      0.2005000              1.0000000
F    1   1.00
      0.5000000              1.0000000
****
C     0
S    6   1.00
   3047.5249000              0.0018347
    457.3695100              0.0140373
    103.9486900              0.0688426
     29.2101550              0.2321844
      9.2866630              0.4679413
      3.1639270              0.3623120
SP   3   1.00
      7.8682724             -0.1193324              0.0689991
      1.8812885             -0.1608542              0.3164240
      0.5442493              1.1434564              0.7443083
SP   1   1.00
      0.1687144              1.0000000              1.0000000
D    1   1.00
      1.2520000              1.0000000
D    1   1.00
      0.3130000              1.0000000
F    1   1.00
      0.8000000              1.0000000
****
N     0
S    6   1.00
   4173.5110000              0.0018348
    627.4579000              0.0139950
    142.9021000              0.0685870
     40.2343300              0.2322410
     12.8202100              0.4690700
      4.3904370              0.3604550
SP   3   1.00
     11.6263580             -0.1149610              0.0675800
      2.7162800             -0.1691180              0.3239070
      0.7722180              1.1458520              0.7408950
SP   1   1.00
      0.2120313              1.0000000              1.0000000
D    1   1.00
      1.8260000              1.0000000
D    1   1.00
      0.4565000              1.0000000
F    1   1.00
      1.0000000              1.0000000
****
O     0
S    6   1.00
   5484.6717000              0.0018311
    825.2349500              0.0139501
    188.0469600              0.0684451
     52.9645000              0.2327143
     16.8975700              0.4701930
      5.7996353              0.3585209
SP   3   1.00
     15.5396160             -0.1107775              0.0708743
      3.5999336             -0.1480263              0.3397528
      1.0137618              1.1307670              0.7271586
SP   1   1.00
      0.2700058              1.0000000              1.0000000
D    1   1.00
      2.5840000              1.0000000
D    1   1.00
      0.6460000              1.0000000
F    1   1.00
      1.4000000              1.0000000
****
F     0
S    6   1.00
   7001.7130900              0.0018196169
   1051.3660900              0.0139160796
    239.2856900              0.0684053245
     67.3974453              0.233185760
     21.5199573              0.471267439
      7.40310130             0.356618546
SP   3   1.00
     20.8479528             -0.108506975            0.0716287243
      4.80830834            -0.146451658            0.3459121030
      1.34406986             1.128688580            0.7224699570
SP   1   1.00
      0.358151393            1.0000000              1.0000000
D    1   1.00
      3.5000000              1.0000000
D    1   1.00
      0.8750000              1.0000000
F    1   1.00
      1.8500000              1.0000000
****
Al     0
S    6   1.00
  13983.1000000              0.00194267
   2098.7500000              0.0148599
    477.7050000              0.0728494
    134.3600000              0.2468300
     42.8709000              0.4872580
     14.5189000              0.3234960
SP   6   1.00
    239.6680000             -0.00292619             0.00460285
     57.4419000             -0.0374080              0.0331990
     18.2859000             -0.1144870              0.1362820
      6.5991400              0.1156350              0.3304760
      2.4904900              0.6125950              0.4491460
      0.9445400              0.3937990              0.2657040
SP   3   1.00
      1.2779000             -0.2276060             -0.0175130
      0.3975900              0.00144583             0.2445330
      0.1600950              1.0927900              0.8049340
SP   1   1.00
      0.0556577              1.0000000              1.0000000
D    1   1.00
      0.6500000              1.0000000
D    1   1.00
      0.1625000              1.0000000
F    1   1.00
      0.2500000              1.0000000
****
Si     0
S    6   1.00
  16115.9000000              0.00195948
   2425.5800000              0.01492880
    553.8670000              0.07284780
    156.3400000              0.24613000
     50.0683000              0.48591400
     17.0178000              0.32500200
SP   6   1.00
    292.7180000             -0.00278094             0.00443826
     69.8731000             -0.03571460             0.03266790
     22.3363000             -0.11498500             0.13472100
      8.1503900              0.09356340             0.32867800
      3.1345800              0.60301700             0.44964000
      1.2254300              0.41895900             0.26137200
SP   3   1.00
      1.7273800             -0.24463000            -0.01779510
      0.5729220              0.00431572             0.25353900
      0.2221920              1.09818000             0.80066900
SP   1   1.00
      0.0778369              1.00000000             1.00000000
D    1   1.00
      0.9000000              1.0000000
D    1   1.00
      0.2250000              1.0000000
F    1   1.00
      0.3200000              1.0000000
****
P     0
S    6   1.00
  19413.3000000              0.0018516
   2909.4200000              0.0142062
    661.3640000              0.0699995
    185.7590000              0.2400790
     59.1943000              0.4847620
     20.0310000              0.3352000
SP   6   1.00
    339.4780000             -0.00278217             0.00456462
     81.0101000             -0.0360499              0.03369360
     25.8780000             -0.1166310              0.13975500
      9.4522100              0.0968328              0.33936200
      3.6656600              0.6144180              0.45092100
      1.4674600              0.4037980              0.23858600
SP   3   1.00
      2.1562300             -0.2529230             -0.01776530
      0.7489970              0.0328517              0.27405800
      0.2831450              1.0812500              0.78542100
SP   1   1.00
      0.0998317              1.0000000              1.00000000
D    1   1.00
      1.1000000              1.0000000
D    1   1.00
      0.2750000              1.0000000
F    1   1.00
      0.4500000              1.0000000
****
S     0
S    6   1.00
  21917.1000000              0.0018690
   3301.4900000              0.0142300
    754.1460000              0.0696960
    212.7110000              0.2384870
     67.9896000              0.4833070
     23.0515000              0.3380740
SP   6   1.00
    423.7350000             -0.0023767              0.0040610
    100.7100000             -0.0316930              0.0306810
     32.1599000             -0.1133170              0.1304520
     11.8079000              0.0560900              0.3272050
      4.6311000              0.5922550              0.4528510
      1.8702500              0.4550060              0.2560420
SP   3   1.00
      2.6158400             -0.2503740             -0.0145110
      0.9221670              0.0669570              0.3102630
      0.3412870              1.0545100              0.7544830
SP   1   1.00
      0.1171670              1.0000000              1.0000000
D    1   1.00
      1.3000000              1.0000000
D    1   1.00
      0.3250000              1.0000000
F    1   1.00
      0.5500000              1.0000000
****
Cl     0
S    6   1.00
  25180.1000000              0.0018330
   3780.3500000              0.0140340
    860.4740000              0.0690970
    242.1450000              0.2374520
     77.3349000              0.4830340
     26.2470000              0.3398560
SP   6   1.00
    491.7650000             -0.0022974              0.0039894
    116.9840000             -0.0307140              0.0303180
     37.4153000             -0.1125280              0.1298800
     13.7834000              0.0450160              0.3279510
      5.4521500              0.5893530              0.4535270
      2.2258800              0.4652060              0.2521540
SP   3   1.00
      3.1864900             -0.2518300             -0.0142990
      1.1442700              0.0615890              0.3235720
      0.4203770              1.0601800              0.7435070
SP   1   1.00
      0.1426570              1.0000000              1.0000000
D    1   1.00
      1.5000000              1.0000000
D    1   1.00
      0.3750000              1.0000000
F    1   1.00
      0.7000000              1.0000000
****
}

set {
reference uhf
freeze_core true
e_convergence 10
d_convergence 10
dft_spherical_points 1202
dft_radial_points 99
}

e = energy('b3lyp')

print_out('Grab this energy {0}'.format(e))
--------------------------------------------------------------------------

    Molecular point group: c1

    Geometry (in Bohr), charge = 0, multiplicity = 2:

       Center              X                  Y                   Z               Mass
    ------------   -----------------  -----------------  -----------------  -----------------
         C           -0.323334524698     0.000001803715    -0.004246999277    12.000000000000
         C            0.060472643202    -1.405801349385    -2.428198556177    12.000000000000
         C            0.061017536002     2.801743209215     0.006722706323    12.000000000000
         C            0.061807399302    -1.395936475385     2.424558164423    12.000000000000
         H            2.086188164902    -1.653264385985    -2.851007960977     1.007825032230
         H           -0.764859410498    -0.397934830285    -4.031858781477     1.007825032230
         H           -0.767723855598    -3.297965698585    -2.348757571677     1.007825032230
         H            2.086791554902     3.288074280015     0.012302916523     1.007825032230
         H           -0.768348519098     3.672623959915     1.686993442623     1.007825032230
         H           -0.762957716098     3.687828331115    -1.665969430277     1.007825032230
         H            2.087676556102    -1.634932829685     2.843862636823     1.007825032230
         H           -0.763421871798    -3.286011435885     2.349220232023     1.007825032230
         H           -0.765948975398    -0.378502978785     4.019082217723     1.007825032230

  Charge       = 0
  Multiplicity = 2
  Basis Set: ANONYMOUS0DD29908
    Blend: 6-31G_2DFP_
  Basis Set: (ANONYMOUS0DD29908 AUX)
    Blend: DEF2-UNIVERSAL-JKFIT

    Orbital Energies [Eh]
    ---------------------

    Alpha Occupied:

       1A    -10.180342     2A    -10.167323     3A    -10.167016
       4A    -10.166707     5A     -0.797768     6A     -0.686383
       7A     -0.685989     8A     -0.530777     9A     -0.441125
      10A     -0.435018    11A     -0.434324    12A     -0.382653
      13A     -0.382543    14A     -0.363608    15A     -0.338481
      16A     -0.337518    17A     -0.168962

    Alpha Virtual:

      18A      0.076071    19A      0.133898    20A      0.134414
      21A      0.142553    22A      0.142701    23A      0.154881
      24A      0.178473    25A      0.179085    26A      0.203546
      27A      0.214808    28A      0.275929    29A      0.276040
      30A      0.399079    31A      0.399340    32A      0.403392
      33A      0.424010    34A      0.424191    35A      0.456594
      36A      0.495008    37A      0.495765    38A      0.512173
      39A      0.513983    40A      0.578585    41A      0.579010
      42A      0.591563    43A      0.591729    44A      0.602568
      45A      0.624768    46A      0.631754    47A      0.635874
      48A      0.636643    49A      0.663256    50A      0.663568
      51A      0.683590    52A      0.684117    53A      0.734992
      54A      0.824524    55A      0.826276    56A      0.853915
      57A      0.914801    58A      0.915256    59A      0.944048
      60A      0.944497    61A      0.961178    62A      0.961632
      63A      1.003466    64A      1.127033    65A      1.129210
      66A      1.142187    67A      1.163072    68A      1.163474
      69A      1.223330    70A      1.274290    71A      1.274730
      72A      1.279336    73A      1.324209    74A      1.324509
      75A      1.355984    76A      1.365450    77A      1.366596
      78A      1.392381    79A      1.403133    80A      1.405091
      81A      1.416777    82A      1.417456    83A      1.427946
      84A      1.491428    85A      1.499058    86A      1.542555
      87A      1.543129    88A      1.572820    89A      1.576174
      90A      1.669823    91A      1.738214    92A      1.740601
      93A      1.768331    94A      1.830391    95A      1.832423
      96A      1.971725    97A      2.017975    98A      2.018446
      99A      2.019963   100A      2.050804   101A      2.054545
     102A      2.738101   103A      2.738874   104A      2.790923
     105A      2.811439   106A      2.889777   107A      2.890129
     108A      2.894937   109A      2.929379   110A      2.929609
     111A      2.958998   112A      2.963562   113A      2.965203
     114A      3.034016   115A      3.070143   116A      3.072402
     117A      3.084383   118A      3.168215   119A      3.169383
     120A      3.180565   121A      3.284584   122A      3.286020
     123A      3.326400   124A      3.327926   125A      3.375665
     126A      3.489985   127A      3.490292   128A      3.514025
     129A      3.525302   130A      3.567293   131A      3.569379
     132A      3.575334   133A      3.665561   134A      3.667157
     135A      3.679696   136A      3.693790   137A      3.694447
     138A      3.775764   139A      3.777759   140A      3.789262
     141A      3.911553   142A      3.912898   143A      4.034464
     144A      4.110176   145A      4.112597   146A      4.146762
     147A      4.149469   148A      4.173227   149A      4.201719
     150A      4.202668   151A      4.204285   152A      4.211037
     153A      4.315192   154A      4.316673   155A      4.359032
     156A      4.423431   157A      4.425066   158A      4.443799
     159A      4.516696   160A      4.517071   161A      4.577213
     162A      4.579315   163A      4.617530   164A      4.709432
     165A      4.772983   166A      4.776229   167A      4.836898
     168A      4.962795   169A      5.001294   170A      5.004689
     171A      5.228027   172A      5.246459   173A      5.247175
     174A      5.354863   175A      5.356140   176A      5.479330

    Beta Occupied:

       1A    -10.168082     2A    -10.167775     3A    -10.167468
       4A    -10.166519     5A     -0.781093     6A     -0.684184
       7A     -0.683793     8A     -0.511748     9A     -0.431399
      10A     -0.430685    11A     -0.421824    12A     -0.376728
      13A     -0.376638    14A     -0.362592    15A     -0.333609
      16A     -0.332636

    Beta Virtual:

      17A     -0.025743    18A      0.077080    19A      0.134798
      20A      0.135293    21A      0.144413    22A      0.144583
      23A      0.163340    24A      0.182147    25A      0.182753
      26A      0.215038    27A      0.218929    28A      0.282298
      29A      0.282368    30A      0.400290    31A      0.400508
      32A      0.419796    33A      0.426806    34A      0.427017
      35A      0.468504    36A      0.497271    37A      0.498023
      38A      0.513908    39A      0.556328    40A      0.584170
      41A      0.584527    42A      0.597728    43A      0.597919
      44A      0.609991    45A      0.628150    46A      0.631918
      47A      0.639142    48A      0.639936    49A      0.666799
      50A      0.667152    51A      0.686186    52A      0.686792
      53A      0.757515    54A      0.829677    55A      0.831459
      56A      0.855269    57A      0.922761    58A      0.923237
      59A      0.945908    60A      0.953405    61A      0.966430
      62A      0.966993    63A      1.008704    64A      1.131064
      65A      1.133235    66A      1.155553    67A      1.168137
      68A      1.168569    69A      1.232300    70A      1.279886
      71A      1.280327    72A      1.285090    73A      1.329196
      74A      1.329501    75A      1.365399    76A      1.370563
      77A      1.371967    78A      1.393446    79A      1.406680
      80A      1.408474    81A      1.421807    82A      1.422523
      83A      1.428216    84A      1.492479    85A      1.509502
      86A      1.546869    87A      1.547630    88A      1.580843
      89A      1.583893    90A      1.674669    91A      1.743977
      92A      1.746364    93A      1.779109    94A      1.834239
      95A      1.836287    96A      1.972587    97A      2.024500
      98A      2.026391    99A      2.039673   100A      2.057607
     101A      2.061166   102A      2.746414   103A      2.747233
     104A      2.811851   105A      2.816059   106A      2.902521
     107A      2.902758   108A      2.924649   109A      2.931936
     110A      2.932015   111A      2.960062   112A      2.968151
     113A      2.969700   114A      3.041951   115A      3.079919
     116A      3.082359   117A      3.086294   118A      3.184086
     119A      3.184995   120A      3.188254   121A      3.289478
     122A      3.290728   123A      3.330190   124A      3.331748
     125A      3.383480   126A      3.492743   127A      3.492991
     128A      3.512392   129A      3.528354   130A      3.574825
     131A      3.580832   132A      3.582885   133A      3.670258
     134A      3.671960   135A      3.692998   136A      3.725472
     137A      3.726017   138A      3.780264   139A      3.782389
     140A      3.817727   141A      3.921318   142A      3.922765
     143A      4.045351   144A      4.117100   145A      4.119304
     146A      4.153931   147A      4.156720   148A      4.187283
     149A      4.207640   150A      4.210145   151A      4.210686
     152A      4.215558   153A      4.322583   154A      4.324158
     155A      4.362395   156A      4.431569   157A      4.433218
     158A      4.446835   159A      4.524568   160A      4.524768
     161A      4.587750   162A      4.589979   163A      4.624722
     164A      4.719777   165A      4.779920   166A      4.783200
     167A      4.839814   168A      4.967588   169A      5.005350
     170A      5.008713   171A      5.233743   172A      5.248246
     173A      5.248957   174A      5.361346   175A      5.362618
     176A      5.481651

    Final Occupation by Irrep:
              A
    DOCC [    16 ]
    SOCC [     1 ]

  @DF-UKS Final Energy:  -157.81306537026103

   => Energetics <=

    Nuclear Repulsion Energy =            125.3948020405256045
    One-Electron Energy =                -458.7492587439893441
    Two-Electron Energy =                 195.8485350578471298
    DFT Exchange-Correlation Energy =     -20.3071437246444617
    Empirical Dispersion Energy =           0.0000000000000000
    VV10 Nonlocal Energy =                  0.0000000000000000
    Total Energy =                       -157.8130653702610289

  UHF NO Occupations:
  HONO-2 :   15  A 1.9996009
  HONO-1 :   16  A 1.9989804
  HONO-0 :   17  A 1.0000000
  LUNO+0 :   18  A 0.0010196
  LUNO+1 :   19  A 0.0003991
  LUNO+2 :   20  A 0.0001983
  LUNO+3 :   21  A 0.0001968

Computation Completed

Properties will be evaluated at   0.000000,   0.000000,   0.000000 [a0]

Properties computed using the SCF density matrix

  Nuclear Dipole Moment: [e a0]
     X:     0.8272      Y:    -0.0000      Z:     0.0069

  Electronic Dipole Moment: [e a0]
     X:    -0.7493      Y:     0.0000      Z:    -0.0076

  Dipole Moment: [e a0]
     X:     0.0779      Y:    -0.0000      Z:    -0.0007     Total:     0.0779

  Dipole Moment: [D]
     X:     0.1980      Y:    -0.0000      Z:    -0.0017     Total:     0.1980

*** tstop() called on n022 at Fri Nov  5 13:18:00 2021
Module time:
	user time   =     635.09 seconds =      10.58 minutes
	system time =      12.19 seconds =       0.20 minutes
	total time  =        162 seconds =       2.70 minutes
Total time:
	user time   =     635.09 seconds =      10.58 minutes
	system time =      12.19 seconds =       0.20 minutes
	total time  =        162 seconds =       2.70 minutes
Grab this energy -157.81306537026103
    Psi4 stopped on: Friday, 05 November 2021 01:18PM
    Psi4 wall time for execution: 0:02:42.75

*** Psi4 exiting successfully. Buy a developer a beer!
