                               Psi4 1.4a2.dev629

  ==> Input File <==

--------------------------------------------------------------------------
import os
memory 14 GB

molecule {
 C   -0.3233520118   -0.0002481803    0.0000000000
 C    0.0604002941   -1.3999776722   -2.4250776825
 C    0.0619519941    2.7999964886   -0.0000000000
 C    0.0604002941   -1.3999776722    2.4250776825
 H    2.0852614418   -1.6414367847   -2.8460365747
 H   -0.7669354021   -0.3903867266   -4.0281338663
 H   -0.7654357072   -3.2928484080   -2.3495638928
 H    2.0899773278    3.2947061015   -0.0000000000
 H   -0.7638832199    3.6774102298    1.6762810937
 H   -0.7638832199    3.6774102298   -1.6762810937
 H    2.0852614418   -1.6414367847    2.8460365747
 H   -0.7654357072   -3.2928484080    2.3495638928
 H   -0.7669354021   -0.3903867266    4.0281338663
units bohr
0 2
}

basis {

assign 6-31g_2dfp_

[ 6-31g_2dfp_ ]

spherical

!----------------------------------------------------------------------
! Basis Set Exchange
! Version v0.8.13
! https://www.basissetexchange.org
!----------------------------------------------------------------------
!   Basis set: 6-31G(2df,p)
! Description: 6-31G(2df,p)
!        Role: orbital
!     Version: 0  (Data from the original Basis Set Exchange)
!----------------------------------------------------------------------

****
H     0
S    3   1.00
     18.7311370              0.03349460
      2.8253937              0.23472695
      0.6401217              0.81375733
S    1   1.00
      0.1612778              1.00000000
P    1   1.00
      1.5000000              1.0000000
P    1   1.00
      0.3750000              1.0000000
****
B     0
S    6   1.00
   2068.8823000              0.0018663
    310.6495700              0.0142515
     70.6830330              0.0695516
     19.8610800              0.2325729
      6.2993048              0.4670787
      2.1270270              0.3634314
SP   3   1.00
      4.7279710             -0.1303938              0.0745976
      1.1903377             -0.1307889              0.3078467
      0.3594117              1.1309444              0.7434568
SP   1   1.00
      0.1267512              1.0000000              1.0000000
D    1   1.00
      0.8020000              1.0000000
D    1   1.00
      0.2005000              1.0000000
F    1   1.00
      0.5000000              1.0000000
****
C     0
S    6   1.00
   3047.5249000              0.0018347
    457.3695100              0.0140373
    103.9486900              0.0688426
     29.2101550              0.2321844
      9.2866630              0.4679413
      3.1639270              0.3623120
SP   3   1.00
      7.8682724             -0.1193324              0.0689991
      1.8812885             -0.1608542              0.3164240
      0.5442493              1.1434564              0.7443083
SP   1   1.00
      0.1687144              1.0000000              1.0000000
D    1   1.00
      1.2520000              1.0000000
D    1   1.00
      0.3130000              1.0000000
F    1   1.00
      0.8000000              1.0000000
****
N     0
S    6   1.00
   4173.5110000              0.0018348
    627.4579000              0.0139950
    142.9021000              0.0685870
     40.2343300              0.2322410
     12.8202100              0.4690700
      4.3904370              0.3604550
SP   3   1.00
     11.6263580             -0.1149610              0.0675800
      2.7162800             -0.1691180              0.3239070
      0.7722180              1.1458520              0.7408950
SP   1   1.00
      0.2120313              1.0000000              1.0000000
D    1   1.00
      1.8260000              1.0000000
D    1   1.00
      0.4565000              1.0000000
F    1   1.00
      1.0000000              1.0000000
****
O     0
S    6   1.00
   5484.6717000              0.0018311
    825.2349500              0.0139501
    188.0469600              0.0684451
     52.9645000              0.2327143
     16.8975700              0.4701930
      5.7996353              0.3585209
SP   3   1.00
     15.5396160             -0.1107775              0.0708743
      3.5999336             -0.1480263              0.3397528
      1.0137618              1.1307670              0.7271586
SP   1   1.00
      0.2700058              1.0000000              1.0000000
D    1   1.00
      2.5840000              1.0000000
D    1   1.00
      0.6460000              1.0000000
F    1   1.00
      1.4000000              1.0000000
****
F     0
S    6   1.00
   7001.7130900              0.0018196169
   1051.3660900              0.0139160796
    239.2856900              0.0684053245
     67.3974453              0.233185760
     21.5199573              0.471267439
      7.40310130             0.356618546
SP   3   1.00
     20.8479528             -0.108506975            0.0716287243
      4.80830834            -0.146451658            0.3459121030
      1.34406986             1.128688580            0.7224699570
SP   1   1.00
      0.358151393            1.0000000              1.0000000
D    1   1.00
      3.5000000              1.0000000
D    1   1.00
      0.8750000              1.0000000
F    1   1.00
      1.8500000              1.0000000
****
Al     0
S    6   1.00
  13983.1000000              0.00194267
   2098.7500000              0.0148599
    477.7050000              0.0728494
    134.3600000              0.2468300
     42.8709000              0.4872580
     14.5189000              0.3234960
SP   6   1.00
    239.6680000             -0.00292619             0.00460285
     57.4419000             -0.0374080              0.0331990
     18.2859000             -0.1144870              0.1362820
      6.5991400              0.1156350              0.3304760
      2.4904900              0.6125950              0.4491460
      0.9445400              0.3937990              0.2657040
SP   3   1.00
      1.2779000             -0.2276060             -0.0175130
      0.3975900              0.00144583             0.2445330
      0.1600950              1.0927900              0.8049340
SP   1   1.00
      0.0556577              1.0000000              1.0000000
D    1   1.00
      0.6500000              1.0000000
D    1   1.00
      0.1625000              1.0000000
F    1   1.00
      0.2500000              1.0000000
****
Si     0
S    6   1.00
  16115.9000000              0.00195948
   2425.5800000              0.01492880
    553.8670000              0.07284780
    156.3400000              0.24613000
     50.0683000              0.48591400
     17.0178000              0.32500200
SP   6   1.00
    292.7180000             -0.00278094             0.00443826
     69.8731000             -0.03571460             0.03266790
     22.3363000             -0.11498500             0.13472100
      8.1503900              0.09356340             0.32867800
      3.1345800              0.60301700             0.44964000
      1.2254300              0.41895900             0.26137200
SP   3   1.00
      1.7273800             -0.24463000            -0.01779510
      0.5729220              0.00431572             0.25353900
      0.2221920              1.09818000             0.80066900
SP   1   1.00
      0.0778369              1.00000000             1.00000000
D    1   1.00
      0.9000000              1.0000000
D    1   1.00
      0.2250000              1.0000000
F    1   1.00
      0.3200000              1.0000000
****
P     0
S    6   1.00
  19413.3000000              0.0018516
   2909.4200000              0.0142062
    661.3640000              0.0699995
    185.7590000              0.2400790
     59.1943000              0.4847620
     20.0310000              0.3352000
SP   6   1.00
    339.4780000             -0.00278217             0.00456462
     81.0101000             -0.0360499              0.03369360
     25.8780000             -0.1166310              0.13975500
      9.4522100              0.0968328              0.33936200
      3.6656600              0.6144180              0.45092100
      1.4674600              0.4037980              0.23858600
SP   3   1.00
      2.1562300             -0.2529230             -0.01776530
      0.7489970              0.0328517              0.27405800
      0.2831450              1.0812500              0.78542100
SP   1   1.00
      0.0998317              1.0000000              1.00000000
D    1   1.00
      1.1000000              1.0000000
D    1   1.00
      0.2750000              1.0000000
F    1   1.00
      0.4500000              1.0000000
****
S     0
S    6   1.00
  21917.1000000              0.0018690
   3301.4900000              0.0142300
    754.1460000              0.0696960
    212.7110000              0.2384870
     67.9896000              0.4833070
     23.0515000              0.3380740
SP   6   1.00
    423.7350000             -0.0023767              0.0040610
    100.7100000             -0.0316930              0.0306810
     32.1599000             -0.1133170              0.1304520
     11.8079000              0.0560900              0.3272050
      4.6311000              0.5922550              0.4528510
      1.8702500              0.4550060              0.2560420
SP   3   1.00
      2.6158400             -0.2503740             -0.0145110
      0.9221670              0.0669570              0.3102630
      0.3412870              1.0545100              0.7544830
SP   1   1.00
      0.1171670              1.0000000              1.0000000
D    1   1.00
      1.3000000              1.0000000
D    1   1.00
      0.3250000              1.0000000
F    1   1.00
      0.5500000              1.0000000
****
Cl     0
S    6   1.00
  25180.1000000              0.0018330
   3780.3500000              0.0140340
    860.4740000              0.0690970
    242.1450000              0.2374520
     77.3349000              0.4830340
     26.2470000              0.3398560
SP   6   1.00
    491.7650000             -0.0022974              0.0039894
    116.9840000             -0.0307140              0.0303180
     37.4153000             -0.1125280              0.1298800
     13.7834000              0.0450160              0.3279510
      5.4521500              0.5893530              0.4535270
      2.2258800              0.4652060              0.2521540
SP   3   1.00
      3.1864900             -0.2518300             -0.0142990
      1.1442700              0.0615890              0.3235720
      0.4203770              1.0601800              0.7435070
SP   1   1.00
      0.1426570              1.0000000              1.0000000
D    1   1.00
      1.5000000              1.0000000
D    1   1.00
      0.3750000              1.0000000
F    1   1.00
      0.7000000              1.0000000
****
}

set {
reference uhf
freeze_core true
e_convergence 10
d_convergence 10
dft_spherical_points 1202
dft_radial_points 99
}

e = energy('b3lyp')

print_out('Grab this energy {0}'.format(e))
--------------------------------------------------------------------------

    Molecular point group: cs

    Geometry (in Bohr), charge = 0, multiplicity = 2:

       Center              X                  Y                   Z               Mass
    ------------   -----------------  -----------------  -----------------  -----------------
         C           -0.323244258733    -0.000207874294     0.000000000000    12.000000000000
         C            0.060508047167    -1.399937366194    -2.425077682500    12.000000000000
         C            0.062059747167     2.800036794606     0.000000000000    12.000000000000
         C            0.060508047167    -1.399937366194     2.425077682500    12.000000000000
         H            2.085369194867    -1.641396478694    -2.846036574700     1.007825032230
         H           -0.766827649033    -0.390346420594    -4.028133866300     1.007825032230
         H           -0.765327954133    -3.292808101994    -2.349563892800     1.007825032230
         H            2.090085080867     3.294746407506     0.000000000000     1.007825032230
         H           -0.763775466833     3.677450535806     1.676281093700     1.007825032230
         H           -0.763775466833     3.677450535806    -1.676281093700     1.007825032230
         H            2.085369194867    -1.641396478694     2.846036574700     1.007825032230
         H           -0.765327954133    -3.292808101994     2.349563892800     1.007825032230
         H           -0.766827649033    -0.390346420594     4.028133866300     1.007825032230

  Charge       = 0
  Multiplicity = 2
  Basis Set: ANONYMOUS18C7460C
    Blend: 6-31G_2DFP_
  Basis Set: (ANONYMOUS18C7460C AUX)
    Blend: DEF2-UNIVERSAL-JKFIT

    Orbital Energies [Eh]
    ---------------------

    Alpha Occupied:

       1Ap   -10.180291     1App  -10.167100     2Ap   -10.167079
       3Ap   -10.167024     4Ap    -0.798024     2App   -0.686225
       5Ap    -0.686167     6Ap    -0.530942     7Ap    -0.441135
       3App   -0.434827     8Ap    -0.434653     4App   -0.382685
       9Ap    -0.382235     5App   -0.363409     6App   -0.338312
      10Ap    -0.338005    11Ap    -0.168982

    Alpha Virtual:

      12Ap     0.076065    13Ap     0.134047     7App    0.134147
      14Ap     0.142288     8App    0.142700    15Ap     0.154986
      16Ap     0.178473     9App    0.178748    17Ap     0.203840
      10App    0.214678    18Ap     0.276206    11App    0.276246
      12App    0.399099    19Ap     0.399345    20Ap     0.403253
      13App    0.423941    21Ap     0.424147    22Ap     0.456776
      14App    0.495369    23Ap     0.495389    15App    0.512106
      24Ap     0.513924    16App    0.578652    25Ap     0.578885
      26Ap     0.591262    17App    0.591789    27Ap     0.602557
      28Ap     0.624644    18App    0.631522    29Ap     0.636088
      19App    0.636545    20App    0.663487    30Ap     0.663570
      21App    0.683724    31Ap     0.683950    32Ap     0.734861
      33Ap     0.825369    22App    0.825486    23App    0.854052
      34Ap     0.914665    24App    0.915300    25App    0.944156
      35Ap     0.944925    36Ap     0.961158    26App    0.961315
      37Ap     1.003282    27App    1.127790    38Ap     1.128583
      39Ap     1.142621    28App    1.162503    40Ap     1.162829
      41Ap     1.223754    29App    1.274518    42Ap     1.274705
      43Ap     1.279533    44Ap     1.324487    30App    1.324622
      45Ap     1.356313    31App    1.366185    46Ap     1.366218
      32App    1.391958    47Ap     1.402841    33App    1.403813
      48Ap     1.416757    34App    1.417415    35App    1.427673
      36App    1.492024    49Ap     1.498479    37App    1.542984
      50Ap     1.543005    51Ap     1.574068    38App    1.575042
      52Ap     1.669045    53Ap     1.739806    39App    1.740018
      54Ap     1.768305    40App    1.830543    55Ap     1.831404
      41App    1.972321    56Ap     2.018082    57Ap     2.019714
      42App    2.019875    58Ap     2.052615    43App    2.053536
      59Ap     2.738656    44App    2.738670    60Ap     2.791149
      45App    2.811516    46App    2.889902    61Ap     2.890189
      62Ap     2.895381    63Ap     2.929028    47App    2.929644
      48App    2.958940    49App    2.964184    64Ap     2.964520
      65Ap     3.034177    66Ap     3.070599    50App    3.071868
      51App    3.084756    52App    3.168662    67Ap     3.169110
      68Ap     3.181174    53App    3.284870    69Ap     3.285096
      54App    3.326536    70Ap     3.328282    71Ap     3.375518
      72Ap     3.489189    55App    3.491303    56App    3.514154
      73Ap     3.525680    57App    3.568388    74Ap     3.568728
      58App    3.575160    75Ap     3.665099    59App    3.666062
      76Ap     3.679093    77Ap     3.693384    60App    3.694662
      61App    3.776799    78Ap     3.776909    79Ap     3.788877
      62App    3.913204    80Ap     3.913457    81Ap     4.035009
      82Ap     4.110959    63App    4.111223    83Ap     4.148075
      64App    4.148154    84Ap     4.173927    85Ap     4.203170
      65App    4.203387    86Ap     4.204468    66App    4.211194
      87Ap     4.315634    67App    4.316036    68App    4.358339
      88Ap     4.423194    69App    4.423401    70App    4.441448
      89Ap     4.516509    71App    4.517817    72App    4.578973
      90Ap     4.579025    91Ap     4.617958    92Ap     4.710684
      93Ap     4.774812    73App    4.775976    74App    4.838234
      94Ap     4.961555    95Ap     5.001544    75App    5.002613
      96Ap     5.227539    97Ap     5.245981    76App    5.247077
      77App    5.355623    98Ap     5.355715    78App    5.480565

    Beta Occupied:

       1App  -10.167852     1Ap   -10.167839     2Ap   -10.167795
       3Ap   -10.166479     4Ap    -0.781334     2App   -0.684017
       5Ap    -0.683969     6Ap    -0.511959     3App   -0.431190
       7Ap    -0.430994     8Ap    -0.421791     4App   -0.376761
       9Ap    -0.376298     5App   -0.362389     6App   -0.333438
      10Ap    -0.333154

    Beta Virtual:

      11Ap    -0.025913    12Ap     0.077078    13Ap     0.134953
       7App    0.135038    14Ap     0.144184     8App    0.144550
      15Ap     0.163487    16Ap     0.182156     9App    0.182439
      10App    0.214910    17Ap     0.219172    18Ap     0.282530
      11App    0.282579    12App    0.400279    19Ap     0.400517
      20Ap     0.419708    13App    0.426752    21Ap     0.426961
      22Ap     0.468760    14App    0.497636    23Ap     0.497660
      15App    0.513850    24Ap     0.556236    16App    0.584195
      25Ap     0.584442    26Ap     0.597429    17App    0.597965
      27Ap     0.609970    28Ap     0.628057    18App    0.631690
      29Ap     0.639395    19App    0.639836    20App    0.667044
      30Ap     0.667143    21App    0.686386    31Ap     0.686580
      32Ap     0.757308    33Ap     0.830556    22App    0.830667
      23App    0.855417    34Ap     0.922661    24App    0.923242
      25App    0.946002    35Ap     0.953864    36Ap     0.966488
      26App    0.966615    37Ap     1.008512    27App    1.131856
      38Ap     1.132559    39Ap     1.156031    28App    1.167532
      40Ap     1.167934    41Ap     1.232667    29App    1.280162
      42Ap     1.280322    43Ap     1.285262    44Ap     1.329493
      30App    1.329639    45Ap     1.365725    31App    1.371348
      46Ap     1.371433    32App    1.393025    47Ap     1.406331
      33App    1.407318    48Ap     1.421815    34App    1.422445
      35App    1.427945    36App    1.493085    49Ap     1.508941
      37App    1.547316    50Ap     1.547541    51Ap     1.581830
      38App    1.582983    52Ap     1.673886    53Ap     1.745571
      39App    1.745773    54Ap     1.779124    40App    1.834428
      55Ap     1.835280    41App    1.973188    56Ap     2.026198
      42App    2.026317    57Ap     2.039460    58Ap     2.059280
      43App    2.060223    59Ap     2.746948    44App    2.746985
      45App    2.811927    60Ap     2.816251    46App    2.902526
      61Ap     2.902887    62Ap     2.925098    63Ap     2.931554
      47App    2.932141    48App    2.960005    49App    2.968755
      64Ap     2.969095    65Ap     3.042154    66Ap     3.080509
      50App    3.081867    51App    3.086581    52App    3.184319
      67Ap     3.184773    68Ap     3.188821    53App    3.289680
      69Ap     3.289982    54App    3.330346    70Ap     3.332070
      71Ap     3.383369    72Ap     3.491950    55App    3.494019
      56App    3.512517    73Ap     3.528689    57App    3.574762
      74Ap     3.581783    58App    3.582131    75Ap     3.669701
      59App    3.670616    76Ap     3.692380    77Ap     3.725369
      60App    3.726163    61App    3.781414    78Ap     3.781479
      79Ap     3.817352    62App    3.922977    80Ap     3.923241
      81Ap     4.045818    82Ap     4.117901    63App    4.118106
      83Ap     4.155148    64App    4.155392    84Ap     4.188040
      65App    4.209325    85Ap     4.209839    86Ap     4.211742
      66App    4.215684    87Ap     4.323010    67App    4.323356
      68App    4.361721    88Ap     4.431464    69App    4.431694
      70App    4.444330    89Ap     4.524372    71App    4.525662
      72App    4.589577    90Ap     4.589660    91Ap     4.625170
      92Ap     4.721030    93Ap     4.781735    73App    4.782957
      74App    4.841149    94Ap     4.966372    95Ap     5.005622
      75App    5.006660    96Ap     5.233272    97Ap     5.247777
      76App    5.248869    77App    5.362140    98Ap     5.362217
      78App    5.482894

    Final Occupation by Irrep:
             Ap   App
    DOCC [    10,    6 ]
    SOCC [     1,    0 ]

  @DF-UKS Final Energy:  -157.81308789194824

   => Energetics <=

    Nuclear Repulsion Energy =            125.4225663954769061
    One-Electron Energy =                -458.8038827698653677
    Two-Electron Energy =                 195.8752557526106841
    DFT Exchange-Correlation Energy =     -20.3070272701704688
    Empirical Dispersion Energy =           0.0000000000000000
    VV10 Nonlocal Energy =                  0.0000000000000000
    Total Energy =                       -157.8130878919482427

  UHF NO Occupations:
  HONO-2 :    9 Ap 1.9995992
  HONO-1 :   10 Ap 1.9989827
  HONO-0 :   11 Ap 1.0000000
  LUNO+0 :   12 Ap 0.0010173
  LUNO+1 :   13 Ap 0.0004008
  LUNO+2 :   14 Ap 0.0001969
  LUNO+3 :    7App 0.0001966

Computation Completed

Properties will be evaluated at   0.000000,   0.000000,   0.000000 [a0]

Properties computed using the SCF density matrix

  Nuclear Dipole Moment: [e a0]
     X:     0.8280      Y:     0.0003      Z:     0.0000

  Electronic Dipole Moment: [e a0]
     X:    -0.7502      Y:    -0.0010      Z:     0.0000

  Dipole Moment: [e a0]
     X:     0.0778      Y:    -0.0008      Z:     0.0000     Total:     0.0778

  Dipole Moment: [D]
     X:     0.1977      Y:    -0.0020      Z:     0.0000     Total:     0.1977

*** tstop() called on n058 at Fri Nov  5 13:25:07 2021
Module time:
	user time   =     543.98 seconds =       9.07 minutes
	system time =      11.90 seconds =       0.20 minutes
	total time  =        140 seconds =       2.33 minutes
Total time:
	user time   =     543.98 seconds =       9.07 minutes
	system time =      11.90 seconds =       0.20 minutes
	total time  =        140 seconds =       2.33 minutes
Grab this energy -157.81308789194824
    Psi4 stopped on: Friday, 05 November 2021 01:25PM
    Psi4 wall time for execution: 0:02:19.79

*** Psi4 exiting successfully. Buy a developer a beer!
