                               Psi4 1.4a2.dev629

  ==> Input File <==

--------------------------------------------------------------------------
import os
memory 14 GB

molecule {
 C   -0.3233399813    0.0010175600    0.0024263550
 C    0.0614568856   -1.4034162241   -2.4263982314
 C    0.0617680357    2.8013638304    0.0012507902
 C    0.0600738414   -1.4012412053    2.4251424689
 H    2.0892009350   -1.6417439551   -2.8479220161
 H   -0.7661193975   -0.3900609725   -4.0254945224
 H   -0.7621867553   -3.2950845283   -2.3518053043
 H    2.0867116808    3.2881968370   -0.0033509987
 H   -0.7614985938    3.6832249139    1.6797402929
 H   -0.7702142382    3.6774388787   -1.6730560721
 H    2.0847493179   -1.6453498890    2.8474790016
 H   -0.7689894886   -3.2886089771    2.3464340434
 H   -0.7642201184   -0.3857605820    4.0255541931
units bohr
0 2
}

basis {

assign 6-31g_2dfp_

[ 6-31g_2dfp_ ]

spherical

!----------------------------------------------------------------------
! Basis Set Exchange
! Version v0.8.13
! https://www.basissetexchange.org
!----------------------------------------------------------------------
!   Basis set: 6-31G(2df,p)
! Description: 6-31G(2df,p)
!        Role: orbital
!     Version: 0  (Data from the original Basis Set Exchange)
!----------------------------------------------------------------------

****
H     0
S    3   1.00
     18.7311370              0.03349460
      2.8253937              0.23472695
      0.6401217              0.81375733
S    1   1.00
      0.1612778              1.00000000
P    1   1.00
      1.5000000              1.0000000
P    1   1.00
      0.3750000              1.0000000
****
B     0
S    6   1.00
   2068.8823000              0.0018663
    310.6495700              0.0142515
     70.6830330              0.0695516
     19.8610800              0.2325729
      6.2993048              0.4670787
      2.1270270              0.3634314
SP   3   1.00
      4.7279710             -0.1303938              0.0745976
      1.1903377             -0.1307889              0.3078467
      0.3594117              1.1309444              0.7434568
SP   1   1.00
      0.1267512              1.0000000              1.0000000
D    1   1.00
      0.8020000              1.0000000
D    1   1.00
      0.2005000              1.0000000
F    1   1.00
      0.5000000              1.0000000
****
C     0
S    6   1.00
   3047.5249000              0.0018347
    457.3695100              0.0140373
    103.9486900              0.0688426
     29.2101550              0.2321844
      9.2866630              0.4679413
      3.1639270              0.3623120
SP   3   1.00
      7.8682724             -0.1193324              0.0689991
      1.8812885             -0.1608542              0.3164240
      0.5442493              1.1434564              0.7443083
SP   1   1.00
      0.1687144              1.0000000              1.0000000
D    1   1.00
      1.2520000              1.0000000
D    1   1.00
      0.3130000              1.0000000
F    1   1.00
      0.8000000              1.0000000
****
N     0
S    6   1.00
   4173.5110000              0.0018348
    627.4579000              0.0139950
    142.9021000              0.0685870
     40.2343300              0.2322410
     12.8202100              0.4690700
      4.3904370              0.3604550
SP   3   1.00
     11.6263580             -0.1149610              0.0675800
      2.7162800             -0.1691180              0.3239070
      0.7722180              1.1458520              0.7408950
SP   1   1.00
      0.2120313              1.0000000              1.0000000
D    1   1.00
      1.8260000              1.0000000
D    1   1.00
      0.4565000              1.0000000
F    1   1.00
      1.0000000              1.0000000
****
O     0
S    6   1.00
   5484.6717000              0.0018311
    825.2349500              0.0139501
    188.0469600              0.0684451
     52.9645000              0.2327143
     16.8975700              0.4701930
      5.7996353              0.3585209
SP   3   1.00
     15.5396160             -0.1107775              0.0708743
      3.5999336             -0.1480263              0.3397528
      1.0137618              1.1307670              0.7271586
SP   1   1.00
      0.2700058              1.0000000              1.0000000
D    1   1.00
      2.5840000              1.0000000
D    1   1.00
      0.6460000              1.0000000
F    1   1.00
      1.4000000              1.0000000
****
F     0
S    6   1.00
   7001.7130900              0.0018196169
   1051.3660900              0.0139160796
    239.2856900              0.0684053245
     67.3974453              0.233185760
     21.5199573              0.471267439
      7.40310130             0.356618546
SP   3   1.00
     20.8479528             -0.108506975            0.0716287243
      4.80830834            -0.146451658            0.3459121030
      1.34406986             1.128688580            0.7224699570
SP   1   1.00
      0.358151393            1.0000000              1.0000000
D    1   1.00
      3.5000000              1.0000000
D    1   1.00
      0.8750000              1.0000000
F    1   1.00
      1.8500000              1.0000000
****
Al     0
S    6   1.00
  13983.1000000              0.00194267
   2098.7500000              0.0148599
    477.7050000              0.0728494
    134.3600000              0.2468300
     42.8709000              0.4872580
     14.5189000              0.3234960
SP   6   1.00
    239.6680000             -0.00292619             0.00460285
     57.4419000             -0.0374080              0.0331990
     18.2859000             -0.1144870              0.1362820
      6.5991400              0.1156350              0.3304760
      2.4904900              0.6125950              0.4491460
      0.9445400              0.3937990              0.2657040
SP   3   1.00
      1.2779000             -0.2276060             -0.0175130
      0.3975900              0.00144583             0.2445330
      0.1600950              1.0927900              0.8049340
SP   1   1.00
      0.0556577              1.0000000              1.0000000
D    1   1.00
      0.6500000              1.0000000
D    1   1.00
      0.1625000              1.0000000
F    1   1.00
      0.2500000              1.0000000
****
Si     0
S    6   1.00
  16115.9000000              0.00195948
   2425.5800000              0.01492880
    553.8670000              0.07284780
    156.3400000              0.24613000
     50.0683000              0.48591400
     17.0178000              0.32500200
SP   6   1.00
    292.7180000             -0.00278094             0.00443826
     69.8731000             -0.03571460             0.03266790
     22.3363000             -0.11498500             0.13472100
      8.1503900              0.09356340             0.32867800
      3.1345800              0.60301700             0.44964000
      1.2254300              0.41895900             0.26137200
SP   3   1.00
      1.7273800             -0.24463000            -0.01779510
      0.5729220              0.00431572             0.25353900
      0.2221920              1.09818000             0.80066900
SP   1   1.00
      0.0778369              1.00000000             1.00000000
D    1   1.00
      0.9000000              1.0000000
D    1   1.00
      0.2250000              1.0000000
F    1   1.00
      0.3200000              1.0000000
****
P     0
S    6   1.00
  19413.3000000              0.0018516
   2909.4200000              0.0142062
    661.3640000              0.0699995
    185.7590000              0.2400790
     59.1943000              0.4847620
     20.0310000              0.3352000
SP   6   1.00
    339.4780000             -0.00278217             0.00456462
     81.0101000             -0.0360499              0.03369360
     25.8780000             -0.1166310              0.13975500
      9.4522100              0.0968328              0.33936200
      3.6656600              0.6144180              0.45092100
      1.4674600              0.4037980              0.23858600
SP   3   1.00
      2.1562300             -0.2529230             -0.01776530
      0.7489970              0.0328517              0.27405800
      0.2831450              1.0812500              0.78542100
SP   1   1.00
      0.0998317              1.0000000              1.00000000
D    1   1.00
      1.1000000              1.0000000
D    1   1.00
      0.2750000              1.0000000
F    1   1.00
      0.4500000              1.0000000
****
S     0
S    6   1.00
  21917.1000000              0.0018690
   3301.4900000              0.0142300
    754.1460000              0.0696960
    212.7110000              0.2384870
     67.9896000              0.4833070
     23.0515000              0.3380740
SP   6   1.00
    423.7350000             -0.0023767              0.0040610
    100.7100000             -0.0316930              0.0306810
     32.1599000             -0.1133170              0.1304520
     11.8079000              0.0560900              0.3272050
      4.6311000              0.5922550              0.4528510
      1.8702500              0.4550060              0.2560420
SP   3   1.00
      2.6158400             -0.2503740             -0.0145110
      0.9221670              0.0669570              0.3102630
      0.3412870              1.0545100              0.7544830
SP   1   1.00
      0.1171670              1.0000000              1.0000000
D    1   1.00
      1.3000000              1.0000000
D    1   1.00
      0.3250000              1.0000000
F    1   1.00
      0.5500000              1.0000000
****
Cl     0
S    6   1.00
  25180.1000000              0.0018330
   3780.3500000              0.0140340
    860.4740000              0.0690970
    242.1450000              0.2374520
     77.3349000              0.4830340
     26.2470000              0.3398560
SP   6   1.00
    491.7650000             -0.0022974              0.0039894
    116.9840000             -0.0307140              0.0303180
     37.4153000             -0.1125280              0.1298800
     13.7834000              0.0450160              0.3279510
      5.4521500              0.5893530              0.4535270
      2.2258800              0.4652060              0.2521540
SP   3   1.00
      3.1864900             -0.2518300             -0.0142990
      1.1442700              0.0615890              0.3235720
      0.4203770              1.0601800              0.7435070
SP   1   1.00
      0.1426570              1.0000000              1.0000000
D    1   1.00
      1.5000000              1.0000000
D    1   1.00
      0.3750000              1.0000000
F    1   1.00
      0.7000000              1.0000000
****
}

set {
reference uhf
freeze_core true
e_convergence 10
d_convergence 10
dft_spherical_points 1202
dft_radial_points 99
}

e = energy('b3lyp')

print_out('Grab this energy {0}'.format(e))
--------------------------------------------------------------------------

    Molecular point group: c1

    Geometry (in Bohr), charge = 0, multiplicity = 2:

       Center              X                  Y                   Z               Mass
    ------------   -----------------  -----------------  -----------------  -----------------
         C           -0.323339743670     0.001456370863     0.001959979250    12.000000000000
         C            0.061457123230    -1.402977413237    -2.426864607150    12.000000000000
         C            0.061768273330     2.801802641263     0.000784414450    12.000000000000
         C            0.060074079030    -1.400802394437     2.424676093150    12.000000000000
         H            2.089201172630    -1.641305144237    -2.848388391850     1.007825032230
         H           -0.766119159870    -0.389622161637    -4.025960898150     1.007825032230
         H           -0.762186517670    -3.294645717437    -2.352271680050     1.007825032230
         H            2.086711918430     3.288635647863    -0.003817374450     1.007825032230
         H           -0.761498356170     3.683663724763     1.679273917150     1.007825032230
         H           -0.770214000570     3.677877689563    -1.673522447850     1.007825032230
         H            2.084749555530    -1.644911078137     2.847012625850     1.007825032230
         H           -0.768989250970    -3.288170166237     2.345967667650     1.007825032230
         H           -0.764219880770    -0.385321771137     4.025087817350     1.007825032230

  Charge       = 0
  Multiplicity = 2
  Basis Set: ANONYMOUSDD59E5EC
    Blend: 6-31G_2DFP_
  Basis Set: (ANONYMOUSDD59E5EC AUX)
    Blend: DEF2-UNIVERSAL-JKFIT

    Orbital Energies [Eh]
    ---------------------

    Alpha Occupied:

       1A    -10.180341     2A    -10.167189     3A    -10.167045
       4A    -10.166810     5A     -0.797767     6A     -0.686350
       7A     -0.686023     8A     -0.530776     9A     -0.441126
      10A     -0.434743    11A     -0.434599    12A     -0.382660
      13A     -0.382539    14A     -0.363609    15A     -0.338328
      16A     -0.337669    17A     -0.168960

    Alpha Virtual:

      18A      0.076072    19A      0.134082    20A      0.134230
      21A      0.142562    22A      0.142693    23A      0.154879
      24A      0.178727    25A      0.178827    26A      0.203547
      27A      0.214802    28A      0.275627    29A      0.276344
      30A      0.399111    31A      0.399336    32A      0.403354
      33A      0.424065    34A      0.424133    35A      0.456594
      36A      0.495327    37A      0.495451    38A      0.512160
      39A      0.513979    40A      0.578624    41A      0.579005
      42A      0.591406    43A      0.591865    44A      0.602574
      45A      0.624759    46A      0.631764    47A      0.636174
      48A      0.636337    49A      0.663189    50A      0.663635
      51A      0.683831    52A      0.683875    53A      0.734995
      54A      0.825376    55A      0.825438    56A      0.853916
      57A      0.914861    58A      0.915193    59A      0.944123
      60A      0.944613    61A      0.961211    62A      0.961376
      63A      1.003454    64A      1.128056    65A      1.128144
      66A      1.142200    67A      1.163179    68A      1.163392
      69A      1.223326    70A      1.274230    71A      1.274744
      72A      1.279362    73A      1.324221    74A      1.324494
      75A      1.355996    76A      1.365666    77A      1.366433
      78A      1.392428    79A      1.403653    80A      1.404461
      81A      1.416729    82A      1.417499    83A      1.427924
      84A      1.491493    85A      1.499084    86A      1.542606
      87A      1.543053    88A      1.574056    89A      1.574839
      90A      1.669821    91A      1.739135    92A      1.739692
      93A      1.768332    94A      1.830980    95A      1.831811
      96A      1.971725    97A      2.018052    98A      2.018787
      99A      2.019541   100A      2.051513   101A      2.053785
     102A      2.738411   103A      2.738554   104A      2.790928
     105A      2.811422   106A      2.889116   107A      2.890743
     108A      2.894988   109A      2.929264   110A      2.929734
     111A      2.958991   112A      2.963982   113A      2.964777
     114A      3.034009   115A      3.070964   116A      3.071607
     117A      3.084347   118A      3.168619   119A      3.168899
     120A      3.180633   121A      3.285093   122A      3.285535
     123A      3.326715   124A      3.327601   125A      3.375621
     126A      3.489921   127A      3.490393   128A      3.514004
     129A      3.525315   130A      3.567552   131A      3.569240
     132A      3.575149   133A      3.666037   134A      3.666671
     135A      3.679706   136A      3.693786   137A      3.694465
     138A      3.775443   139A      3.778128   140A      3.789165
     141A      3.911623   142A      3.912828   143A      4.034455
     144A      4.110318   145A      4.112424   146A      4.147540
     147A      4.148704   148A      4.173251   149A      4.202237
     150A      4.202999   151A      4.203547   152A      4.210873
     153A      4.315032   154A      4.316886   155A      4.358973
     156A      4.423702   157A      4.425162   158A      4.443471
     159A      4.516050   160A      4.517621   161A      4.577510
     162A      4.579013   163A      4.617525   164A      4.709457
     165A      4.773957   166A      4.775273   167A      4.836921
     168A      4.962848   169A      5.002276   170A      5.003636
     171A      5.228020   172A      5.246548   173A      5.247094
     174A      5.354556   175A      5.356464   176A      5.479353

    Beta Occupied:

       1A    -10.167944     2A    -10.167806     3A    -10.167573
       4A    -10.166518     5A     -0.781092     6A     -0.684142
       7A     -0.683836     8A     -0.511747     9A     -0.431124
      10A     -0.430962    11A     -0.421822    12A     -0.376743
      13A     -0.376628    14A     -0.362592    15A     -0.333450
      16A     -0.332792

    Beta Virtual:

      17A     -0.025742    18A      0.077081    19A      0.134962
      20A      0.135129    21A      0.144447    22A      0.144549
      23A      0.163337    24A      0.182410    25A      0.182487
      26A      0.215032    27A      0.218929    28A      0.281990
      29A      0.282677    30A      0.400289    31A      0.400505
      32A      0.419791    33A      0.426864    34A      0.426957
      35A      0.468503    36A      0.497595    37A      0.497705
      38A      0.513895    39A      0.556323    40A      0.584163
      41A      0.584566    42A      0.597605    43A      0.598024
      44A      0.609996    45A      0.628136    46A      0.631926
      47A      0.639434    48A      0.639645    49A      0.666762
      50A      0.667190    51A      0.686474    52A      0.686503
      53A      0.757517    54A      0.830572    55A      0.830579
      56A      0.855269    57A      0.922829    58A      0.923167
      59A      0.945960    60A      0.953541    61A      0.966507
      62A      0.966693    63A      1.008694    64A      1.132035
      65A      1.132224    66A      1.155567    67A      1.168314
      68A      1.168412    69A      1.232299    70A      1.279801
      71A      1.280363    72A      1.285121    73A      1.329217
      74A      1.329477    75A      1.365413    76A      1.370920
      77A      1.371665    78A      1.393487    79A      1.407087
      80A      1.407955    81A      1.421797    82A      1.422527
      83A      1.428198    84A      1.492541    85A      1.509528
      86A      1.547022    87A      1.547452    88A      1.581959
      89A      1.582680    90A      1.674669    91A      1.744884
      92A      1.745467    93A      1.779110    94A      1.834830
      95A      1.835673    96A      1.972585    97A      2.025019
      98A      2.025856    99A      2.039677   100A      2.058249
     101A      2.060485   102A      2.746729   103A      2.746908
     104A      2.811835   105A      2.816063   106A      2.901882
     107A      2.903392   108A      2.924633   109A      2.931747
     110A      2.932237   111A      2.960055   112A      2.968545
     113A      2.969303   114A      3.041943   115A      3.080908
     116A      3.081483   117A      3.086164   118A      3.184243
     119A      3.184693   120A      3.188397   121A      3.289920
     122A      3.290304   123A      3.330525   124A      3.331400
     125A      3.383440   126A      3.492627   127A      3.493147
     128A      3.512373   129A      3.528363   130A      3.574980
     131A      3.580952   132A      3.582540   133A      3.670808
     134A      3.671428   135A      3.692975   136A      3.725506
     137A      3.726001   138A      3.780025   139A      3.782623
     140A      3.817685   141A      3.921465   142A      3.922623
     143A      4.045342   144A      4.117136   145A      4.119236
     146A      4.154825   147A      4.155838   148A      4.187310
     149A      4.208457   150A      4.209458   151A      4.210709
     152A      4.215350   153A      4.322428   154A      4.324370
     155A      4.362336   156A      4.431933   157A      4.433343
     158A      4.446373   159A      4.523855   160A      4.525396
     161A      4.588112   162A      4.589610   163A      4.624721
     164A      4.719802   165A      4.780954   166A      4.782183
     167A      4.839838   168A      4.967642   169A      5.006298
     170A      5.007692   171A      5.233733   172A      5.248334
     173A      5.248878   174A      5.361015   175A      5.362966
     176A      5.481675

    Final Occupation by Irrep:
              A
    DOCC [    16 ]
    SOCC [     1 ]

  @DF-UKS Final Energy:  -157.81306666732550

   => Energetics <=

    Nuclear Repulsion Energy =            125.3946406737377970
    One-Electron Energy =                -458.7489398574155643
    Two-Electron Energy =                 195.8483767358209775
    DFT Exchange-Correlation Energy =     -20.3071442194687179
    Empirical Dispersion Energy =           0.0000000000000000
    VV10 Nonlocal Energy =                  0.0000000000000000
    Total Energy =                       -157.8130666673255007

  UHF NO Occupations:
  HONO-2 :   15  A 1.9996009
  HONO-1 :   16  A 1.9989805
  HONO-0 :   17  A 1.0000000
  LUNO+0 :   18  A 0.0010195
  LUNO+1 :   19  A 0.0003991
  LUNO+2 :   20  A 0.0001983
  LUNO+3 :   21  A 0.0001968

Computation Completed

Properties will be evaluated at   0.000000,   0.000000,   0.000000 [a0]

Properties computed using the SCF density matrix

  Nuclear Dipole Moment: [e a0]
     X:     0.8272      Y:     0.0031      Z:    -0.0033

  Electronic Dipole Moment: [e a0]
     X:    -0.7493      Y:    -0.0030      Z:     0.0033

  Dipole Moment: [e a0]
     X:     0.0779      Y:     0.0001      Z:    -0.0000     Total:     0.0779

  Dipole Moment: [D]
     X:     0.1980      Y:     0.0001      Z:    -0.0001     Total:     0.1980

*** tstop() called on n080 at Fri Nov  5 11:56:23 2021
Module time:
	user time   =     497.89 seconds =       8.30 minutes
	system time =       4.63 seconds =       0.08 minutes
	total time  =        126 seconds =       2.10 minutes
Total time:
	user time   =     497.89 seconds =       8.30 minutes
	system time =       4.63 seconds =       0.08 minutes
	total time  =        126 seconds =       2.10 minutes
Grab this energy -157.8130666673255
    Psi4 stopped on: Friday, 05 November 2021 11:56AM
    Psi4 wall time for execution: 0:02:06.36

*** Psi4 exiting successfully. Buy a developer a beer!
